   * xtb version 6.5.1 (579679a) compiled by 'ehlert@majestix' on 2022-07-11
          program call               : /lustre/hpc/kemi/ree/PhD/git/ReactivityQM/dep/xtb-6.5.1/bin/xtb --gfn 1 /lustre/hpc/kemi/ree/PhD/git/ReactivityQM/calculations/R02methylcation/reac01prodN04/conf02/R02methylcation_reac01prodN04_conf02_gfn1.xyz --opt --vfukui --chrg 0 --uhf 0 --alpb DMSO

   ID    Z sym.   atoms
    1    6 C      1, 3, 5, 6, 8-11, 13, 15, 18, 19, 22, 24
    2    8 O      2, 4, 14, 20, 23, 25
    3    7 N      7, 12, 16, 17, 21
    4    1 H      26-42

      * Solvation model:               ALPB
        Solvent                        DMSO
        Solvent mass                       7.8130E+01 g/mol
          :  Hamiltonian                  GFN1-xTB          :
 * total energy  :   -82.9718753 Eh     change       -0.1112710E-10 Eh
 * total energy  :   -82.9879100 Eh     change       -0.1603466E-01 Eh
 * total energy  :   -82.9934923 Eh     change       -0.5582311E-02 Eh
 * total energy  :   -82.9950317 Eh     change       -0.1539442E-02 Eh
 * total energy  :   -82.9961251 Eh     change       -0.1093365E-02 Eh
 * total energy  :   -82.9968515 Eh     change       -0.7264344E-03 Eh
 * total energy  :   -82.9974731 Eh     change       -0.6215777E-03 Eh
 * total energy  :   -82.9979706 Eh     change       -0.4974565E-03 Eh
 * total energy  :   -82.9982815 Eh     change       -0.3109579E-03 Eh
 * total energy  :   -82.9984629 Eh     change       -0.1813710E-03 Eh
 * total energy  :   -83.0005902 Eh     change       -0.1125501E-04 Eh
 * total energy  :   -83.0006019 Eh     change       -0.1173746E-04 Eh
 * total energy  :   -83.0006124 Eh     change       -0.1046832E-04 Eh
 * total energy  :   -83.0006242 Eh     change       -0.1185448E-04 Eh
 * total energy  :   -83.0006426 Eh     change       -0.1839397E-04 Eh
 * total energy  :   -83.0006669 Eh     change       -0.2428958E-04 Eh
 * total energy  :   -83.0006846 Eh     change       -0.1770558E-04 Eh
 * total energy  :   -83.0006935 Eh     change       -0.8874572E-05 Eh
 * total energy  :   -83.0006971 Eh     change       -0.3629397E-05 Eh
   *** GEOMETRY OPTIMIZATION CONVERGED AFTER 53 ITERATIONS ***

 final structure:
================
42
 xtb: 6.5.1 (579679a)
C           -6.18922463140932       -0.05026870785341        1.08842370634402
O           -4.87106975505110        0.48779333374226        1.20529092454321
C           -3.91111779716315        0.02436531296651        0.43129884014057
O           -4.31046903424631       -0.94070589716394       -0.38034457631342
C           -3.49387778826324       -1.60224867413164       -1.34442133011313
C           -2.63150024542578        0.57722575324225        0.53356338151721
N           -1.63533135429193        0.04162238120877       -0.28029560270491
C           -0.44815098576183        0.51361819086143       -0.24407450569558
C            0.63849756845798       -0.02726376655251       -1.15001877687006
C            0.80869459900243        0.92273124291242       -2.33968391220066
C            0.30750285761519       -1.44380698729903       -1.62533148207824
N            1.90037288155015       -0.03756336357428       -0.40683622922544
C            2.02292087326722       -0.69699895220828        0.76693065905548
O            1.10032221857465       -1.22246260860177        1.36653139047062
C            3.41103168500677       -0.68476597924283        1.28891423838455
N            3.85013334248053       -1.19189053761614        2.39833924765378
N            5.18476167753937       -0.92191151944984        2.45322335737510
C            5.47841579945317       -0.26670899018582        1.37360102436714
C            6.79652630919018        0.25807773884772        0.95657856367948
O            4.40051144027037       -0.08263220580129        0.59398436538372
N           -0.08878837506980        1.57366384566827        0.55633291096631
C           -0.93729944207196        2.20167468072743        1.42580157398008
O           -0.55713254911077        3.13143255078811        2.11473196712571
C           -2.35843334983231        1.65842643109468        1.45244145068049
O           -3.17096595455298        2.16083343325464        2.22132427491103
H           -6.57513794718384        0.11054969883147        0.07993304337571
H           -6.79923300491858        0.48303123504039        1.81560929074915
H           -6.18461134408231       -1.11959458481740        1.30935584969541
H           -2.68128738381192       -2.14249958179036       -0.85633133481408
H           -4.15353270856291       -2.30234846166405       -1.85708758795648
H           -3.08113698060296       -0.88659325851439       -2.05674081874691
H            1.58385606534427        0.54908008838989       -3.00578902775304
H           -0.12810372388360        0.99039326960513       -2.89034679080259
H            1.08825880356092        1.91557256543111       -1.99143127436934
H            1.14863417941173       -1.84802175328033       -2.18462664063506
H            0.09896423508164       -2.08856243735619       -0.77231320495453
H           -0.56744275769148       -1.41486397890619       -2.27137424140932
H            2.72788754972785        0.27820986501378       -0.88215033284683
H            7.54277066839330        0.02613612892395        1.71274945452959
H            6.73799219190317        1.33725462182158        0.81685473521825
H            7.08779927576912       -0.18686938552536        0.00546267238106
H            0.85798989137470        1.91689026316081        0.50346174696855

          :  Hamiltonian                  GFN1-xTB          :
         :: total energy             -83.000697132469 Eh    ::
         :: gradient norm              0.000329445882 Eh/a0 ::
         :: HOMO-LUMO gap              2.367196818151 eV    ::
         :: SCC energy               -83.781328939242 Eh    ::
         :: -> Gsolv                  -0.073813054161 Eh    ::
         :: repulsion energy           0.807065951182 Eh    ::

    * Orbital Energies and Occupations

         #    Occupation            Energy/Eh            Energy/eV
      -------------------------------------------------------------
         1        2.0000           -0.8649020             -23.5352
       ...           ...                  ...                  ...
        55        2.0000           -0.5062766             -13.7765
        56        2.0000           -0.5046153             -13.7313
        57        2.0000           -0.4991340             -13.5821
        58        2.0000           -0.4929478             -13.4138
        59        2.0000           -0.4799311             -13.0596
        60        2.0000           -0.4757190             -12.9450
        61        2.0000           -0.4672370             -12.7142
        62        2.0000           -0.4613184             -12.5531
        63        2.0000           -0.4531592             -12.3311
        64        2.0000           -0.4516786             -12.2908
        65        2.0000           -0.4447433             -12.1021
        66        2.0000           -0.4183491             -11.3839
        67        2.0000           -0.4120285             -11.2119 (HOMO)
        68                         -0.3250356              -8.8447 (LUMO)
        69                         -0.3110521              -8.4642
        70                         -0.2703415              -7.3564
        71                         -0.2560245              -6.9668
        72                         -0.2454941              -6.6802
        73                         -0.1983711              -5.3980
        74                         -0.1534205              -4.1748
        75                         -0.1513395              -4.1182
        76                         -0.1425676              -3.8795
        77                         -0.1408907              -3.8338
        78                         -0.1318106              -3.5867
       ...                                ...                  ...
       134                          0.7557611              20.5653
      -------------------------------------------------------------
                  HL-Gap            0.0869929 Eh            2.3672 eV

Wiberg/Mayer (AO) data.
largest (>0.10) Wiberg bond orders for each atom

     #   Z sym  total        # sym  WBO       # sym  WBO       # sym  WBO
 ---------------------------------------------------------------------------
     1   6 C    3.863 --    27 H    0.984    28 H    0.978    26 H    0.978
                             2 O    0.890
     2   8 O    2.237 --     3 C    1.150     1 C    0.890
     3   6 C    3.833 --     6 C    1.338     2 O    1.150     4 O    1.129
     4   8 O    2.222 --     3 C    1.129     5 C    0.883
     5   6 C    3.854 --    30 H    0.981    31 H    0.976    29 H    0.976
                             4 O    0.883
     6   6 C    3.924 --     3 C    1.338    24 C    1.164     7 N    1.106
     7   7 N    3.044 --     8 C    1.654     6 C    1.106
     8   6 C    3.931 --     7 N    1.654    21 N    1.106     9 C    0.976
     9   6 C    3.937 --    11 C    0.990    10 C    0.984     8 C    0.976
                            12 N    0.925
    10   6 C    3.988 --     9 C    0.984    34 H    0.984    33 H    0.984
                            32 H    0.982
    11   6 C    3.989 --     9 C    0.990    35 H    0.985    37 H    0.983
                            36 H    0.981
    12   7 N    3.341 --    13 C    1.247     9 C    0.925    38 H    0.891
                            14 O    0.175
    13   6 C    3.917 --    14 O    1.590    12 N    1.247    15 C    0.994
    14   8 O    1.892 --    13 C    1.590    12 N    0.175
    15   6 C    3.873 --    16 N    1.622    20 O    1.047    13 C    0.994
    16   7 N    3.000 --    15 C    1.622    17 N    1.199
    17   7 N    2.981 --    18 C    1.610    16 N    1.199
    18   6 C    3.868 --    17 N    1.610    20 O    1.073    19 C    1.032
    19   6 C    3.986 --    18 C    1.032    39 H    0.983    40 H    0.963
                            41 H    0.962
    20   8 O    2.317 --    18 C    1.073    15 C    1.047
    21   7 N    3.440 --    22 C    1.166     8 C    1.106    42 H    0.886
                            23 O    0.139
    22   6 C    3.884 --    23 O    1.631    21 N    1.166    24 C    0.940
    23   8 O    1.909 --    22 C    1.631    21 N    0.139
    24   6 C    3.919 --    25 O    1.631     6 C    1.164    22 C    0.940
    25   8 O    1.916 --    24 C    1.631
    26   1 H    1.005 --     1 C    0.978
    27   1 H    1.009 --     1 C    0.984
    28   1 H    1.006 --     1 C    0.978
    29   1 H    1.020 --     5 C    0.976
    30   1 H    1.008 --     5 C    0.981
    31   1 H    1.020 --     5 C    0.976
    32   1 H    0.996 --    10 C    0.982
    33   1 H    1.001 --    10 C    0.984
    34   1 H    0.998 --    10 C    0.984
    35   1 H    1.001 --    11 C    0.985
    36   1 H    1.010 --    11 C    0.981
    37   1 H    1.006 --    11 C    0.983
    38   1 H    0.932 --    12 N    0.891
    39   1 H    0.998 --    19 C    0.983
    40   1 H    0.996 --    19 C    0.963
    41   1 H    0.996 --    19 C    0.962
    42   1 H    0.937 --    21 N    0.886
 ---------------------------------------------------------------------------

           -------------------------------------------------
          | TOTAL ENERGY              -83.000697132469 Eh   |
          | GRADIENT NORM               0.000329445882 Eh/α |
          | HOMO-LUMO GAP               2.367196818151 eV   |
           -------------------------------------------------

 * finished run on 2023/06/21 at 17:34:12.483
