   * xtb version 6.5.1 (579679a) compiled by 'ehlert@majestix' on 2022-07-11
          program call               : /lustre/hpc/kemi/ree/PhD/git/ReactivityQM/dep/xtb-6.5.1/bin/xtb --gfn 1 /lustre/hpc/kemi/ree/PhD/git/ReactivityQM/calculations/R02deprot/reac01prodE14/conf09/R02deprot_reac01prodE14_conf09_gfn1.xyz --opt --vfukui --chrg -2 --uhf 0 --alpb DMSO

   ID    Z sym.   atoms
    1    6 C      1, 3, 5, 7-10, 12, 14, 17, 18, 21, 23, 24
    2    8 O      2, 4, 13, 19, 22, 25
    3    7 N      6, 11, 15, 16, 20
    4    1 H      26-42

      * Solvation model:               ALPB
        Solvent                        DMSO
        Solvent mass                       7.8130E+01 g/mol
          :  Hamiltonian                  GFN1-xTB          :
 * total energy  :   -83.5961921 Eh     change       -0.6627943E-10 Eh
 * total energy  :   -83.6184830 Eh     change       -0.2229095E-01 Eh
 * total energy  :   -83.6281172 Eh     change       -0.9634194E-02 Eh
 * total energy  :   -83.6302803 Eh     change       -0.2163043E-02 Eh
 * total energy  :   -83.6319647 Eh     change       -0.1684467E-02 Eh
 * total energy  :   -83.6326760 Eh     change       -0.7113118E-03 Eh
 * total energy  :   -83.6330813 Eh     change       -0.4052534E-03 Eh
 * total energy  :   -83.6332887 Eh     change       -0.2074087E-03 Eh
 * total energy  :   -83.6334379 Eh     change       -0.1491624E-03 Eh
 * total energy  :   -83.6335791 Eh     change       -0.1412424E-03 Eh
 * total energy  :   -83.6350283 Eh     change       -0.7985431E-05 Eh
 * total energy  :   -83.6350382 Eh     change       -0.9893574E-05 Eh
 * total energy  :   -83.6350491 Eh     change       -0.1081933E-04 Eh
 * total energy  :   -83.6350595 Eh     change       -0.1044246E-04 Eh
 * total energy  :   -83.6350699 Eh     change       -0.1042333E-04 Eh
 * total energy  :   -83.6350806 Eh     change       -0.1064307E-04 Eh
 * total energy  :   -83.6350908 Eh     change       -0.1022979E-04 Eh
 * total energy  :   -83.6351006 Eh     change       -0.9803673E-05 Eh
 * total energy  :   -83.6351049 Eh     change       -0.4300737E-05 Eh
   *** GEOMETRY OPTIMIZATION CONVERGED AFTER 68 ITERATIONS ***

 final structure:
================
42
 xtb: 6.5.1 (579679a)
C            5.31464656159155        2.20340491149692        1.26930286448417
O            4.07751313001855        1.65717392004855        0.87534516233369
C            4.14859305962062        0.32827820591448        0.37620852352157
O            5.27403206820739       -0.21889590458773        0.33952127910739
C            2.91522438150962       -0.18652515799724       -0.01748309930415
N            1.80143670376211        0.63461052149210        0.01545740309489
C            0.65269602091751        0.18135009604498       -0.36563380735978
C           -0.52734930195361        1.15475770045307       -0.36747701530576
C           -0.37766935467416        2.17624403208905        0.76437160643297
C           -0.60053971200422        1.86596758515902       -1.72980604639326
N           -1.73377890356234        0.34633127309018       -0.17789003252941
C           -2.98272076017811        0.81013934320427       -0.07057555225949
O           -3.31541585707611        1.99543837935181       -0.05496982992330
C           -3.96084632350006       -0.29877115165803        0.06471111980710
N           -3.69019310041292       -1.57451811323378        0.06695838251173
N           -4.87738874380047       -2.22948131241007        0.23835039612553
C           -5.79288266925226       -1.31855267920109        0.33044818044264
C           -7.24684293794242       -1.51887275422254        0.52583625627512
O           -5.28696042816324       -0.07734778534110        0.22858856369468
N            0.33811434508005       -1.09736172450459       -0.75929498175868
C            1.30558509793514       -2.00048466066875       -0.80825037719357
O            1.10321826550766       -3.21552306881771       -1.04837939605371
C            2.79082980482360       -1.59533379201769       -0.55601122341091
C            3.55773351947600       -1.76181897038026       -1.88920986260164
O            3.31002095721637       -2.55806261244375        0.38462111384662
H            5.78551295192183        1.61118278863122        2.06623560622095
H            6.01837117970704        2.26284631276691        0.42769306430587
H            5.12518308854575        3.21174371983334        1.64371116463606
H           -1.16634208159704        2.92570664166522        0.72748193792797
H           -0.40959550585857        1.67183374639731        1.73035397939802
H            0.58912907115180        2.67054711375885        0.66282575210461
H           -1.43423389907702        2.56687955588470       -1.75811673801189
H           -0.72791169044993        1.13130170041092       -2.52476320112450
H            0.32676180429623        2.41215605971821       -1.89950113517648
H           -1.57592939804599       -0.65964457705699       -0.28405285775503
H           -7.79856386548177       -1.11727953316719       -0.32366548022950
H           -7.45866118603996       -2.58037609203869        0.62457661605230
H           -7.58137559748614       -0.99628347403493        1.42144430843443
H            3.38582419973803       -2.76005562625081       -2.29339405222833
H            4.62641731565070       -1.62753623862277       -1.72027840328942
H            3.21344495402694       -1.02153969725199       -2.61141988154326
H            2.88491283585647       -3.40362868151741        0.16805569269617

          :  Hamiltonian                  GFN1-xTB          :
         :: total energy             -83.635104898595 Eh    ::
         :: gradient norm              0.000197388251 Eh/a0 ::
         :: HOMO-LUMO gap              0.150280675428 eV    ::
         :: SCC energy               -84.368458293968 Eh    ::
         :: -> Gsolv                  -0.280933047174 Eh    ::
         :: repulsion energy           0.758885477249 Eh    ::

    * Orbital Energies and Occupations

         #    Occupation            Energy/Eh            Energy/eV
      -------------------------------------------------------------
         1        2.0000           -0.8420090             -22.9122
       ...           ...                  ...                  ...
        56        2.0000           -0.4383170             -11.9272
        57        2.0000           -0.4360319             -11.8650
        58        2.0000           -0.4292786             -11.6813
        59        2.0000           -0.4228061             -11.5051
        60        2.0000           -0.4222382             -11.4897
        61        2.0000           -0.4156515             -11.3105
        62        2.0000           -0.4094283             -11.1411
        63        2.0000           -0.3953211             -10.7572
        64        2.0000           -0.3832653             -10.4292
        65        2.0000           -0.3618055              -9.8452
        66        2.0000           -0.3539165              -9.6306
        67        2.0000           -0.3299727              -8.9790
        68        1.8963           -0.2899792              -7.8907 (HOMO)
        69        0.1037           -0.2844564              -7.7405 (LUMO)
        70                         -0.2393941              -6.5142
        71                         -0.2022259              -5.5028
        72                         -0.1704694              -4.6387
        73                         -0.1366705              -3.7190
        74                         -0.1361101              -3.7037
        75                         -0.1126235              -3.0646
        76                         -0.1039600              -2.8289
        77                         -0.0974564              -2.6519
        78                         -0.0925991              -2.5197
        79                         -0.0739497              -2.0123
       ...                                ...                  ...
       134                          0.7250297              19.7291
      -------------------------------------------------------------
                  HL-Gap            0.0055227 Eh            0.1503 eV

Wiberg/Mayer (AO) data.
largest (>0.10) Wiberg bond orders for each atom

     #   Z sym  total        # sym  WBO       # sym  WBO       # sym  WBO
 ---------------------------------------------------------------------------
     1   6 C    3.926 --    28 H    0.987    27 H    0.980    26 H    0.980
                             2 O    0.960
     2   8 O    2.047 --     1 C    0.960     3 C    0.911
     3   6 C    3.848 --     4 O    1.428     5 C    1.375     2 O    0.911
     4   8 O    1.739 --     3 C    1.428     5 C    0.119
     5   6 C    3.814 --     3 C    1.375     6 N    1.152    23 C    0.982
                             4 O    0.119
     6   7 N    3.010 --     7 C    1.578     5 C    1.152
     7   6 C    3.927 --     6 N    1.578    20 N    1.164     8 C    0.961
     8   6 C    3.920 --     9 C    0.994    10 C    0.979     7 C    0.961
                            11 N    0.916
     9   6 C    3.995 --     8 C    0.994    30 H    0.987    29 H    0.985
                            31 H    0.983
    10   6 C    3.991 --    34 H    0.987    33 H    0.987    32 H    0.985
                             8 C    0.979
    11   7 N    3.366 --    12 C    1.296     8 C    0.916    35 H    0.872
                            13 O    0.181
    12   6 C    3.898 --    13 O    1.527    11 N    1.296    14 C    0.998
    13   8 O    1.834 --    12 C    1.527    11 N    0.181
    14   6 C    3.820 --    15 N    1.583    19 O    1.042    12 C    0.998
    15   7 N    2.955 --    14 C    1.583    16 N    1.186
    16   7 N    2.980 --    17 C    1.622    15 N    1.186
    17   6 C    3.864 --    16 N    1.622    19 O    1.074    18 C    1.028
    18   6 C    3.990 --    17 C    1.028    37 H    0.984    38 H    0.967
                            36 H    0.966
    19   8 O    2.293 --    17 C    1.074    14 C    1.042
    20   7 N    2.953 --    21 C    1.391     7 C    1.164    22 O    0.136
    21   6 C    3.902 --    22 O    1.462    20 N    1.391    23 C    0.911
    22   8 O    1.766 --    21 C    1.462    20 N    0.136
    23   6 C    3.897 --     5 C    0.982    24 C    0.970    25 O    0.916
                            21 C    0.911
    24   6 C    3.991 --    41 H    0.988    39 H    0.986    40 H    0.985
                            23 C    0.970
    25   8 O    1.871 --    23 C    0.916    42 H    0.867
    26   1 H    1.023 --     1 C    0.980
    27   1 H    1.023 --     1 C    0.980
    28   1 H    1.022 --     1 C    0.987
    29   1 H    1.017 --     9 C    0.985
    30   1 H    1.011 --     9 C    0.987
    31   1 H    1.028 --     9 C    0.983
    32   1 H    1.011 --    10 C    0.985
    33   1 H    1.010 --    10 C    0.987
    34   1 H    1.011 --    10 C    0.987
    35   1 H    0.996 --    11 N    0.872
    36   1 H    0.999 --    18 C    0.966
    37   1 H    1.001 --    18 C    0.984
    38   1 H    0.999 --    18 C    0.967
    39   1 H    1.017 --    24 C    0.986
    40   1 H    1.026 --    24 C    0.985
    41   1 H    1.015 --    24 C    0.988
    42   1 H    0.914 --    25 O    0.867
 ---------------------------------------------------------------------------

           -------------------------------------------------
          | TOTAL ENERGY              -83.635104898595 Eh   |
          | GRADIENT NORM               0.000197388251 Eh/α |
          | HOMO-LUMO GAP               0.150280675428 eV   |
           -------------------------------------------------

 * finished run on 2023/06/20 at 18:04:35.420
