   * xtb version 6.5.1 (579679a) compiled by 'ehlert@majestix' on 2022-07-11
          program call               : /lustre/hpc/kemi/ree/PhD/git/ReactivityQM/dep/xtb-6.5.1/bin/xtb --gfn 1 /lustre/hpc/kemi/ree/PhD/git/ReactivityQM/calculations/RaltegravirCLI/reac01prodN02/conf08/RaltegravirCLI_reac01prodN02_conf08_gfn1.xyz --opt --vfukui --chrg 1 --uhf 0 --alpb DMSO

   ID    Z sym.   atoms
    1    6 C      1, 2, 4, 5, 10
    2    8 O      3, 6
    3   17 Cl     7
    4    7 N      8, 9
    5    1 H      11-16

      * Solvation model:               ALPB
        Solvent                        DMSO
        Solvent mass                       7.8130E+01 g/mol
          :  Hamiltonian                  GFN1-xTB          :
 * total energy  :   -33.4328046 Eh     change       -0.1215028E-11 Eh
 * total energy  :   -33.4386145 Eh     change       -0.5809834E-02 Eh
 * total energy  :   -33.4402970 Eh     change       -0.1682526E-02 Eh
 * total energy  :   -33.4404349 Eh     change       -0.1378806E-03 Eh
 * total energy  :   -33.4405190 Eh     change       -0.8408502E-04 Eh
 * total energy  :   -33.4405251 Eh     change       -0.6142646E-05 Eh
 * total energy  :   -33.4405261 Eh     change       -0.1027729E-05 Eh
   *** GEOMETRY OPTIMIZATION CONVERGED AFTER 7 ITERATIONS ***

 final structure:
================
16
 xtb: 6.5.1 (579679a)
C           -1.77367283939217       -1.31215161714694       -0.09307750956345
C           -0.48326183298139       -0.60678218777780       -0.06337381871308
O            0.66962325307058       -1.22503476384715       -0.19425815054657
C            1.61981543081538       -0.27487499469696       -0.10638271931019
C            3.06637492049020       -0.64037458030642       -0.20781352325797
O            3.43106779128697       -1.76342690004414       -0.35819609400788
Cl           4.10517994210573        0.70421807990222       -0.09157217232090
N            1.09024566928264        0.89808623170253        0.07238204580724
N           -0.23430783096983        0.67970547324631        0.09957479506009
C           -1.13839258435126        1.79674953046312        0.27682351733003
H           -1.60471532264324       -2.36616085357670       -0.30684029504775
H           -2.27344784876023       -1.20971475008847        0.87191698173350
H           -2.42370608557813       -0.87718701598400       -0.85306985921610
H           -2.13809044038371        1.40976201270683        0.44969721805567
H           -1.11580664569466        2.40686738068842       -0.62556654542884
H           -0.79690457629698        2.38032095475912        1.12975412942630

          :  Hamiltonian                  GFN1-xTB          :
         :: total energy             -33.440526138464 Eh    ::
         :: gradient norm              0.000986850467 Eh/a0 ::
         :: HOMO-LUMO gap              3.239880453749 eV    ::
         :: SCC energy               -33.736150413541 Eh    ::
         :: -> Gsolv                  -0.089543919605 Eh    ::
         :: repulsion energy           0.302792715776 Eh    ::

    * Orbital Energies and Occupations

         #    Occupation            Energy/Eh            Energy/eV
      -------------------------------------------------------------
         1        2.0000           -0.9824776             -26.7346
       ...           ...                  ...                  ...
        15        2.0000           -0.6355358             -17.2938
        16        2.0000           -0.6322103             -17.2033
        17        2.0000           -0.6199129             -16.8687
        18        2.0000           -0.6149663             -16.7341
        19        2.0000           -0.5969151             -16.2429
        20        2.0000           -0.5826711             -15.8553
        21        2.0000           -0.5779792             -15.7276
        22        2.0000           -0.5694810             -15.4964
        23        2.0000           -0.5582260             -15.1901
        24        2.0000           -0.5326781             -14.4949
        25        2.0000           -0.5222295             -14.2106
        26        2.0000           -0.5183567             -14.1052
        27        2.0000           -0.5086482             -13.8410 (HOMO)
        28                         -0.3895848             -10.6011 (LUMO)
        29                         -0.3537587              -9.6263
        30                         -0.2839294              -7.7261
        31                         -0.2394084              -6.5146
        32                         -0.1882184              -5.1217
        33                         -0.1764597              -4.8017
        34                         -0.1210932              -3.2951
        35                         -0.1164584              -3.1690
        36                         -0.1092088              -2.9717
        37                         -0.1081344              -2.9425
        38                         -0.1080116              -2.9391
       ...                                ...                  ...
        57                          0.7214061              19.6305
      -------------------------------------------------------------
                  HL-Gap            0.1190634 Eh            3.2399 eV

Wiberg/Mayer (AO) data.
largest (>0.10) Wiberg bond orders for each atom

     #   Z sym  total        # sym  WBO       # sym  WBO       # sym  WBO
 ---------------------------------------------------------------------------
     1   6 C    3.957 --     2 C    1.043    11 H    0.971    13 H    0.946
                            12 H    0.939
     2   6 C    3.836 --     9 N    1.408     3 O    1.161     1 C    1.043
     3   8 O    2.396 --     2 C    1.161     4 C    1.062
     4   6 C    3.859 --     8 N    1.607     3 O    1.062     5 C    0.980
     5   6 C    3.901 --     6 O    1.795     7 Cl   1.084     4 C    0.980
     6   8 O    2.067 --     5 C    1.795     7 Cl   0.174
     7  17 Cl   1.314 --     5 C    1.084     6 O    0.174
     8   7 N    2.992 --     4 C    1.607     9 N    1.166
     9   7 N    3.632 --     2 C    1.408     8 N    1.166    10 C    0.907
    10   6 C    3.878 --    14 H    0.980    16 H    0.968    15 H    0.962
                             9 N    0.907
    11   1 H    0.984 --     1 C    0.971
    12   1 H    0.983 --     1 C    0.939
    13   1 H    0.984 --     1 C    0.946
    14   1 H    0.988 --    10 C    0.980
    15   1 H    0.988 --    10 C    0.962
    16   1 H    0.989 --    10 C    0.968
 ---------------------------------------------------------------------------

           -------------------------------------------------
          | TOTAL ENERGY              -33.440526138464 Eh   |
          | GRADIENT NORM               0.000986850467 Eh/α |
          | HOMO-LUMO GAP               3.239880453749 eV   |
           -------------------------------------------------

 * finished run on 2023/06/20 at 14:54:30.487
