   * xtb version 6.5.1 (579679a) compiled by 'ehlert@majestix' on 2022-07-11
          program call               : /lustre/hpc/kemi/ree/PhD/git/ReactivityQM/dep/xtb-6.5.1/bin/xtb --gfn 1 /lustre/hpc/kemi/ree/PhD/git/ReactivityQM/calculations/RaltegravirCLI/reac01prodE06/conf03/RaltegravirCLI_reac01prodE06_conf03_gfn1.xyz --opt --vfukui --chrg -1 --uhf 0 --alpb DMSO

   ID    Z sym.   atoms
    1    6 C      1, 3, 5, 8, 9
    2    8 O      2, 10
    3   17 Cl     4
    4    7 N      6, 7
    5    1 H      11-16

      * Solvation model:               ALPB
        Solvent                        DMSO
        Solvent mass                       7.8130E+01 g/mol
          :  Hamiltonian                  GFN1-xTB          :
 * total energy  :   -34.1178152 Eh     change       -0.4547474E-12 Eh
 * total energy  :   -34.1232390 Eh     change       -0.5423842E-02 Eh
 * total energy  :   -34.1253924 Eh     change       -0.2153353E-02 Eh
 * total energy  :   -34.1259423 Eh     change       -0.5499124E-03 Eh
 * total energy  :   -34.1264080 Eh     change       -0.4657065E-03 Eh
 * total energy  :   -34.1267919 Eh     change       -0.3839086E-03 Eh
 * total energy  :   -34.1274765 Eh     change       -0.6845981E-03 Eh
 * total energy  :   -34.1281323 Eh     change       -0.6558281E-03 Eh
 * total energy  :   -34.1286672 Eh     change       -0.5349404E-03 Eh
 * total energy  :   -34.1292300 Eh     change       -0.5627620E-03 Eh
 * total energy  :   -34.1302032 Eh     change       -0.5775236E-04 Eh
 * total energy  :   -34.1302566 Eh     change       -0.5343054E-04 Eh
 * total energy  :   -34.1303122 Eh     change       -0.5556808E-04 Eh
 * total energy  :   -34.1303483 Eh     change       -0.3616940E-04 Eh
 * total energy  :   -34.1303770 Eh     change       -0.2868305E-04 Eh
 * total energy  :   -34.1303868 Eh     change       -0.9754401E-05 Eh
 * total energy  :   -34.1303956 Eh     change       -0.8848574E-05 Eh
 * total energy  :   -34.1304030 Eh     change       -0.7425957E-05 Eh
 * total energy  :   -34.1304079 Eh     change       -0.4870525E-05 Eh
   *** GEOMETRY OPTIMIZATION CONVERGED AFTER 24 ITERATIONS ***

 final structure:
================
16
 xtb: 6.5.1 (579679a)
C            2.64985256715035       -0.02466990387967        0.66819757200410
O            2.04972317374513       -1.23201026332661        0.19612389265392
C            1.25137381350052       -1.15646519421354       -0.92208779064567
Cl           2.23444627085326       -0.94332406898167       -2.45852718650682
C            0.09903781889660       -0.35287989390107       -0.91160163732221
N           -0.65232454431636        0.01672397256372       -1.94661741313759
N           -1.83850949187447        0.49869585218770       -1.41623347413665
C           -1.75679508808870        0.39412586424409       -0.13823739199369
C           -2.78189608607145        0.77024813127168        0.87089532146862
O           -0.56937834219209       -0.13373034951947        0.27553389111781
H            1.88972215867445        0.73275241587913        0.89787040623003
H            3.19882970698783       -0.27037891528232        1.57917322878414
H            3.34774431976510        0.38307697684249       -0.07488362918915
H           -3.05712383635603       -0.09373845939889        1.47653589016483
H           -2.39751371506347        1.54118797588720        1.53987991127705
H           -3.66718872561059        1.14794885962733        0.36397840923185

          :  Hamiltonian                  GFN1-xTB          :
         :: total energy             -34.130407903768 Eh    ::
         :: gradient norm              0.000928865872 Eh/a0 ::
         :: HOMO-LUMO gap              2.980366349804 eV    ::
         :: SCC energy               -34.378820485394 Eh    ::
         :: -> Gsolv                  -0.093986820197 Eh    ::
         :: repulsion energy           0.255550456493 Eh    ::

    * Orbital Energies and Occupations

         #    Occupation            Energy/Eh            Energy/eV
      -------------------------------------------------------------
         1        2.0000           -0.8471271             -23.0515
       ...           ...                  ...                  ...
        16        2.0000           -0.5138328             -13.9821
        17        2.0000           -0.5085513             -13.8384
        18        2.0000           -0.4880715             -13.2811
        19        2.0000           -0.4844057             -13.1813
        20        2.0000           -0.4672463             -12.7144
        21        2.0000           -0.4474173             -12.1748
        22        2.0000           -0.4340510             -11.8111
        23        2.0000           -0.4323154             -11.7639
        24        2.0000           -0.4241586             -11.5419
        25        2.0000           -0.4093276             -11.1384
        26        2.0000           -0.3965903             -10.7918
        27        2.0000           -0.3842033             -10.4547
        28        2.0000           -0.3091539              -8.4125 (HOMO)
        29                         -0.1996274              -5.4321 (LUMO)
        30                         -0.1803044              -4.9063
        31                         -0.1350686              -3.6754
        32                         -0.1200755              -3.2674
        33                         -0.1084244              -2.9504
        34                         -0.0538416              -1.4651
        35                         -0.0530632              -1.4439
        36                         -0.0474471              -1.2911
        37                         -0.0429410              -1.1685
        38                          0.0165210               0.4496
        39                          0.0208214               0.5666
       ...                                ...                  ...
        57                          0.6358314              17.3019
      -------------------------------------------------------------
                  HL-Gap            0.1095264 Eh            2.9804 eV

Wiberg/Mayer (AO) data.
largest (>0.10) Wiberg bond orders for each atom

     #   Z sym  total        # sym  WBO       # sym  WBO       # sym  WBO
 ---------------------------------------------------------------------------
     1   6 C    3.932 --    12 H    0.987    11 H    0.982    13 H    0.982
                             2 O    0.933
     2   8 O    2.057 --     3 C    1.006     1 C    0.933
     3   6 C    3.428 --     5 C    1.336     2 O    1.006     4 Cl   0.804
                             6 N    0.145
     4  17 Cl   0.911 --     3 C    0.804
     5   6 C    3.855 --     6 N    1.408     3 C    1.336    10 O    0.982
     6   7 N    2.864 --     5 C    1.408     7 N    1.140     3 C    0.145
     7   7 N    2.982 --     8 C    1.678     6 N    1.140
     8   6 C    3.890 --     7 N    1.678    10 O    1.021     9 C    1.019
     9   6 C    3.995 --     8 C    1.019    16 H    0.986    14 H    0.974
                            15 H    0.973
    10   8 O    2.221 --     8 C    1.021     5 C    0.982
    11   1 H    1.018 --     1 C    0.982
    12   1 H    1.021 --     1 C    0.987
    13   1 H    1.020 --     1 C    0.982
    14   1 H    1.005 --     9 C    0.974
    15   1 H    1.005 --     9 C    0.973
    16   1 H    1.006 --     9 C    0.986
 ---------------------------------------------------------------------------

           -------------------------------------------------
          | TOTAL ENERGY              -34.130407903768 Eh   |
          | GRADIENT NORM               0.000928865872 Eh/α |
          | HOMO-LUMO GAP               2.980366349804 eV   |
           -------------------------------------------------

 * finished run on 2023/06/20 at 14:54:02.671
