   * xtb version 6.5.1 (579679a) compiled by 'ehlert@majestix' on 2022-07-11
          program call               : /lustre/hpc/kemi/ree/PhD/git/ReactivityQM/dep/xtb-6.5.1/bin/xtb --gfn 1 /lustre/hpc/kemi/ree/PhD/git/ReactivityQM/calculations/R02oxygendeprot/reac01prodE08/conf17/R02oxygendeprot_reac01prodE08_conf17_gfn1.xyz --opt --vfukui --chrg -2 --uhf 0 --alpb DMSO

   ID    Z sym.   atoms
    1    6 C      1, 3, 5, 7-10, 12, 14, 15, 18, 19, 22, 24
    2    8 O      2, 4, 13, 20, 23, 25
    3    7 N      6, 11, 16, 17, 21
    4    1 H      26-42

      * Solvation model:               ALPB
        Solvent                        DMSO
        Solvent mass                       7.8130E+01 g/mol
          :  Hamiltonian                  GFN1-xTB          :
 * total energy  :   -83.6245246 Eh     change       -0.3721823E-10 Eh
 * total energy  :   -83.6358090 Eh     change       -0.1128441E-01 Eh
 * total energy  :   -83.6396864 Eh     change       -0.3877383E-02 Eh
 * total energy  :   -83.6402776 Eh     change       -0.5912530E-03 Eh
 * total energy  :   -83.6408034 Eh     change       -0.5257880E-03 Eh
 * total energy  :   -83.6410394 Eh     change       -0.2359841E-03 Eh
 * total energy  :   -83.6412185 Eh     change       -0.1791059E-03 Eh
 * total energy  :   -83.6413214 Eh     change       -0.1029329E-03 Eh
 * total energy  :   -83.6413907 Eh     change       -0.6928543E-04 Eh
 * total energy  :   -83.6414605 Eh     change       -0.6974458E-04 Eh
 * total energy  :   -83.6437464 Eh     change       -0.2691492E-04 Eh
 * total energy  :   -83.6437624 Eh     change       -0.1598505E-04 Eh
 * total energy  :   -83.6437838 Eh     change       -0.2142240E-04 Eh
 * total energy  :   -83.6437986 Eh     change       -0.1481359E-04 Eh
 * total energy  :   -83.6438078 Eh     change       -0.9239458E-05 Eh
 * total energy  :   -83.6438167 Eh     change       -0.8866802E-05 Eh
 * total energy  :   -83.6438250 Eh     change       -0.8315153E-05 Eh
 * total energy  :   -83.6438315 Eh     change       -0.6477278E-05 Eh
 * total energy  :   -83.6438360 Eh     change       -0.4536362E-05 Eh
   *** GEOMETRY OPTIMIZATION CONVERGED AFTER 48 ITERATIONS ***

 final structure:
================
42
 xtb: 6.5.1 (579679a)
C            5.24253552153295        2.07336257301512       -1.49251177614810
O            4.17510718875782        1.37452633278079       -0.87210019366792
C            4.19517418765453        1.36822823118030        0.50028732119183
O            5.08645262746898        1.95186654311448        1.10008780145270
C            3.08847862258939        0.62450621215185        1.07143895231024
N            2.22094436340279        0.05708914270645        0.15628374635901
C            1.20849451903565       -0.62411419297508        0.54681593887438
C            0.26613919977123       -1.26011156761774       -0.45935273988367
C            0.24590103141986       -2.78509241934052       -0.25525172764629
C            0.74776007833926       -0.91881215550798       -1.87479231665854
N           -1.06801832253859       -0.70043418886660       -0.22956532005879
C           -2.16758614476538       -1.07103549043897       -0.93763511384709
O           -2.11974965995603       -1.79845692191618       -1.93251823103757
C           -3.46188404269075       -0.34665275828365       -0.52039054090028
C           -4.66753484333855       -1.29765759643679       -0.64223402299394
N           -3.56319414103724        0.79134433732648       -1.44310331399390
N           -3.54342454929201        1.90150525211667       -0.65451319124122
C           -3.44551620677072        1.58197374932168        0.58154189406120
C           -3.42714637136750        2.48246043755229        1.76702473412525
O           -3.36134019036250        0.18708783105345        0.79428891068444
N            0.93612630049726       -0.81372041102210        1.88925120621196
C            1.72562296427735       -0.33473366082443        2.90241421344519
O            1.43636154750930       -0.58581211866580        4.07111490604911
C            2.92099609873125        0.48680335156049        2.47535488352074
O            3.66123038488338        0.96849835695180        3.35312871687535
H            5.10133950508032        1.98589189919949       -2.56917438060450
H            6.20753301781393        1.63835846117830       -1.21235111156883
H            5.23790734341464        3.13005494515022       -1.20489803117441
H           -0.14128903028493       -3.03144556007263        0.73186636431257
H           -0.38781052140963       -3.25474563782388       -1.00581951177309
H            1.25593160469427       -3.18190697323831       -0.34660902892976
H            1.77581840828285       -1.25796474018951       -1.99564386655881
H            0.12467785288828       -1.40892326184145       -2.62038520093009
H            0.71746638936231        0.15972617757698       -2.03102290027972
H           -1.23626310102079       -0.29781000141807        0.68312208635321
H           -4.60309360328616       -2.08548905898820        0.10649909054242
H           -5.58629769426280       -0.73424837780605       -0.49210179906421
H           -4.67522943424115       -1.74069149403160       -1.63662039364727
H           -3.60632221726394        3.50570651496110        1.43963537256069
H           -4.20312224764567        2.19981104443300        2.48170573745730
H           -2.46631773903418        2.44356566645208        2.28749465294095
H            0.15314030316863       -1.38250947253095        2.16827718330989

          :  Hamiltonian                  GFN1-xTB          :
         :: total energy             -83.643836041741 Eh    ::
         :: gradient norm              0.000559185417 Eh/a0 ::
         :: HOMO-LUMO gap              0.293165334588 eV    ::
         :: SCC energy               -84.383057897172 Eh    ::
         :: -> Gsolv                  -0.263246710375 Eh    ::
         :: repulsion energy           0.765596767782 Eh    ::

    * Orbital Energies and Occupations

         #    Occupation            Energy/Eh            Energy/eV
      -------------------------------------------------------------
         1        2.0000           -0.7931020             -21.5814
       ...           ...                  ...                  ...
        56        2.0000           -0.4484601             -12.2032
        57        2.0000           -0.4468298             -12.1589
        58        2.0000           -0.4328501             -11.7785
        59        2.0000           -0.4321207             -11.7586
        60        2.0000           -0.4096608             -11.1474
        61        2.0000           -0.4067927             -11.0694
        62        2.0000           -0.4023086             -10.9474
        63        2.0000           -0.3995241             -10.8716
        64        2.0000           -0.3779128             -10.2835
        65        2.0000           -0.3713300             -10.1044
        66        2.0000           -0.3592198              -9.7749
        67        2.0000           -0.3492297              -9.5030
        68        1.9931           -0.2754175              -7.4945 (HOMO)
        69        0.0069           -0.2646438              -7.2013 (LUMO)
        70                         -0.2310700              -6.2877
        71                         -0.2079983              -5.6599
        72                         -0.1909514              -5.1961
        73                         -0.1619392              -4.4066
        74                         -0.1208298              -3.2879
        75                         -0.1109531              -3.0192
        76                         -0.1073045              -2.9199
        77                         -0.1025944              -2.7917
        78                         -0.0998857              -2.7180
        79                         -0.0882927              -2.4026
       ...                                ...                  ...
       134                          0.7690570              20.9271
      -------------------------------------------------------------
                  HL-Gap            0.0107736 Eh            0.2932 eV

Wiberg/Mayer (AO) data.
largest (>0.10) Wiberg bond orders for each atom

     #   Z sym  total        # sym  WBO       # sym  WBO       # sym  WBO
 ---------------------------------------------------------------------------
     1   6 C    3.902 --    26 H    0.987    27 H    0.980    28 H    0.980
                             2 O    0.930
     2   8 O    2.132 --     3 C    1.018     1 C    0.930     4 O    0.107
     3   6 C    3.847 --     4 O    1.586     5 C    1.127     2 O    1.018
     4   8 O    1.863 --     3 C    1.586     2 O    0.107
     5   6 C    3.916 --    24 C    1.267     6 N    1.151     3 C    1.127
                            25 O    0.129
     6   7 N    3.027 --     7 C    1.637     5 C    1.151
     7   6 C    3.929 --     6 N    1.637    21 N    1.089     8 C    0.977
     8   6 C    3.952 --    10 C    0.997     9 C    0.982     7 C    0.977
                            11 N    0.932
     9   6 C    3.992 --    31 H    0.987    29 H    0.984     8 C    0.982
                            30 H    0.981
    10   6 C    3.995 --     8 C    0.997    32 H    0.987    34 H    0.986
                            33 H    0.982
    11   7 N    3.297 --    12 C    1.219     8 C    0.932    35 H    0.903
                            13 O    0.142
    12   6 C    3.866 --    13 O    1.555    11 N    1.219    14 C    0.922
    13   8 O    1.861 --    12 C    1.555    11 N    0.142
    14   6 C    3.896 --    16 N    0.977    15 C    0.971    20 O    0.923
                            12 C    0.922
    15   6 C    3.995 --    36 H    0.988    37 H    0.987    38 H    0.986
                            14 C    0.971
    16   7 N    2.612 --    17 N    1.194    14 C    0.977    18 C    0.209
    17   7 N    3.019 --    18 C    1.666    16 N    1.194
    18   6 C    3.859 --    17 N    1.666    19 C    1.017    20 O    0.918
                            16 N    0.209
    19   6 C    3.996 --    18 C    1.017    39 H    0.987    40 H    0.978
                            41 H    0.976
    20   8 O    2.062 --    14 C    0.923    18 C    0.918
    21   7 N    3.426 --    22 C    1.163     7 C    1.089    42 H    0.898
                            23 O    0.135
    22   6 C    3.876 --    23 O    1.574    21 N    1.163    24 C    0.969
    23   8 O    1.851 --    22 C    1.574    21 N    0.135
    24   6 C    3.941 --    25 O    1.520     5 C    1.267    22 C    0.969
    25   8 O    1.822 --    24 C    1.520     5 C    0.129
    26   1 H    1.017 --     1 C    0.987
    27   1 H    1.015 --     1 C    0.980
    28   1 H    1.015 --     1 C    0.980
    29   1 H    1.005 --     9 C    0.984
    30   1 H    1.014 --     9 C    0.981
    31   1 H    1.005 --     9 C    0.987
    32   1 H    1.015 --    10 C    0.987
    33   1 H    1.020 --    10 C    0.982
    34   1 H    1.014 --    10 C    0.986
    35   1 H    0.964 --    11 N    0.903
    36   1 H    1.010 --    15 C    0.988
    37   1 H    1.020 --    15 C    0.987
    38   1 H    1.019 --    15 C    0.986
    39   1 H    1.010 --    19 C    0.987
    40   1 H    1.009 --    19 C    0.978
    41   1 H    1.010 --    19 C    0.976
    42   1 H    0.947 --    21 N    0.898
 ---------------------------------------------------------------------------

           -------------------------------------------------
          | TOTAL ENERGY              -83.643836041741 Eh   |
          | GRADIENT NORM               0.000559185417 Eh/α |
          | HOMO-LUMO GAP               0.293165334588 eV   |
           -------------------------------------------------

 * finished run on 2023/06/21 at 17:10:29.056
