   * xtb version 6.5.1 (579679a) compiled by 'ehlert@majestix' on 2022-07-11
          program call               : /lustre/hpc/kemi/ree/PhD/git/ReactivityQM/dep/xtb-6.5.1/bin/xtb --gfn 1 /lustre/hpc/kemi/ree/PhD/git/ReactivityQM/calculations/R03/reac01prodE03/conf10/R03_reac01prodE03_conf10_gfn1.xyz --opt --vfukui --chrg -1 --uhf 0 --alpb DMSO

   ID    Z sym.   atoms
    1    6 C      1-5, 7-9
    2    7 N      6
    3    9 F      10
    4    1 H      11-21

      * Solvation model:               ALPB
        Solvent                        DMSO
        Solvent mass                       7.8130E+01 g/mol
          :  Hamiltonian                  GFN1-xTB          :
 * total energy  :   -31.4502873 Eh     change       -0.2987832E-11 Eh
 * total energy  :   -31.4561685 Eh     change       -0.5881124E-02 Eh
 * total energy  :   -31.4574202 Eh     change       -0.1251733E-02 Eh
 * total energy  :   -31.4576268 Eh     change       -0.2065871E-03 Eh
 * total energy  :   -31.4577808 Eh     change       -0.1540411E-03 Eh
 * total energy  :   -31.4579155 Eh     change       -0.1347004E-03 Eh
 * total energy  :   -31.4580488 Eh     change       -0.1333097E-03 Eh
 * total energy  :   -31.4581902 Eh     change       -0.1414168E-03 Eh
 * total energy  :   -31.4582670 Eh     change       -0.7678851E-04 Eh
 * total energy  :   -31.4583015 Eh     change       -0.3449692E-04 Eh
 * total energy  :   -31.4583179 Eh     change       -0.1639686E-04 Eh
 * total energy  :   -31.4583260 Eh     change       -0.8118137E-05 Eh
 * total energy  :   -31.4583298 Eh     change       -0.3732259E-05 Eh
   *** GEOMETRY OPTIMIZATION CONVERGED AFTER 13 ITERATIONS ***

 final structure:
================
21
 xtb: 6.5.1 (579679a)
C           -2.05710738599789       -1.32863924371083       -0.68959876875687
C           -1.64165593160438       -0.19827098751631        0.30735795077106
C           -0.25115980619077       -0.43272198710329        0.86661072444537
C            0.84100156527683        0.30622723381140        0.48964451809930
C            2.21401005632910       -0.09413232107692        1.00124681511240
N            2.95260552074134       -0.88936033700350        0.00456809353839
C            0.74490859513056        1.44196009252402       -0.34090138301425
C           -0.55453653969945        1.86801979733896       -0.71596159081531
C           -1.63661963341039        1.14139025203548       -0.36405690253470
F           -2.90811049942034        1.62679706148071       -0.67144914208358
H           -3.05810452119181       -1.14148123558423       -1.08186634189632
H           -2.05132220329009       -2.29464207189644       -0.18327122177248
H           -1.35344668369514       -1.36636905962959       -1.52165029829607
H           -2.39839230440209       -0.21591695666438        1.11738365130119
H           -0.14579563273614       -1.27079938609848        1.55125634103916
H            2.81801350737065        0.79310514044102        1.23556855123728
H            2.13468825716621       -0.69577896325003        1.91635089241755
H            2.41454834717265       -1.72346540716224       -0.20141201763981
H            3.00710821360429       -0.35483896145426       -0.85550897086378
H            1.61730130173466        2.02399332059575       -0.61263913027536
H           -0.68793422288743        2.80492401992421       -1.25167077001348

          :  Hamiltonian                  GFN1-xTB          :
         :: total energy             -31.458329775944 Eh    ::
         :: gradient norm              0.000638742719 Eh/a0 ::
         :: HOMO-LUMO gap              2.558634361089 eV    ::
         :: SCC energy               -31.828466285123 Eh    ::
         :: -> Gsolv                  -0.077025757114 Eh    ::
         :: repulsion energy           0.380201297609 Eh    ::

    * Orbital Energies and Occupations

         #    Occupation            Energy/Eh            Energy/eV
      -------------------------------------------------------------
         1        2.0000           -0.7794899             -21.2110
       ...           ...                  ...                  ...
        16        2.0000           -0.4823833             -13.1263
        17        2.0000           -0.4771445             -12.9838
        18        2.0000           -0.4664101             -12.6917
        19        2.0000           -0.4616087             -12.5610
        20        2.0000           -0.4539893             -12.3537
        21        2.0000           -0.4453775             -12.1193
        22        2.0000           -0.4300717             -11.7028
        23        2.0000           -0.4216801             -11.4745
        24        2.0000           -0.4028194             -10.9613
        25        2.0000           -0.3990767             -10.8594
        26        2.0000           -0.3713282             -10.1044
        27        2.0000           -0.3576398              -9.7319
        28        2.0000           -0.2702922              -7.3550 (HOMO)
        29                         -0.1762641              -4.7964 (LUMO)
        30                         -0.1102516              -3.0001
        31                         -0.0832466              -2.2653
        32                         -0.0766415              -2.0855
        33                         -0.0665209              -1.8101
        34                         -0.0595514              -1.6205
        35                         -0.0490672              -1.3352
        36                         -0.0447698              -1.2182
        37                         -0.0325059              -0.8845
        38                         -0.0211784              -0.5763
        39                         -0.0150141              -0.4086
       ...                                ...                  ...
        62                          0.6664941              18.1362
      -------------------------------------------------------------
                  HL-Gap            0.0940281 Eh            2.5586 eV

Wiberg/Mayer (AO) data.
largest (>0.10) Wiberg bond orders for each atom

     #   Z sym  total        # sym  WBO       # sym  WBO       # sym  WBO
 ---------------------------------------------------------------------------
     1   6 C    3.993 --    13 H    0.989    12 H    0.988    11 H    0.988
                             2 C    0.962
     2   6 C    3.993 --     9 C    1.008     3 C    1.001    14 H    0.967
                             1 C    0.962
     3   6 C    3.905 --     4 C    1.577     2 C    1.001    15 H    0.974
                             7 C    0.117
     4   6 C    3.986 --     3 C    1.577     7 C    1.316     5 C    0.989
     5   6 C    3.967 --     4 C    0.989    17 H    0.982    16 H    0.981
                             6 N    0.976
     6   7 N    2.947 --     5 C    0.976    18 H    0.957    19 H    0.956
     7   6 C    3.882 --     4 C    1.316     8 C    1.271    20 H    0.976
                             3 C    0.117     9 C    0.108
     8   6 C    3.989 --     9 C    1.627     7 C    1.271    21 H    0.972
     9   6 C    3.768 --     8 C    1.627     2 C    1.008    10 F    0.833
                             7 C    0.108
    10   9 F    0.940 --     9 C    0.833
    11   1 H    1.013 --     1 C    0.988
    12   1 H    1.015 --     1 C    0.988
    13   1 H    1.024 --     1 C    0.989
    14   1 H    1.023 --     2 C    0.967
    15   1 H    1.002 --     3 C    0.974
    16   1 H    1.019 --     5 C    0.981
    17   1 H    1.016 --     5 C    0.982
    18   1 H    0.977 --     6 N    0.957
    19   1 H    0.978 --     6 N    0.956
    20   1 H    1.003 --     7 C    0.976
    21   1 H    1.008 --     8 C    0.972
 ---------------------------------------------------------------------------

           -------------------------------------------------
          | TOTAL ENERGY              -31.458329775944 Eh   |
          | GRADIENT NORM               0.000638742719 Eh/α |
          | HOMO-LUMO GAP               2.558634361089 eV   |
           -------------------------------------------------

 * finished run on 2023/06/20 at 15:13:25.049
