   * xtb version 6.5.1 (579679a) compiled by 'ehlert@majestix' on 2022-07-11
          program call               : /lustre/hpc/kemi/ree/PhD/git/ReactivityQM/dep/xtb-6.5.1/bin/xtb --gfn 1 /lustre/hpc/kemi/ree/PhD/git/ReactivityQM/calculations/R02deprot/reac01prodN05/conf20/R02deprot_reac01prodN05_conf20_gfn1.xyz --opt --vfukui --chrg 0 --uhf 0 --alpb DMSO

   ID    Z sym.   atoms
    1    6 C      1, 3, 5, 7-10, 12, 14, 17, 18, 21, 23, 25
    2    8 O      2, 4, 13, 19, 22, 24
    3    7 N      6, 11, 15, 16, 20
    4    1 H      26-42

      * Solvation model:               ALPB
        Solvent                        DMSO
        Solvent mass                       7.8130E+01 g/mol
          :  Hamiltonian                  GFN1-xTB          :
 * total energy  :   -82.9276555 Eh     change       -0.2189893E-10 Eh
 * total energy  :   -82.9435179 Eh     change       -0.1586244E-01 Eh
 * total energy  :   -82.9509442 Eh     change       -0.7426236E-02 Eh
 * total energy  :   -82.9534702 Eh     change       -0.2526003E-02 Eh
 * total energy  :   -82.9556937 Eh     change       -0.2223473E-02 Eh
 * total energy  :   -82.9571818 Eh     change       -0.1488146E-02 Eh
 * total energy  :   -82.9584310 Eh     change       -0.1249235E-02 Eh
 * total energy  :   -82.9607582 Eh     change       -0.2327205E-02 Eh
 * total energy  :   -82.9620345 Eh     change       -0.1276301E-02 Eh
 * total energy  :   -82.9633068 Eh     change       -0.1272300E-02 Eh
 * total energy  :   -82.9734792 Eh     change       -0.7500614E-05 Eh
 * total energy  :   -82.9734857 Eh     change       -0.6453236E-05 Eh
 * total energy  :   -82.9734900 Eh     change       -0.4320742E-05 Eh
 * total energy  :   -82.9734995 Eh     change       -0.9471198E-05 Eh
 * total energy  :   -82.9735029 Eh     change       -0.3426557E-05 Eh
 * total energy  :   -82.9735159 Eh     change       -0.1304193E-04 Eh
 * total energy  :   -82.9735211 Eh     change       -0.5176975E-05 Eh
 * total energy  :   -82.9735273 Eh     change       -0.6175840E-05 Eh
 * total energy  :   -82.9735294 Eh     change       -0.2098529E-05 Eh
   *** GEOMETRY OPTIMIZATION CONVERGED AFTER 85 ITERATIONS ***

 final structure:
================
42
 xtb: 6.5.1 (579679a)
C           -5.19107089335963        2.15959166859936        2.13874338113945
O           -3.97861317883179        1.59748334521394        1.61623153510072
C           -4.03712744666211        0.75834360687208        0.63536724912283
O           -5.21621778849314        0.46814081466780        0.17298886476350
C           -2.81467373672868        0.21307832524951        0.12805070410982
N           -1.68020505342486        0.65570757865823        0.74608496902018
C           -0.53968688829188        0.17993618141587        0.29133896752973
C            0.70783646540813        0.69359348222534        0.99437105061181
C            0.76377348899189        2.22177777530988        0.85909161382130
C            0.65585338456901        0.27840762996917        2.47149223874774
N            1.86299859055804        0.08905590945498        0.34101852363104
C            3.13628484804003        0.31528369385796        0.69017103656096
O            3.51068194655182        1.03933885374031        1.60097181959212
C            4.07603443044440       -0.43885697758695       -0.18607855114444
N            3.75399452816017       -1.19566642820558       -1.19093965895090
N            4.91916072323840       -1.67990162662264       -1.70879856451792
C            5.87729025077987       -1.18701518277216       -0.98574963226582
C            7.33197508407721       -1.41224273054028       -1.13723157516028
O            5.41018490806701       -0.39513734430777       -0.00874473617256
N           -0.37977165859849       -0.68366743830968       -0.70160137145539
C           -1.44305557170669       -1.18742895858707       -1.37760866305208
O           -1.31158596860616       -1.99319611829185       -2.30463119520765
C           -2.76361022985380       -0.70020118679377       -0.92364726994783
O           -3.92904725442089       -1.08624987802225       -1.47321328830722
C           -3.98799419844260       -2.02919531949532       -2.55600457549961
H           -5.70482216327344        2.71746213231088        1.35483160382583
H           -5.83795449840315        1.36195712412153        2.50604749436023
H           -4.89286745550439        2.81966119316423        2.95012285254421
H            0.85067727186040        2.49929078724781       -0.19068063720210
H           -0.15425721793164        2.64605303278785        1.26253173171652
H            1.61529273712580        2.62203141871928        1.40695351940033
H            0.67201671582941       -0.80766656715542        2.55454385471531
H            1.50528144011049        0.69120559189094        3.01349752954106
H           -0.26677555849964        0.65351694682425        2.91166094413060
H            1.65147262501919       -0.53255775768327       -0.43638694428431
H            7.85067546883070       -0.45790890776228       -1.22138671195550
H            7.51919029898039       -2.01088350769631       -2.02523413950354
H            7.72159908287322       -1.93204140820050       -0.26149060636730
H           -5.19216642523521       -0.17290957730223       -0.57412997254399
H           -5.04744051797631       -2.15283779821117       -2.77568447586500
H           -3.55531126470170       -2.98554993875117       -2.25730247877924
H           -3.46802232056338       -1.63980044000278       -3.43304943580186

          :  Hamiltonian                  GFN1-xTB          :
         :: total energy             -82.973529398366 Eh    ::
         :: gradient norm              0.000512718698 Eh/a0 ::
         :: HOMO-LUMO gap              1.525302769535 eV    ::
         :: SCC energy               -83.741246226219 Eh    ::
         :: -> Gsolv                  -0.061680349601 Eh    ::
         :: repulsion energy           0.792555417244 Eh    ::

    * Orbital Energies and Occupations

         #    Occupation            Energy/Eh            Energy/eV
      -------------------------------------------------------------
         1        2.0000           -0.8855734             -24.0977
       ...           ...                  ...                  ...
        55        2.0000           -0.4998779             -13.6024
        56        2.0000           -0.4913319             -13.3698
        57        2.0000           -0.4907176             -13.3531
        58        2.0000           -0.4776099             -12.9964
        59        2.0000           -0.4660331             -12.6814
        60        2.0000           -0.4601522             -12.5214
        61        2.0000           -0.4574913             -12.4490
        62        2.0000           -0.4537758             -12.3479
        63        2.0000           -0.4459433             -12.1347
        64        2.0000           -0.4363639             -11.8741
        65        2.0000           -0.4322520             -11.7622
        66        2.0000           -0.4059446             -11.0463
        67        2.0000           -0.4050574             -11.0222 (HOMO)
        68                         -0.3490036              -9.4969 (LUMO)
        69                         -0.3026275              -8.2349
        70                         -0.2613139              -7.1107
        71                         -0.2531528              -6.8886
        72                         -0.2390415              -6.5046
        73                         -0.1908657              -5.1937
        74                         -0.1554160              -4.2291
        75                         -0.1469577              -3.9989
        76                         -0.1413086              -3.8452
        77                         -0.1304686              -3.5502
        78                         -0.1164510              -3.1688
       ...                                ...                  ...
       134                          0.7250493              19.7296
      -------------------------------------------------------------
                  HL-Gap            0.0560538 Eh            1.5253 eV

Wiberg/Mayer (AO) data.
largest (>0.10) Wiberg bond orders for each atom

     #   Z sym  total        # sym  WBO       # sym  WBO       # sym  WBO
 ---------------------------------------------------------------------------
     1   6 C    3.841 --    28 H    0.983    27 H    0.975    26 H    0.975
                             2 O    0.869
     2   8 O    2.292 --     3 C    1.241     1 C    0.869
     3   6 C    3.806 --     2 O    1.241     4 O    1.220     5 C    1.166
     4   8 O    2.170 --     3 C    1.220    39 H    0.749
     5   6 C    3.957 --    23 C    1.362     6 N    1.194     3 C    1.166
     6   7 N    2.990 --     7 C    1.448     5 C    1.194
     7   6 C    3.951 --     6 N    1.448    20 N    1.374     8 C    0.977
     8   6 C    3.935 --     9 C    0.981    10 C    0.981     7 C    0.977
                            11 N    0.929
     9   6 C    3.992 --    29 H    0.986    30 H    0.985    31 H    0.982
                             8 C    0.981
    10   6 C    3.992 --    32 H    0.986    34 H    0.985    33 H    0.982
                             8 C    0.981
    11   7 N    3.374 --    12 C    1.286     8 C    0.929    35 H    0.874
                            13 O    0.185
    12   6 C    3.922 --    13 O    1.571    11 N    1.286    14 C    0.983
    13   8 O    1.891 --    12 C    1.571    11 N    0.185
    14   6 C    3.872 --    15 N    1.616    19 O    1.062    12 C    0.983
    15   7 N    3.011 --    14 C    1.616    16 N    1.195
    16   7 N    2.980 --    17 C    1.611    15 N    1.195
    17   6 C    3.873 --    16 N    1.611    19 O    1.081    18 C    1.030
    18   6 C    3.987 --    17 C    1.030    37 H    0.983    36 H    0.966
                            38 H    0.962
    19   8 O    2.326 --    17 C    1.081    14 C    1.062
    20   7 N    3.026 --     7 C    1.374    21 C    1.233    22 O    0.131
    21   6 C    3.930 --    22 O    1.516    20 N    1.233    23 C    1.050
    22   8 O    1.852 --    21 C    1.516    20 N    0.131
    23   6 C    3.884 --     5 C    1.362    24 O    1.087    21 C    1.050
    24   8 O    2.222 --    23 C    1.087    25 C    0.874
    25   6 C    3.853 --    40 H    0.985    41 H    0.977    42 H    0.977
                            24 O    0.874
    26   1 H    1.000 --     1 C    0.975
    27   1 H    1.000 --     1 C    0.975
    28   1 H    1.005 --     1 C    0.983
    29   1 H    1.004 --     9 C    0.986
    30   1 H    1.012 --     9 C    0.985
    31   1 H    1.010 --     9 C    0.982
    32   1 H    1.004 --    10 C    0.986
    33   1 H    1.010 --    10 C    0.982
    34   1 H    1.011 --    10 C    0.985
    35   1 H    0.975 --    11 N    0.874
    36   1 H    0.997 --    18 C    0.966
    37   1 H    0.999 --    18 C    0.983
    38   1 H    0.997 --    18 C    0.962
    39   1 H    0.821 --     4 O    0.749
    40   1 H    1.010 --    25 C    0.985
    41   1 H    1.017 --    25 C    0.977
    42   1 H    1.017 --    25 C    0.977
 ---------------------------------------------------------------------------

           -------------------------------------------------
          | TOTAL ENERGY              -82.973529398366 Eh   |
          | GRADIENT NORM               0.000512718698 Eh/α |
          | HOMO-LUMO GAP               1.525302769535 eV   |
           -------------------------------------------------

 * finished run on 2023/06/20 at 18:10:37.150
