   * xtb version 6.5.1 (579679a) compiled by 'ehlert@majestix' on 2022-07-11
          program call               : /lustre/hpc/kemi/ree/PhD/git/ReactivityQM/dep/xtb-6.5.1/bin/xtb --gfn 1 /lustre/hpc/kemi/ree/PhD/git/ReactivityQM/calculations/RaltegravirCLI/reac02prodE10/conf14/RaltegravirCLI_reac02prodE10_conf14_gfn1.xyz --opt --vfukui --chrg -1 --uhf 0 --alpb DMSO

   ID    Z sym.   atoms
    1    6 C      1, 3, 5, 6, 8, 9, 12-16, 18, 19, 21-24
    2    7 N      2, 11, 20, 25
    3    8 O      4, 7, 10
    4    9 F      17
    5    1 H      26-47

      * Solvation model:               ALPB
        Solvent                        DMSO
        Solvent mass                       7.8130E+01 g/mol
          :  Hamiltonian                  GFN1-xTB          :
 * total energy  :   -80.1991472 Eh     change       -0.1797673E-10 Eh
 * total energy  :   -80.2096929 Eh     change       -0.1054572E-01 Eh
 * total energy  :   -80.2128705 Eh     change       -0.3177520E-02 Eh
 * total energy  :   -80.2135196 Eh     change       -0.6491693E-03 Eh
 * total energy  :   -80.2140285 Eh     change       -0.5088527E-03 Eh
 * total energy  :   -80.2142162 Eh     change       -0.1877445E-03 Eh
 * total energy  :   -80.2143396 Eh     change       -0.1233810E-03 Eh
 * total energy  :   -80.2143816 Eh     change       -0.4201118E-04 Eh
 * total energy  :   -80.2144104 Eh     change       -0.2876520E-04 Eh
 * total energy  :   -80.2144342 Eh     change       -0.2386602E-04 Eh
 * total energy  :   -80.2166008 Eh     change        0.1319512E-06 Eh
 * total energy  :   -80.2166340 Eh     change       -0.3328370E-04 Eh
 * total energy  :   -80.2166446 Eh     change       -0.1058204E-04 Eh
 * total energy  :   -80.2166541 Eh     change       -0.9497862E-05 Eh
 * total energy  :   -80.2166764 Eh     change       -0.2231489E-04 Eh
 * total energy  :   -80.2166869 Eh     change       -0.1049514E-04 Eh
 * total energy  :   -80.2166985 Eh     change       -0.1156864E-04 Eh
 * total energy  :   -80.2167052 Eh     change       -0.6718985E-05 Eh
 * total energy  :   -80.2167080 Eh     change       -0.2774519E-05 Eh
   *** GEOMETRY OPTIMIZATION CONVERGED AFTER 75 ITERATIONS ***

 final structure:
================
47
 xtb: 6.5.1 (579679a)
C           -4.06309803567260       -1.82148791245588        0.92428412719936
N           -2.78417562120160       -1.14044471023332        0.73390543034170
C           -1.67854747513059       -1.84516797540426        1.05358469337879
O           -1.72264988885154       -3.00453011718192        1.49005407693986
C           -0.31565552180093       -1.16499783053610        0.87410749864319
C           -0.01108321944955       -0.33649681094011        2.14827228670975
O            0.63903661853452       -2.21464006033341        0.77656382329122
C           -0.36540369851327       -0.27671749058742       -0.35357495216246
C            0.75363702366039        0.17396228535586       -1.10103069502845
O            0.68623244969007        0.99418312957944       -2.04280508957579
N            2.02388563888238       -0.30710199300456       -0.70934546334852
C            3.11738304555482       -0.17886883830987       -1.65655851716937
C            4.41086895841643        0.20705789724904       -0.97487798896729
C            4.41347644017197        0.77128194517769        0.29871170324543
C            5.60248542849074        1.13847569102221        0.91294473627488
C            6.78471933875403        0.93128505859780        0.22688755848075
F            7.94578084767599        1.28449505153145        0.81426110087218
C            6.82389172644316        0.37548473344933       -1.03870509268428
C            5.62363105835761        0.01429393647481       -1.63526768274545
N           -1.54684085193454        0.34949866241918       -0.61078869468792
C           -2.67150933546332        0.04637602499548       -0.06243135286261
C           -3.84852620811258        0.97978847491486       -0.34582183439097
C           -4.60652787645767        0.55081567124490       -1.61650561145985
C           -4.81749919692147        1.14916557190077        0.83166492788258
N           -3.29763237501572        2.31374573068748       -0.62203777568548
H           -3.87943128614557       -2.89382208797192        1.01187481365461
H           -4.72046392534312       -1.64897514196487        0.07557894655141
H           -4.54622413009972       -1.47608887000510        1.83924941487411
H           -0.02061173076712       -0.98301882767949        3.02493885295236
H            0.97351399396657        0.11920532056083        2.05172722382125
H           -0.75930853201426        0.44523491465780        2.26819416408387
H            0.21252377587856       -3.01775902357336        1.12903473449826
H            2.02186668329432       -1.19900438264038       -0.23305900883671
H            2.85698119177992        0.60236897316981       -2.38504991884585
H            3.26550920259533       -1.11451747098602       -2.21469059776482
H            3.47153426756027        0.91731479452340        0.81830120122135
H            5.61567054448893        1.57457662971956        1.90342325166489
H            7.77042924511466        0.22822022847349       -1.54173083325212
H            5.63566336214576       -0.42423278541401       -2.62691400140977
H           -5.13433312664142       -0.38907961485140       -1.46662765648758
H           -5.33225053878680        1.31949264770360       -1.88357395507375
H           -3.90395576053273        0.42832999769774       -2.44128238173527
H           -4.27188921130908        1.19250308297507        1.77403805343552
H           -5.54588594351200        0.34306386051396        0.88055742980780
H           -5.36523828432099        2.08387406704092        0.70611195092513
H           -2.94004755749101        2.70009942501739        0.24379890005120
H           -2.49993450994745        2.20275513741975       -1.24939479662549

          :  Hamiltonian                  GFN1-xTB          :
         :: total energy             -80.216707996223 Eh    ::
         :: gradient norm              0.000414730013 Eh/a0 ::
         :: HOMO-LUMO gap              1.435615078014 eV    ::
         :: SCC energy               -81.070320730243 Eh    ::
         :: -> Gsolv                  -0.098511210206 Eh    ::
         :: repulsion energy           0.884219585622 Eh    ::

    * Orbital Energies and Occupations

         #    Occupation            Energy/Eh            Energy/eV
      -------------------------------------------------------------
         1        2.0000           -0.8535811             -23.2271
       ...           ...                  ...                  ...
        56        2.0000           -0.4612752             -12.5519
        57        2.0000           -0.4568340             -12.4311
        58        2.0000           -0.4478559             -12.1868
        59        2.0000           -0.4395734             -11.9614
        60        2.0000           -0.4391820             -11.9508
        61        2.0000           -0.4201673             -11.4333
        62        2.0000           -0.4146149             -11.2822
        63        2.0000           -0.4062595             -11.0549
        64        2.0000           -0.3918893             -10.6639
        65        2.0000           -0.3877726             -10.5518
        66        2.0000           -0.3806510             -10.3580
        67        2.0000           -0.3727904             -10.1441
        68        2.0000           -0.3140510              -8.5458 (HOMO)
        69                         -0.2612931              -7.1101 (LUMO)
        70                         -0.2507669              -6.8237
        71                         -0.2329498              -6.3389
        72                         -0.1935229              -5.2660
        73                         -0.1357809              -3.6948
        74                         -0.1311523              -3.5688
        75                         -0.1250256              -3.4021
        76                         -0.1109684              -3.0196
        77                         -0.1057529              -2.8777
        78                         -0.1009816              -2.7479
        79                         -0.0976830              -2.6581
       ...                                ...                  ...
       144                          0.6784792              18.4624
      -------------------------------------------------------------
                  HL-Gap            0.0527579 Eh            1.4356 eV

Wiberg/Mayer (AO) data.
largest (>0.10) Wiberg bond orders for each atom

     #   Z sym  total        # sym  WBO       # sym  WBO       # sym  WBO
 ---------------------------------------------------------------------------
     1   6 C    3.952 --    28 H    0.982    27 H    0.981    26 H    0.975
                             2 N    0.946
     2   7 N    3.423 --     3 C    1.261    21 C    0.962     1 C    0.946
                             4 O    0.143
     3   6 C    3.897 --     4 O    1.518     2 N    1.261     5 C    0.939
     4   8 O    1.863 --     3 C    1.518     2 N    0.143
     5   6 C    3.907 --     8 C    0.966     6 C    0.959     7 O    0.943
                             3 C    0.939
     6   6 C    3.996 --    31 H    0.988    29 H    0.986    30 H    0.985
                             5 C    0.959
     7   8 O    1.903 --     5 C    0.943    32 H    0.831
     8   6 C    3.854 --     9 C    1.267    20 N    1.227     5 C    0.966
                            21 C    0.121
     9   6 C    3.911 --    10 O    1.455     8 C    1.267    11 N    1.054
    10   8 O    1.769 --     9 C    1.455
    11   7 N    3.168 --     9 C    1.054    12 C    0.980    33 H    0.910
    12   6 C    3.974 --    13 C    1.004    11 N    0.980    35 H    0.968
                            34 H    0.952
    13   6 C    3.986 --    14 C    1.414    19 C    1.411    12 C    1.004
    14   6 C    3.994 --    15 C    1.442    13 C    1.414    36 H    0.968
                            18 C    0.110
    15   6 C    3.992 --    14 C    1.442    16 C    1.404    37 H    0.971
                            19 C    0.110
    16   6 C    3.857 --    15 C    1.404    18 C    1.401    17 F    0.914
    17   9 F    1.038 --    16 C    0.914
    18   6 C    3.992 --    19 C    1.445    16 C    1.401    38 H    0.970
                            14 C    0.110
    19   6 C    3.994 --    18 C    1.445    13 C    1.411    39 H    0.973
                            15 C    0.110
    20   7 N    3.083 --    21 C    1.603     8 C    1.227
    21   6 C    3.889 --    20 N    1.603    22 C    0.973     2 N    0.962
                             8 C    0.121
    22   6 C    3.967 --    24 C    0.997    23 C    0.985    25 N    0.982
                            21 C    0.973
    23   6 C    3.992 --    41 H    0.986    42 H    0.985    22 C    0.985
                            40 H    0.980
    24   6 C    3.995 --    22 C    0.997    43 H    0.986    45 H    0.985
                            44 H    0.983
    25   7 N    2.954 --    22 C    0.982    46 H    0.954    47 H    0.938
    26   1 H    1.015 --     1 C    0.975
    27   1 H    1.011 --     1 C    0.981
    28   1 H    1.011 --     1 C    0.982
    29   1 H    1.008 --     6 C    0.986
    30   1 H    1.014 --     6 C    0.985
    31   1 H    1.009 --     6 C    0.988
    32   1 H    0.888 --     7 O    0.831
    33   1 H    0.972 --    11 N    0.910
    34   1 H    1.027 --    12 C    0.952
    35   1 H    1.005 --    12 C    0.968
    36   1 H    1.017 --    14 C    0.968
    37   1 H    1.000 --    15 C    0.971
    38   1 H    0.999 --    18 C    0.970
    39   1 H    1.001 --    19 C    0.973
    40   1 H    1.011 --    23 C    0.980
    41   1 H    1.010 --    23 C    0.986
    42   1 H    1.010 --    23 C    0.985
    43   1 H    1.005 --    24 C    0.986
    44   1 H    1.007 --    24 C    0.983
    45   1 H    1.009 --    24 C    0.985
    46   1 H    0.974 --    25 N    0.954
    47   1 H    0.992 --    25 N    0.938
 ---------------------------------------------------------------------------

           -------------------------------------------------
          | TOTAL ENERGY              -80.216707996223 Eh   |
          | GRADIENT NORM               0.000414730013 Eh/α |
          | HOMO-LUMO GAP               1.435615078014 eV   |
           -------------------------------------------------

 * finished run on 2023/06/20 at 15:10:30.869
