   * xtb version 6.5.1 (579679a) compiled by 'ehlert@majestix' on 2022-07-11
          program call               : /lustre/hpc/kemi/ree/PhD/git/ReactivityQM/dep/xtb-6.5.1/bin/xtb --gfn 1 /lustre/hpc/kemi/ree/PhD/git/ReactivityQM/calculations/R02deprot/reac01prodN13/conf13/R02deprot_reac01prodN13_conf13_gfn1.xyz --opt --vfukui --chrg 0 --uhf 0 --alpb DMSO

   ID    Z sym.   atoms
    1    6 C      1, 3, 5, 7-10, 12, 14, 15, 18, 19, 22, 24
    2    8 O      2, 4, 13, 20, 23, 25
    3    7 N      6, 11, 16, 17, 21
    4    1 H      26-42

      * Solvation model:               ALPB
        Solvent                        DMSO
        Solvent mass                       7.8130E+01 g/mol
          :  Hamiltonian                  GFN1-xTB          :
 * total energy  :   -82.9204372 Eh     change       -0.6380674E-11 Eh
 * total energy  :   -82.9328368 Eh     change       -0.1239965E-01 Eh
 * total energy  :   -82.9372257 Eh     change       -0.4388895E-02 Eh
 * total energy  :   -82.9379847 Eh     change       -0.7589437E-03 Eh
 * total energy  :   -82.9384435 Eh     change       -0.4588798E-03 Eh
 * total energy  :   -82.9386461 Eh     change       -0.2025494E-03 Eh
 * total energy  :   -82.9388573 Eh     change       -0.2112059E-03 Eh
 * total energy  :   -82.9390490 Eh     change       -0.1917534E-03 Eh
 * total energy  :   -82.9392097 Eh     change       -0.1606290E-03 Eh
 * total energy  :   -82.9393467 Eh     change       -0.1370540E-03 Eh
 * total energy  :   -82.9869229 Eh     change       -0.2777293E-04 Eh
 * total energy  :   -82.9869483 Eh     change       -0.2533460E-04 Eh
 * total energy  :   -82.9869645 Eh     change       -0.1627349E-04 Eh
 * total energy  :   -82.9869852 Eh     change       -0.2062364E-04 Eh
 * total energy  :   -82.9869937 Eh     change       -0.8555459E-05 Eh
 * total energy  :   -82.9870147 Eh     change       -0.2101565E-04 Eh
 * total energy  :   -82.9870196 Eh     change       -0.4918491E-05 Eh
 * total energy  :   -82.9870293 Eh     change       -0.9700274E-05 Eh
 * total energy  :   -82.9870334 Eh     change       -0.4100399E-05 Eh
   *** GEOMETRY OPTIMIZATION CONVERGED AFTER 128 ITERATIONS ***

 final structure:
================
42
 xtb: 6.5.1 (579679a)
C            6.54430016686119        1.71798534164517       -0.65033815444061
O            5.18404998920404        1.83715179027823       -0.22337123307900
C            4.39841537052032        0.78637298811077       -0.43997155316964
O            4.78194804295419       -0.23075489237587       -0.97062020900778
C            2.99135664749700        0.98588260033288        0.02977409034445
N            2.16905752894405       -0.05025648646341       -0.23027967645701
C            0.90738144308248        0.01806514570806        0.12612299376541
C            0.04337414364043       -1.19372450618908       -0.15797255707414
C            0.33578706098309       -1.72284227471932       -1.56710297452522
C            0.35433932243844       -2.25695167760754        0.90886691784653
N           -1.35627068437311       -0.77978316692776       -0.05172860436106
C           -2.38496200273410       -1.61083572390069       -0.22465845330095
O           -2.31148580140796       -2.78669235207263       -0.54239114637768
C           -3.77641294455262       -0.96607276979985        0.00342657972418
C           -4.55024426614142       -1.76132725085936        1.05392010578129
N           -4.49983551061452       -0.99320688798743       -1.26834516761306
N           -4.80697021283858        0.15973956915790       -1.60483842025687
C           -4.34961242541646        1.07866613204107       -0.64633960878040
C           -4.53942489832988        2.39441962662274       -0.69827680746572
O           -3.69354200043903        0.40168673785058        0.33495587325239
N            0.35000456079546        1.06212040038719        0.76474475083727
C            1.13047902947673        2.08104320977421        1.04452065785867
O            0.65386523487978        3.14902823865828        1.68934496029040
C            2.50242927681182        2.10490615806402        0.68613604299719
O            3.25352181764647        3.17491631136384        0.98989579472920
H            7.02317060584313        2.67002549050888       -0.43162678910170
H            6.58501950804284        1.50901302055575       -1.72197274459674
H            7.03853141580272        0.91034034769531       -0.10544399000758
H            1.40253964523578       -1.92351951608063       -1.65697725737285
H            0.05212368638178       -0.97823363185628       -2.30947163716958
H           -0.21757761149485       -2.64158268767653       -1.75114568265817
H            1.41584757206480       -2.49811740614874        0.87810548160948
H            0.10536583365071       -1.87040932100934        1.89574296774632
H           -0.22450256501655       -3.15969965902783        0.72158815104807
H           -1.52211209542154        0.15475731668169        0.29841220911147
H           -4.06195514209781       -1.65108571874079        2.01905002957658
H           -4.56350684759119       -2.81085911148396        0.76602676429851
H           -5.56776034969538       -1.38288158736890        1.11985385951419
H           -4.17216994233253        3.04656085560602        0.07618257760342
H           -0.27881245834375        3.04670107261482        1.91858768242800
H           -5.07033744118198        2.83463798232969       -1.52576136064205
H            2.72458529726847        3.84054929233562        1.45337353708911

          :  Hamiltonian                  GFN1-xTB          :
         :: total energy             -82.987033441513 Eh    ::
         :: gradient norm              0.000814052830 Eh/a0 ::
         :: HOMO-LUMO gap              2.474647628625 eV    ::
         :: SCC energy               -83.769456128752 Eh    ::
         :: -> Gsolv                  -0.058174991329 Eh    ::
         :: repulsion energy           0.808594242293 Eh    ::

    * Orbital Energies and Occupations

         #    Occupation            Energy/Eh            Energy/eV
      -------------------------------------------------------------
         1        2.0000           -0.8407126             -22.8770
       ...           ...                  ...                  ...
        55        2.0000           -0.4995677             -13.5939
        56        2.0000           -0.4979458             -13.5498
        57        2.0000           -0.4973835             -13.5345
        58        2.0000           -0.4965994             -13.5132
        59        2.0000           -0.4808906             -13.0857
        60        2.0000           -0.4794972             -13.0478
        61        2.0000           -0.4710155             -12.8170
        62        2.0000           -0.4608619             -12.5407
        63        2.0000           -0.4500854             -12.2474
        64        2.0000           -0.4402892             -11.9809
        65        2.0000           -0.4359457             -11.8627
        66        2.0000           -0.4322668             -11.7626
        67        2.0000           -0.4218904             -11.4802 (HOMO)
        68                         -0.3309487              -9.0056 (LUMO)
        69                         -0.3233583              -8.7990
        70                         -0.2832758              -7.7083
        71                         -0.2530684              -6.8863
        72                         -0.2387212              -6.4959
        73                         -0.2105754              -5.7300
        74                         -0.1552846              -4.2255
        75                         -0.1384337              -3.7670
        76                         -0.1252717              -3.4088
        77                         -0.1196598              -3.2561
        78                         -0.1172685              -3.1910
       ...                                ...                  ...
       134                          0.7221042              19.6495
      -------------------------------------------------------------
                  HL-Gap            0.0909416 Eh            2.4746 eV

Wiberg/Mayer (AO) data.
largest (>0.10) Wiberg bond orders for each atom

     #   Z sym  total        # sym  WBO       # sym  WBO       # sym  WBO
 ---------------------------------------------------------------------------
     1   6 C    3.871 --    26 H    0.986    27 H    0.979    28 H    0.979
                             2 O    0.896
     2   8 O    2.208 --     3 C    1.120     1 C    0.896     4 O    0.136
     3   6 C    3.849 --     4 O    1.662     2 O    1.120     5 C    0.990
     4   8 O    1.924 --     3 C    1.662     2 O    0.136
     5   6 C    3.968 --    24 C    1.400     6 N    1.296     3 C    0.990
     6   7 N    3.031 --     7 C    1.468     5 C    1.296
     7   6 C    3.943 --     6 N    1.468    21 N    1.305     8 C    0.984
     8   6 C    3.936 --     9 C    0.988     7 C    0.984    10 C    0.973
                            11 N    0.925
     9   6 C    3.991 --     8 C    0.988    30 H    0.986    29 H    0.983
                            31 H    0.982
    10   6 C    3.990 --    33 H    0.986    32 H    0.985    34 H    0.981
                             8 C    0.973
    11   7 N    3.367 --    12 C    1.313     8 C    0.925    35 H    0.877
                            13 O    0.175
    12   6 C    3.907 --    13 O    1.591    11 N    1.313    14 C    0.893
    13   8 O    1.907 --    12 C    1.591    11 N    0.175
    14   6 C    3.882 --    16 N    0.973    15 C    0.961    20 O    0.925
                            12 C    0.893
    15   6 C    3.986 --    38 H    0.984    36 H    0.983    37 H    0.982
                            14 C    0.961
    16   7 N    3.011 --    17 N    1.820    14 C    0.973    19 C    0.119
    17   7 N    3.023 --    16 N    1.820    18 C    1.068
    18   6 C    3.884 --    19 C    1.756    17 N    1.068    20 O    1.006
    19   6 C    3.976 --    18 C    1.756    41 H    0.978    39 H    0.976
                            16 N    0.119
    20   8 O    2.145 --    18 C    1.006    14 C    0.925
    21   7 N    3.042 --    22 C    1.419     7 C    1.305
    22   6 C    3.906 --    21 N    1.419    24 C    1.214    23 O    1.090
    23   8 O    2.076 --    22 C    1.090    40 H    0.806
    24   6 C    3.924 --     5 C    1.400    22 C    1.214    25 O    1.089
    25   8 O    2.065 --    24 C    1.089    42 H    0.814
    26   1 H    1.011 --     1 C    0.986
    27   1 H    1.007 --     1 C    0.979
    28   1 H    1.007 --     1 C    0.979
    29   1 H    1.013 --     9 C    0.983
    30   1 H    1.004 --     9 C    0.986
    31   1 H    1.011 --     9 C    0.982
    32   1 H    1.005 --    10 C    0.985
    33   1 H    1.003 --    10 C    0.986
    34   1 H    1.008 --    10 C    0.981
    35   1 H    0.960 --    11 N    0.877
    36   1 H    1.000 --    15 C    0.983
    37   1 H    1.006 --    15 C    0.982
    38   1 H    1.001 --    15 C    0.984
    39   1 H    0.997 --    19 C    0.976
    40   1 H    0.833 --    23 O    0.806
    41   1 H    1.000 --    19 C    0.978
    42   1 H    0.842 --    25 O    0.814
 ---------------------------------------------------------------------------

           -------------------------------------------------
          | TOTAL ENERGY              -82.987033441513 Eh   |
          | GRADIENT NORM               0.000814052830 Eh/α |
          | HOMO-LUMO GAP               2.474647628625 eV   |
           -------------------------------------------------

 * finished run on 2023/06/20 at 18:21:39.851
