                         Program Version 5.0.1 -  RELEASE  -
|  1> # ORCA input file
|  2> ! SP r2SCAN-3c CPCM
|  3>
|  4> %maxcore 1875.0
|  5> %pal nprocs 4 end
|  6> %cpcm smd true SMDsolvent "DMSO" end
|  7>
|  8> *xyz -2 1
|  9> C      -6.349659    1.233509    0.169761
| 10> O      -5.013394    0.764343    0.114058
| 11> C      -4.822336   -0.396366   -0.598262
| 12> O      -5.781311   -0.956298   -1.114238
| 13> C      -3.432617   -0.801457   -0.641942
| 14> N      -2.553085    0.022566    0.045917
| 15> C      -1.294379   -0.227549    0.034959
| 16> C      -0.297872    0.620927    0.812034
| 17> C      -0.271505    0.075193    2.256243
| 18> C      -0.786890    2.079490    0.808596
| 19> N       0.997310    0.470791    0.153176
| 20> C       2.017788    1.112135    0.653082
| 21> O       2.103023    1.856502    1.658694
| 22> C       3.323097    0.919841   -0.204419
| 23> C       4.095570    2.236753   -0.298011
| 24> N       3.025997    0.404780   -1.552814
| 25> N       3.692490   -0.853148   -1.660179
| 26> C       4.318113   -1.037317   -0.569668
| 27> C       5.188393   -2.204264   -0.261573
| 28> O       4.180673   -0.082654    0.375470
| 29> N      -0.778718   -1.311254   -0.637031
| 30> C      -1.520048   -2.208798   -1.343868
| 31> O      -0.971405   -3.149480   -1.925477
| 32> C      -3.010349   -1.953207   -1.357204
| 33> O      -3.749326   -2.739799   -1.985856
| 34> H      -7.012398    0.480719    0.609574
| 35> H      -6.718540    1.482458   -0.831188
| 36> H      -6.351186    2.128334    0.791161
| 37> H      -1.277034    0.097832    2.677985
| 38> H       0.385271    0.681113    2.878876
| 39> H       0.087966   -0.954102    2.259370
| 40> H      -0.163487    2.694276    1.455966
| 41> H      -1.816919    2.121318    1.165471
| 42> H      -0.751219    2.482057   -0.204317
| 43> H       2.016896    0.190185   -1.602134
| 44> H       5.042608    2.081071   -0.811515
| 45> H       4.284299    2.619677    0.703982
| 46> H       3.502843    2.961945   -0.852677
| 47> H       6.218137   -1.874008   -0.128010
| 48> H       5.145524   -2.922687   -1.076484
| 49> H       4.865674   -2.679846    0.663928
| 50> H       0.232006   -1.407697   -0.631440
| 51> **                         ****END OF INPUT****

CARTESIAN COORDINATES (ANGSTROEM)
---------------------------------
  C     -6.349659    1.233509    0.169761
  O     -5.013394    0.764343    0.114058
  C     -4.822336   -0.396366   -0.598262
  O     -5.781311   -0.956298   -1.114238
  C     -3.432617   -0.801457   -0.641942
  N     -2.553085    0.022566    0.045917
  C     -1.294379   -0.227549    0.034959
  C     -0.297872    0.620927    0.812034
  C     -0.271505    0.075193    2.256243
  C     -0.786890    2.079490    0.808596
  N      0.997310    0.470791    0.153176
  C      2.017788    1.112135    0.653082
  O      2.103023    1.856502    1.658694
  C      3.323097    0.919841   -0.204419
  C      4.095570    2.236753   -0.298011
  N      3.025997    0.404780   -1.552814
  N      3.692490   -0.853148   -1.660179
  C      4.318113   -1.037317   -0.569668
  C      5.188393   -2.204264   -0.261573
  O      4.180673   -0.082654    0.375470
  N     -0.778718   -1.311254   -0.637031
  C     -1.520048   -2.208798   -1.343868
  O     -0.971405   -3.149480   -1.925477
  C     -3.010349   -1.953207   -1.357204
  O     -3.749326   -2.739799   -1.985856
  H     -7.012398    0.480719    0.609574
  H     -6.718540    1.482458   -0.831188
  H     -6.351186    2.128334    0.791161
  H     -1.277034    0.097832    2.677985
  H      0.385271    0.681113    2.878876
  H      0.087966   -0.954102    2.259370
  H     -0.163487    2.694276    1.455966
  H     -1.816919    2.121318    1.165471
  H     -0.751219    2.482057   -0.204317
  H      2.016896    0.190185   -1.602134
  H      5.042608    2.081071   -0.811515
  H      4.284299    2.619677    0.703982
  H      3.502843    2.961945   -0.852677
  H      6.218137   -1.874008   -0.128010
  H      5.145524   -2.922687   -1.076484
  H      4.865674   -2.679846    0.663928
  H      0.232006   -1.407697   -0.631440

 Total Charge           Charge          ....   -2
 Multiplicity           Mult            ....    1
 Number of Electrons    NEL             ....  186
 Basis Dimension        Dim             ....  615

ORBITAL ENERGIES
----------------

  NO   OCC          E(Eh)            E(eV)
   0   2.0000     -18.980599      -516.4884
   1   2.0000     -18.960248      -515.9346
   2   2.0000     -18.896157      -514.1906
   3   2.0000     -18.894840      -514.1547
   4   2.0000     -18.867988      -513.4240
   5   2.0000     -18.862348      -513.2706
   6   2.0000     -14.181469      -385.8974
   7   2.0000     -14.159105      -385.2888
   8   2.0000     -14.156209      -385.2100
   9   2.0000     -14.122559      -384.2944
  10   2.0000     -14.088315      -383.3625
  11   2.0000     -10.116735      -275.2904
  12   2.0000     -10.104946      -274.9696
  13   2.0000     -10.102259      -274.8965
  14   2.0000     -10.097450      -274.7656
  15   2.0000     -10.069575      -274.0071
  16   2.0000     -10.066063      -273.9115
  17   2.0000     -10.062243      -273.8076
  18   2.0000     -10.057349      -273.6744
  19   2.0000     -10.051201      -273.5071
  20   2.0000     -10.027178      -272.8534
  21   2.0000     -10.026074      -272.8234
  22   2.0000     -10.001907      -272.1657
  23   2.0000      -9.997753      -272.0527
  24   2.0000      -9.993906      -271.9480
  25   2.0000      -1.059881       -28.8408
  26   2.0000      -1.029404       -28.0115
  27   2.0000      -0.983783       -26.7701
  28   2.0000      -0.939405       -25.5625
  29   2.0000      -0.936184       -25.4749
  30   2.0000      -0.924173       -25.1480
  31   2.0000      -0.918111       -24.9831
  32   2.0000      -0.910349       -24.7719
  33   2.0000      -0.833602       -22.6835
  34   2.0000      -0.821067       -22.3424
  35   2.0000      -0.792643       -21.5689
  36   2.0000      -0.724495       -19.7145
  37   2.0000      -0.693797       -18.8792
  38   2.0000      -0.685792       -18.6613
  39   2.0000      -0.670027       -18.2324
  40   2.0000      -0.659181       -17.9372
  41   2.0000      -0.633453       -17.2371
  42   2.0000      -0.607179       -16.5222
  43   2.0000      -0.590478       -16.0677
  44   2.0000      -0.579073       -15.7574
  45   2.0000      -0.543435       -14.7876
  46   2.0000      -0.522238       -14.2108
  47   2.0000      -0.510574       -13.8934
  48   2.0000      -0.496816       -13.5191
  49   2.0000      -0.476757       -12.9732
  50   2.0000      -0.463724       -12.6186
  51   2.0000      -0.447780       -12.1847
  52   2.0000      -0.435968       -11.8633
  53   2.0000      -0.430795       -11.7225
  54   2.0000      -0.420805       -11.4507
  55   2.0000      -0.411321       -11.1926
  56   2.0000      -0.401324       -10.9206
  57   2.0000      -0.399341       -10.8666
  58   2.0000      -0.395116       -10.7516
  59   2.0000      -0.384367       -10.4592
  60   2.0000      -0.376762       -10.2522
  61   2.0000      -0.370982       -10.0949
  62   2.0000      -0.370086       -10.0706
  63   2.0000      -0.366254        -9.9663
  64   2.0000      -0.360364        -9.8060
  65   2.0000      -0.357622        -9.7314
  66   2.0000      -0.353550        -9.6206
  67   2.0000      -0.343425        -9.3451
  68   2.0000      -0.342616        -9.3231
  69   2.0000      -0.341140        -9.2829
  70   2.0000      -0.337108        -9.1732
  71   2.0000      -0.330741        -8.9999
  72   2.0000      -0.326634        -8.8882
  73   2.0000      -0.313648        -8.5348
  74   2.0000      -0.311204        -8.4683
  75   2.0000      -0.300433        -8.1752
  76   2.0000      -0.297280        -8.0894
  77   2.0000      -0.295042        -8.0285
  78   2.0000      -0.294083        -8.0024
  79   2.0000      -0.282611        -7.6902
  80   2.0000      -0.277236        -7.5440
  81   2.0000      -0.254056        -6.9132
  82   2.0000      -0.242234        -6.5915
  83   2.0000      -0.231571        -6.3014
  84   2.0000      -0.230392        -6.2693
  85   2.0000      -0.215492        -5.8638
  86   2.0000      -0.208054        -5.6614
  87   2.0000      -0.201868        -5.4931
  88   2.0000      -0.191592        -5.2135
  89   2.0000      -0.172243        -4.6870
  90   2.0000      -0.158186        -4.3045
  91   2.0000      -0.150516        -4.0957
  92   2.0000      -0.145481        -3.9587
  93   0.0000      -0.042840        -1.1657
  94   0.0000       0.006427         0.1749
  95   0.0000       0.012309         0.3350
  96   0.0000       0.034754         0.9457
  97   0.0000       0.053644         1.4597

MULLIKEN ATOMIC CHARGES
-----------------------
   0 C :   -0.326609
   1 O :   -0.196279
   2 C :    0.084900
   3 O :   -0.407448
   4 C :   -0.015965
   5 N :   -0.180638
   6 C :    0.330667
   7 C :   -0.016559
   8 C :   -0.684237
   9 C :   -0.668339
  10 N :   -0.282034
  11 C :    0.017814
  12 O :   -0.514908
  13 C :    0.334265
  14 C :   -0.624707
  15 N :   -0.360726
  16 N :   -0.284214
  17 C :    0.315604
  18 C :   -0.663478
  19 O :   -0.131744
  20 N :    0.009040
  21 C :   -0.008457
  22 O :   -0.404477
  23 C :   -0.132555
  24 O :   -0.372883
  25 H :    0.160998
  26 H :    0.159680
  27 H :    0.160232
  28 H :    0.172077
  29 H :    0.192315
  30 H :    0.174563
  31 H :    0.190809
  32 H :    0.168821
  33 H :    0.166957
  34 H :    0.277256
  35 H :    0.165794
  36 H :    0.179781
  37 H :    0.173636
  38 H :    0.185841
  39 H :    0.190639
  40 H :    0.184374
  41 H :    0.280192
Sum of atomic charges:   -2.0000000

LOEWDIN ATOMIC CHARGES
----------------------
   0 C :   -0.059208
   1 O :   -0.625580
   2 C :    0.383994
   3 O :   -0.478436
   4 C :    0.111189
   5 N :   -0.618944
   6 C :    0.316021
   7 C :    0.082656
   8 C :   -0.371707
   9 C :   -0.374140
  10 N :   -0.740830
  11 C :    0.296229
  12 O :   -0.609176
  13 C :    0.320171
  14 C :   -0.350771
  15 N :   -0.502104
  16 N :   -0.444605
  17 C :    0.332992
  18 C :   -0.330558
  19 O :   -0.497285
  20 N :   -0.498833
  21 C :    0.349948
  22 O :   -0.496680
  23 C :    0.222692
  24 O :   -0.585096
  25 H :    0.171513
  26 H :    0.170331
  27 H :    0.175443
  28 H :    0.158843
  29 H :    0.173467
  30 H :    0.161979
  31 H :    0.170587
  32 H :    0.165608
  33 H :    0.162370
  34 H :    0.305720
  35 H :    0.162968
  36 H :    0.173639
  37 H :    0.171035
  38 H :    0.179986
  39 H :    0.180933
  40 H :    0.180386
  41 H :    0.303248

  Mayer bond orders larger than 0.100000
B(  0-C ,  1-O ) :   0.8564 B(  0-C , 25-H ) :   0.9649 B(  0-C , 26-H ) :   0.9637
B(  0-C , 27-H ) :   0.9687 B(  1-O ,  2-C ) :   1.0475 B(  2-C ,  3-O ) :   1.9017
B(  2-C ,  4-C ) :   1.0880 B(  4-C ,  5-N ) :   0.9592 B(  4-C , 23-C ) :   1.0357
B(  4-C , 24-O ) :  -0.1420 B(  5-N ,  6-C ) :   1.7242 B(  6-C ,  7-C ) :   0.7915
B(  6-C , 10-N ) :  -0.2059 B(  6-C , 20-N ) :   1.0993 B(  7-C ,  8-C ) :   0.8558
B(  7-C ,  9-C ) :   0.8688 B(  7-C , 10-N ) :   1.0502 B(  8-C , 28-H ) :   0.9782
B(  8-C , 29-H ) :   0.9698 B(  8-C , 30-H ) :   0.9813 B(  9-C , 31-H ) :   0.9801
B(  9-C , 32-H ) :   0.9673 B(  9-C , 33-H ) :   0.9851 B( 10-N , 11-C ) :   1.5557
B( 11-C , 12-O ) :   1.7617 B( 11-C , 13-C ) :   0.9554 B( 13-C , 14-C ) :   0.9145
B( 13-C , 15-N ) :   0.8761 B( 13-C , 19-O ) :   0.7393 B( 14-C , 35-H ) :   0.9678
B( 14-C , 36-H ) :   0.9802 B( 14-C , 37-H ) :   0.9679 B( 15-N , 16-N ) :   1.1245
B( 15-N , 34-H ) :   0.8237 B( 16-N , 17-C ) :   1.8098 B( 17-C , 18-C ) :   0.8397
B( 17-C , 19-O ) :   1.0805 B( 18-C , 38-H ) :   0.9465 B( 18-C , 39-H ) :   0.9990
B( 18-C , 40-H ) :   0.9543 B( 20-N , 21-C ) :   1.0480 B( 20-N , 41-H ) :   0.8565
B( 21-C , 22-O ) :   2.0789 B( 21-C , 23-C ) :   0.8874 B( 23-C , 24-O ) :   1.9567

Dispersion correction           -0.019239532
FINAL SINGLE POINT ENERGY     -1268.896589108802

DIPOLE MOMENT
-------------
                                X             Y             Z
Electronic contribution:     -9.01155     -11.12239      -8.56116
Nuclear contribution   :     12.25545      13.27816      10.98339
                        -----------------------------------------
Total Dipole Moment    :      3.24390       2.15577       2.42223
                        -----------------------------------------
Magnitude (a.u.)       :      4.58666
Magnitude (Debye)      :     11.65836

Rotational constants in cm-1:     0.014336     0.003806     0.003215
Rotational constants in MHz :   429.772106   114.112713    96.379008

                             ****ORCA TERMINATED NORMALLY****
TOTAL RUN TIME: 0 days 0 hours 1 minutes 43 seconds 753 msec
