   * xtb version 6.5.1 (579679a) compiled by 'ehlert@majestix' on 2022-07-11
          program call               : /lustre/hpc/kemi/ree/PhD/git/ReactivityQM/dep/xtb-6.5.1/bin/xtb --gfn 1 /lustre/hpc/kemi/ree/PhD/git/ReactivityQM/calculations/R02oxygendeprot/reac01prodE08/conf07/R02oxygendeprot_reac01prodE08_conf07_gfn1.xyz --opt --vfukui --chrg -2 --uhf 0 --alpb DMSO

   ID    Z sym.   atoms
    1    6 C      1, 3, 5, 7-10, 12, 14, 15, 18, 19, 22, 24
    2    8 O      2, 4, 13, 20, 23, 25
    3    7 N      6, 11, 16, 17, 21
    4    1 H      26-42

      * Solvation model:               ALPB
        Solvent                        DMSO
        Solvent mass                       7.8130E+01 g/mol
          :  Hamiltonian                  GFN1-xTB          :
 * total energy  :   -83.6218759 Eh     change       -0.1052598E-09 Eh
 * total energy  :   -83.6355598 Eh     change       -0.1368395E-01 Eh
 * total energy  :   -83.6405400 Eh     change       -0.4980184E-02 Eh
 * total energy  :   -83.6416617 Eh     change       -0.1121655E-02 Eh
 * total energy  :   -83.6426639 Eh     change       -0.1002270E-02 Eh
 * total energy  :   -83.6432095 Eh     change       -0.5455912E-03 Eh
 * total energy  :   -83.6436836 Eh     change       -0.4740167E-03 Eh
 * total energy  :   -83.6440933 Eh     change       -0.4097041E-03 Eh
 * total energy  :   -83.6446199 Eh     change       -0.5266427E-03 Eh
 * total energy  :   -83.6457634 Eh     change       -0.1143520E-02 Eh
 * total energy  :   -83.6737129 Eh     change       -0.1165628E-04 Eh
 * total energy  :   -83.6737227 Eh     change       -0.9768618E-05 Eh
 * total energy  :   -83.6737301 Eh     change       -0.7434041E-05 Eh
 * total energy  :   -83.6737365 Eh     change       -0.6354488E-05 Eh
 * total energy  :   -83.6737430 Eh     change       -0.6512192E-05 Eh
 * total energy  :   -83.6737501 Eh     change       -0.7103857E-05 Eh
 * total energy  :   -83.6737570 Eh     change       -0.6958629E-05 Eh
 * total energy  :   -83.6737629 Eh     change       -0.5813641E-05 Eh
 * total energy  :   -83.6737674 Eh     change       -0.4583519E-05 Eh
   *** GEOMETRY OPTIMIZATION CONVERGED AFTER 64 ITERATIONS ***

 final structure:
================
42
 xtb: 6.5.1 (579679a)
C           -6.34965884185135        1.23350859755766        0.16976082444390
O           -5.01339380065426        0.76434286280430        0.11405806737294
C           -4.82233619064007       -0.39636644463533       -0.59826174093849
O           -5.78131063543196       -0.95629782882176       -1.11423765988278
C           -3.43261684453476       -0.80145699810754       -0.64194247727183
N           -2.55308474475617        0.02256612750351        0.04591740843542
C           -1.29437942481278       -0.22754856288444        0.03495905945672
C           -0.29787232042773        0.62092739318990        0.81203443181075
C           -0.27150508660147        0.07519265684043        2.25624271540669
C           -0.78688951330447        2.07948973840896        0.80859620811976
N            0.99731041324071        0.47079059994426        0.15317574298558
C            2.01778770453172        1.11213523947714        0.65308240285201
O            2.10302332253788        1.85650234505034        1.65869432158786
C            3.32309677910658        0.91984089336536       -0.20441872408555
C            4.09557038717316        2.23675325549049       -0.29801119475732
N            3.02599717904991        0.40477988971667       -1.55281409883525
N            3.69249049329439       -0.85314831742911       -1.66017931412080
C            4.31811309044651       -1.03731709134571       -0.56966828128618
C            5.18839270684642       -2.20426424129236       -0.26157275481658
O            4.18067305752020       -0.08265371425047        0.37546973533191
N           -0.77871816758483       -1.31125392878509       -0.63703149799025
C           -1.52004829806993       -2.20879826870980       -1.34386766734909
O           -0.97140497881170       -3.14948048463674       -1.92547749242138
C           -3.01034915332310       -1.95320700911980       -1.35720361659579
O           -3.74932605533281       -2.73979914107009       -1.98585602286299
H           -7.01239806216057        0.48071870308602        0.60957364353999
H           -6.71853986372214        1.48245832640312       -0.83118750523628
H           -6.35118649242060        2.12833381833947        0.79116120119045
H           -1.27703399655438        0.09783235507594        2.67798499500452
H            0.38527057492251        0.68111307248043        2.87887582399067
H            0.08796612687857       -0.95410249403695        2.25937001660949
H           -0.16348731204042        2.69427638262770        1.45596600359475
H           -1.81691890814110        2.12131834484034        1.16547084810787
H           -0.75121922252984        2.48205746077875       -0.20431735960370
H            2.01689618179775        0.19018454874670       -1.60213389329862
H            5.04260794229490        2.08107078135462       -0.81151468096650
H            4.28429942671567        2.61967660270966        0.70398200929138
H            3.50284290632045        2.96194549422268       -0.85267662504246
H            6.21813710257056       -1.87400759381134       -0.12801009821680
H            5.14552422702256       -2.92268744929134       -1.07648393717366
H            4.86567438920512       -2.67984568070006        0.66392825907776
H            0.23200590222620       -1.40769724107137       -0.63144007547083

          :  Hamiltonian                  GFN1-xTB          :
         :: total energy             -83.673767437455 Eh    ::
         :: gradient norm              0.000265216361 Eh/a0 ::
         :: HOMO-LUMO gap              2.446350226388 eV    ::
         :: SCC energy               -84.413433714212 Eh    ::
         :: -> Gsolv                  -0.261140891245 Eh    ::
         :: repulsion energy           0.765962217988 Eh    ::

    * Orbital Energies and Occupations

         #    Occupation            Energy/Eh            Energy/eV
      -------------------------------------------------------------
         1        2.0000           -0.7894090             -21.4809
       ...           ...                  ...                  ...
        56        2.0000           -0.4474413             -12.1755
        57        2.0000           -0.4403027             -11.9812
        58        2.0000           -0.4372394             -11.8979
        59        2.0000           -0.4251248             -11.5682
        60        2.0000           -0.4221057             -11.4861
        61        2.0000           -0.4187696             -11.3953
        62        2.0000           -0.3956768             -10.7669
        63        2.0000           -0.3911563             -10.6439
        64        2.0000           -0.3671658              -9.9911
        65        2.0000           -0.3596145              -9.7856
        66        2.0000           -0.3506727              -9.5423
        67        2.0000           -0.3480965              -9.4722
        68        2.0000           -0.3455207              -9.4021 (HOMO)
        69                         -0.2556190              -6.9557 (LUMO)
        70                         -0.2143422              -5.8325
        71                         -0.2133819              -5.8064
        72                         -0.1818985              -4.9497
        73                         -0.1673488              -4.5538
        74                         -0.1243917              -3.3849
        75                         -0.1175011              -3.1974
        76                         -0.0962445              -2.6189
        77                         -0.0929892              -2.5304
        78                         -0.0874163              -2.3787
        79                         -0.0838676              -2.2822
       ...                                ...                  ...
       134                          0.7707889              20.9742
      -------------------------------------------------------------
                  HL-Gap            0.0899017 Eh            2.4464 eV

Wiberg/Mayer (AO) data.
largest (>0.10) Wiberg bond orders for each atom

     #   Z sym  total        # sym  WBO       # sym  WBO       # sym  WBO
 ---------------------------------------------------------------------------
     1   6 C    3.905 --    28 H    0.987    27 H    0.981    26 H    0.980
                             2 O    0.933
     2   8 O    2.130 --     3 C    1.011     1 C    0.933     4 O    0.105
     3   6 C    3.848 --     4 O    1.577     5 C    1.137     2 O    1.011
     4   8 O    1.856 --     3 C    1.577     2 O    0.105
     5   6 C    3.920 --    24 C    1.275     6 N    1.143     3 C    1.137
                            25 O    0.129
     6   7 N    3.017 --     7 C    1.628     5 C    1.143
     7   6 C    3.922 --     6 N    1.628    21 N    1.105     8 C    0.973
     8   6 C    3.973 --    10 C    0.985    11 N    0.982     7 C    0.973
                             9 C    0.970
     9   6 C    3.994 --    29 H    0.988    31 H    0.987    30 H    0.981
                             8 C    0.970
    10   6 C    3.996 --    34 H    0.987    33 H    0.986     8 C    0.985
                            32 H    0.983
    11   7 N    2.939 --    12 C    1.528     8 C    0.982    13 O    0.212
    12   6 C    3.935 --    11 N    1.528    13 O    1.434    14 C    0.887
    13   8 O    1.795 --    12 C    1.434    11 N    0.212
    14   6 C    3.840 --    15 C    0.992    16 N    0.961    12 C    0.887
                            20 O    0.881
    15   6 C    3.996 --    14 C    0.992    36 H    0.987    38 H    0.986
                            37 H    0.983
    16   7 N    3.030 --    17 N    1.004    14 C    0.961    35 H    0.910
    17   7 N    2.969 --    18 C    1.750    16 N    1.004    20 O    0.124
    18   6 C    3.904 --    17 N    1.750    20 O    1.049    19 C    1.017
    19   6 C    3.994 --    18 C    1.017    40 H    0.986    41 H    0.973
                            39 H    0.970
    20   8 O    2.142 --    18 C    1.049    14 C    0.881    17 N    0.124
    21   7 N    3.450 --    22 C    1.188     7 C    1.105    42 H    0.885
                            23 O    0.136
    22   6 C    3.886 --    23 O    1.550    21 N    1.188    24 C    0.973
    23   8 O    1.829 --    22 C    1.550    21 N    0.136
    24   6 C    3.944 --    25 O    1.503     5 C    1.275    22 C    0.973
    25   8 O    1.807 --    24 C    1.503     5 C    0.129
    26   1 H    1.016 --     1 C    0.980
    27   1 H    1.015 --     1 C    0.981
    28   1 H    1.017 --     1 C    0.987
    29   1 H    1.010 --     9 C    0.988
    30   1 H    1.021 --     9 C    0.981
    31   1 H    1.010 --     9 C    0.987
    32   1 H    1.021 --    10 C    0.983
    33   1 H    1.021 --    10 C    0.986
    34   1 H    1.011 --    10 C    0.987
    35   1 H    1.012 --    16 N    0.910
    36   1 H    1.011 --    15 C    0.987
    37   1 H    1.020 --    15 C    0.983
    38   1 H    1.011 --    15 C    0.986
    39   1 H    1.003 --    19 C    0.970
    40   1 H    1.004 --    19 C    0.986
    41   1 H    1.002 --    19 C    0.973
    42   1 H    0.981 --    21 N    0.885
 ---------------------------------------------------------------------------

           -------------------------------------------------
          | TOTAL ENERGY              -83.673767437455 Eh   |
          | GRADIENT NORM               0.000265216361 Eh/α |
          | HOMO-LUMO GAP               2.446350226388 eV   |
           -------------------------------------------------

 * finished run on 2023/06/21 at 17:10:43.611
