   * xtb version 6.5.1 (579679a) compiled by 'ehlert@majestix' on 2022-07-11
          program call               : /lustre/hpc/kemi/ree/PhD/git/ReactivityQM/dep/xtb-6.5.1/bin/xtb --gfn 1 /lustre/hpc/kemi/ree/PhD/git/ReactivityQM/calculations/R02deprot/reac01prodN11/conf07/R02deprot_reac01prodN11_conf07_gfn1.xyz --opt --vfukui --chrg 0 --uhf 0 --alpb DMSO

   ID    Z sym.   atoms
    1    6 C      1, 3, 5, 6, 8, 11-15, 17, 19, 22, 23
    2    8 O      2, 4, 7, 9, 18, 24
    3    7 N      10, 16, 20, 21, 25
    4    1 H      26-42

      * Solvation model:               ALPB
        Solvent                        DMSO
        Solvent mass                       7.8130E+01 g/mol
          :  Hamiltonian                  GFN1-xTB          :
 * total energy  :   -82.9114840 Eh     change       -0.3382183E-11 Eh
 * total energy  :   -82.9263787 Eh     change       -0.1489472E-01 Eh
 * total energy  :   -82.9324725 Eh     change       -0.6093813E-02 Eh
 * total energy  :   -82.9339639 Eh     change       -0.1491411E-02 Eh
 * total energy  :   -82.9349364 Eh     change       -0.9724668E-03 Eh
 * total energy  :   -82.9353760 Eh     change       -0.4396369E-03 Eh
 * total energy  :   -82.9356376 Eh     change       -0.2616367E-03 Eh
 * total energy  :   -82.9358240 Eh     change       -0.1863889E-03 Eh
 * total energy  :   -82.9359906 Eh     change       -0.1665574E-03 Eh
 * total energy  :   -82.9361446 Eh     change       -0.1540412E-03 Eh
 * total energy  :   -82.9365383 Eh     change       -0.1413288E-04 Eh
 * total energy  :   -82.9365456 Eh     change       -0.7281816E-05 Eh
 * total energy  :   -82.9365563 Eh     change       -0.1071320E-04 Eh
 * total energy  :   -82.9365677 Eh     change       -0.1140932E-04 Eh
 * total energy  :   -82.9365671 Eh     change        0.5973455E-06 Eh
 * total energy  :   -82.9365873 Eh     change       -0.2018402E-04 Eh
 * total energy  :   -82.9365956 Eh     change       -0.8305765E-05 Eh
 * total energy  :   -82.9366081 Eh     change       -0.1249520E-04 Eh
 * total energy  :   -82.9366125 Eh     change       -0.4403307E-05 Eh
   *** GEOMETRY OPTIMIZATION CONVERGED AFTER 35 ITERATIONS ***

 final structure:
================
42
 xtb: 6.5.1 (579679a)
C           -4.40626183062009        3.31076118831989       -0.27176997575530
O           -4.07226450251922        1.93719298957490        0.00416583720908
C           -2.77588173946478        1.63608605524722       -0.01325844370122
O           -1.90273982945433        2.43019738641845       -0.24285757034511
C           -2.50841312782283        0.18171148383994        0.29128653325072
C           -3.50229949590536       -0.83297889115819        0.31567039372293
O           -4.78134571488735       -0.61174260176722        0.33618437289586
C           -3.08144838237674       -2.27430257685099        0.32662948225131
O           -3.88397750772133       -3.16874437877452        0.08233493270240
N           -1.81175777465953       -2.46147588518811        0.70180178489119
C           -0.87753083302690       -1.42370857420675        0.83217024531173
C           -0.48437890841052       -1.33619854017183        2.32895063274106
C            0.38964149197730       -1.78338101361903       -0.03826857700877
C            1.01089693200139       -3.09583597808219        0.43094817594911
C           -0.03799034981776       -1.87087642699731       -1.50729064252701
N            1.31183925433220       -0.66643506356894        0.12887480756314
C            2.58492288406546       -0.66060118096671       -0.32688972759216
O            3.18975357450867       -1.61752910061640       -0.77327291589360
C            3.17852567614131        0.69476583284407       -0.18938065383253
N            2.57033578440543        1.75827616536017        0.24336094691758
N            3.47474212215264        2.77519962481525        0.19509650774562
C            4.57796266871885        2.26768618977199       -0.26635041810624
C            5.85954740303491        2.96603363582850       -0.50815901177327
O            4.45375713970433        0.95859183555017       -0.52902512874823
N           -1.25210844720781       -0.10845426247998        0.46637947528139
H           -4.06653920406648        3.57488660532102       -1.27478516152800
H           -3.92515915001512        3.95819330655987        0.46338921929161
H           -5.48773677885326        3.38596156357479       -0.20023035385804
H           -5.03706641896615        0.32933243249573        0.39292869425140
H           -1.32995887170567       -0.93060280820193        2.87931767010176
H           -0.26337988540895       -2.33487701136140        2.69568706375674
H            0.37979143646355       -0.68871945563872        2.45184468248646
H            0.22826174283620       -3.84404281855597        0.54898726656397
H            1.53028998768308       -2.96507770664352        1.37806336600778
H            1.72752067474234       -3.45000726095882       -0.30825984802358
H           -0.75211111130903       -2.68250063363985       -1.63730093862316
H           -0.49560843416024       -0.93537004913657       -1.82444758829160
H            0.83887031088183       -2.06376827891531       -2.12430261783053
H            0.88308484095494        0.23347231072724        0.31545430911699
H            6.66291258529070        2.47183857525304        0.03817297677194
H            5.77761323052837        4.00079935967905       -0.18392998420803
H            6.10568855795714        2.93624195632079       -1.57003481913560

          :  Hamiltonian                  GFN1-xTB          :
         :: total energy             -82.936612485301 Eh    ::
         :: gradient norm              0.000616676115 Eh/a0 ::
         :: HOMO-LUMO gap              0.930874217729 eV    ::
         :: SCC energy               -83.701909874459 Eh    ::
         :: -> Gsolv                  -0.059219153974 Eh    ::
         :: repulsion energy           0.792563618678 Eh    ::

    * Orbital Energies and Occupations

         #    Occupation            Energy/Eh            Energy/eV
      -------------------------------------------------------------
         1        2.0000           -0.8647457             -23.5309
       ...           ...                  ...                  ...
        55        2.0000           -0.5068791             -13.7929
        56        2.0000           -0.5048324             -13.7372
        57        2.0000           -0.4987041             -13.5704
        58        2.0000           -0.4943482             -13.4519
        59        2.0000           -0.4897188             -13.3259
        60        2.0000           -0.4834523             -13.1554
        61        2.0000           -0.4672117             -12.7135
        62        2.0000           -0.4622596             -12.5787
        63        2.0000           -0.4589716             -12.4893
        64        2.0000           -0.4534114             -12.3380
        65        2.0000           -0.4485628             -12.2060
        66        2.0000           -0.4293650             -11.6836
        67        2.0000           -0.4247193             -11.5572 (HOMO)
        68                         -0.3905103             -10.6263 (LUMO)
        69                         -0.3242590              -8.8235
        70                         -0.3123915              -8.5006
        71                         -0.2578941              -7.0177
        72                         -0.2386224              -6.4932
        73                         -0.2008569              -5.4656
        74                         -0.1917980              -5.2191
        75                         -0.1435976              -3.9075
        76                         -0.1429613              -3.8902
        77                         -0.1365695              -3.7162
        78                         -0.1229775              -3.3464
       ...                                ...                  ...
       134                          0.7307825              19.8856
      -------------------------------------------------------------
                  HL-Gap            0.0342090 Eh            0.9309 eV

Wiberg/Mayer (AO) data.
largest (>0.10) Wiberg bond orders for each atom

     #   Z sym  total        # sym  WBO       # sym  WBO       # sym  WBO
 ---------------------------------------------------------------------------
     1   6 C    3.848 --    28 H    0.985    27 H    0.979    26 H    0.979
                             2 O    0.872
     2   8 O    2.217 --     3 C    1.114     1 C    0.872     4 O    0.138
     3   6 C    3.849 --     4 O    1.698     2 O    1.114     5 C    0.958
     4   8 O    1.959 --     3 C    1.698     2 O    0.138
     5   6 C    3.964 --    25 N    1.566     6 C    1.211     3 C    0.958
     6   6 C    3.827 --     7 O    1.259     5 C    1.211     8 C    0.983
                            10 N    0.178
     7   8 O    2.214 --     6 C    1.259    29 H    0.774
     8   6 C    3.933 --     9 O    1.544    10 N    1.306     6 C    0.983
     9   8 O    1.847 --     8 C    1.544    10 N    0.166
    10   7 N    3.039 --     8 C    1.306    11 C    1.061     6 C    0.178
                             9 O    0.166    25 N    0.163
    11   6 C    3.940 --    10 N    1.061    25 N    1.032    12 C    0.890
                            13 C    0.862
    12   6 C    3.978 --    30 H    0.983    32 H    0.983    31 H    0.980
                            11 C    0.890
    13   6 C    3.917 --    14 C    1.002    15 C    0.987    16 N    0.937
                            11 C    0.862
    14   6 C    3.989 --    13 C    1.002    34 H    0.983    33 H    0.982
                            35 H    0.972
    15   6 C    3.991 --    13 C    0.987    37 H    0.984    36 H    0.983
                            38 H    0.980
    16   7 N    3.343 --    17 C    1.239    13 C    0.937    39 H    0.885
                            18 O    0.172
    17   6 C    3.915 --    18 O    1.602    16 N    1.239    19 C    0.989
    18   8 O    1.915 --    17 C    1.602    16 N    0.172
    19   6 C    3.874 --    20 N    1.610    24 O    1.063    17 C    0.989
    20   7 N    3.018 --    19 C    1.610    21 N    1.201
    21   7 N    2.981 --    22 C    1.604    20 N    1.201
    22   6 C    3.870 --    21 N    1.604    24 O    1.083    23 C    1.031
    23   6 C    3.986 --    22 C    1.031    41 H    0.982    40 H    0.965
                            42 H    0.962
    24   8 O    2.330 --    22 C    1.083    19 C    1.063
    25   7 N    3.047 --     5 C    1.566    11 C    1.032    10 N    0.163
    26   1 H    1.004 --     1 C    0.979
    27   1 H    1.004 --     1 C    0.979
    28   1 H    1.007 --     1 C    0.985
    29   1 H    0.834 --     7 O    0.774
    30   1 H    1.001 --    12 C    0.983
    31   1 H    1.005 --    12 C    0.980
    32   1 H    1.003 --    12 C    0.983
    33   1 H    1.012 --    14 C    0.982
    34   1 H    1.002 --    14 C    0.983
    35   1 H    1.010 --    14 C    0.972
    36   1 H    1.003 --    15 C    0.983
    37   1 H    1.004 --    15 C    0.984
    38   1 H    1.002 --    15 C    0.980
    39   1 H    0.970 --    16 N    0.885
    40   1 H    0.997 --    23 C    0.965
    41   1 H    0.998 --    23 C    0.982
    42   1 H    0.997 --    23 C    0.962
 ---------------------------------------------------------------------------

           -------------------------------------------------
          | TOTAL ENERGY              -82.936612485301 Eh   |
          | GRADIENT NORM               0.000616676115 Eh/α |
          | HOMO-LUMO GAP               0.930874217729 eV   |
           -------------------------------------------------

 * finished run on 2023/06/20 at 18:18:03.601
