   * xtb version 6.5.1 (579679a) compiled by 'ehlert@majestix' on 2022-07-11
          program call               : /lustre/hpc/kemi/ree/PhD/git/ReactivityQM/dep/xtb-6.5.1/bin/xtb --gfn 1 /lustre/hpc/kemi/ree/PhD/git/ReactivityQM/calculations/R02oxygendeprot/reac01prodN10/conf04/R02oxygendeprot_reac01prodN10_conf04_gfn1.xyz --opt --vfukui --chrg 0 --uhf 0 --alpb DMSO

   ID    Z sym.   atoms
    1    6 C      1, 3, 5, 6, 8, 11-15, 17, 19, 22, 23
    2    8 O      2, 4, 7, 9, 18, 24
    3    7 N      10, 16, 20, 21, 25
    4    1 H      26-42

      * Solvation model:               ALPB
        Solvent                        DMSO
        Solvent mass                       7.8130E+01 g/mol
          :  Hamiltonian                  GFN1-xTB          :
 * total energy  :   -82.9630471 Eh     change       -0.1615774E-10 Eh
 * total energy  :   -82.9748101 Eh     change       -0.1176302E-01 Eh
 * total energy  :   -82.9798869 Eh     change       -0.5076818E-02 Eh
 * total energy  :   -82.9809114 Eh     change       -0.1024516E-02 Eh
 * total energy  :   -82.9813962 Eh     change       -0.4847525E-03 Eh
 * total energy  :   -82.9816457 Eh     change       -0.2495436E-03 Eh
 * total energy  :   -82.9818189 Eh     change       -0.1731469E-03 Eh
 * total energy  :   -82.9819335 Eh     change       -0.1146243E-03 Eh
 * total energy  :   -82.9820313 Eh     change       -0.9781544E-04 Eh
 * total energy  :   -82.9821209 Eh     change       -0.8963161E-04 Eh
 * total energy  :   -82.9826619 Eh     change       -0.1062973E-04 Eh
 * total energy  :   -82.9826704 Eh     change       -0.8479042E-05 Eh
 * total energy  :   -82.9826638 Eh     change        0.6591374E-05 Eh
 * total energy  :   -82.9826757 Eh     change       -0.1192484E-04 Eh
 * total energy  :   -82.9826812 Eh     change       -0.5481973E-05 Eh
 * total energy  :   -82.9826859 Eh     change       -0.4715777E-05 Eh
 * total energy  :   -82.9826930 Eh     change       -0.7107289E-05 Eh
 * total energy  :   -82.9826976 Eh     change       -0.4605860E-05 Eh
 * total energy  :   -82.9827001 Eh     change       -0.2490083E-05 Eh
   *** GEOMETRY OPTIMIZATION CONVERGED AFTER 44 ITERATIONS ***

 final structure:
================
42
 xtb: 6.5.1 (579679a)
C           -2.35124290602235        2.19748770116483        3.15488938748338
O           -2.19269249531873        1.23667137981336        2.10172974656187
C           -3.05474675149395        1.31029075081952        1.10020746814866
O           -3.94120407218181        2.11992362195262        1.01898429054407
C           -2.78273250968058        0.25034041109762        0.04973531264743
C           -3.91709621524314       -0.24162553227692       -0.78430903826987
O           -5.07394888358180       -0.12452476069980       -0.47217105288720
C           -3.49052199663609       -0.95635945799383       -2.06825807137665
O           -4.25636237615706       -1.17301976545378       -2.98475372150279
N           -2.18842892015445       -1.30965285196491       -2.10149192860791
C           -1.21551570818247       -1.15972572519156       -1.03782425698676
C           -1.09882223566997       -2.48892203080627       -0.27416136915387
C            0.14611876754775       -0.69051270105148       -1.64792577774275
C           -0.07265306651290        0.60328883869471       -2.44130013234326
C            0.78314064990776       -1.77028330709411       -2.52429386476637
N            1.00850966267432       -0.41466805568758       -0.49968959253485
C            2.29357412454544       -0.01174532028694       -0.60484224414969
O            2.93428931155155        0.06875899094419       -1.63694132838274
C            2.85001002383954        0.30865622504599        0.73500366572108
N            2.21433715867571        0.23780220916363        1.86602776210577
N            3.09254367730363        0.62071956228556        2.83453445426396
C            4.20826014570748        0.90280240614899        2.23198833630234
C            5.47433928565163        1.36519472285754        2.84176764135687
O            4.11749665190445        0.72548648712391        0.90568774473855
N           -1.58663433470057       -0.17171216631706       -0.07421933196101
H           -2.13589468403474        3.19892932756178        2.77685116034925
H           -1.64265181555299        1.92372579343169        3.93292842981162
H           -3.37303156503632        2.16389911540999        3.53875168101615
H           -1.91231236493094       -1.87908482918505       -2.88699388440820
H           -0.28443741971206       -2.43672065106201        0.44467520593104
H           -2.03254070707075       -2.67931174464324        0.25160585486664
H           -0.91548371745849       -3.29848868747354       -0.97569298943260
H           -0.51096257802245        1.36563681489851       -1.79858928045641
H           -0.74059510707121        0.41523021237131       -3.27965238348943
H            0.88121028064537        0.96312251661121       -2.82335781434430
H            1.66014128017810       -1.36364177917810       -3.02551236260995
H            1.09249095960561       -2.62199324780152       -1.92189933424934
H            0.08056484229747       -2.10663275476342       -3.28362855100437
H            0.55114640992378       -0.29626042313347        0.39616092522676
H            6.26261739708193        0.63513914431860        2.65825139683907
H            5.77963311684397        2.31095495213354        2.39485259703948
H            5.34008768453870        1.49279460821782        3.91288024970737

          :  Hamiltonian                  GFN1-xTB          :
         :: total energy             -82.982700116785 Eh    ::
         :: gradient norm              0.000393294815 Eh/a0 ::
         :: HOMO-LUMO gap              1.736052471312 eV    ::
         :: SCC energy               -83.763688826682 Eh    ::
         :: -> Gsolv                  -0.054483861994 Eh    ::
         :: repulsion energy           0.808434181834 Eh    ::

    * Orbital Energies and Occupations

         #    Occupation            Energy/Eh            Energy/eV
      -------------------------------------------------------------
         1        2.0000           -0.8656901             -23.5566
       ...           ...                  ...                  ...
        55        2.0000           -0.5085984             -13.8397
        56        2.0000           -0.5081465             -13.8274
        57        2.0000           -0.5076069             -13.8127
        58        2.0000           -0.5027384             -13.6802
        59        2.0000           -0.4971201             -13.5273
        60        2.0000           -0.4848627             -13.1938
        61        2.0000           -0.4829602             -13.1420
        62        2.0000           -0.4719066             -12.8412
        63        2.0000           -0.4658638             -12.6768
        64        2.0000           -0.4615782             -12.5602
        65        2.0000           -0.4543569             -12.3637
        66        2.0000           -0.4491958             -12.2232
        67        2.0000           -0.4400395             -11.9741 (HOMO)
        68                         -0.3762407             -10.2380 (LUMO)
        69                         -0.3205344              -8.7222
        70                         -0.3132496              -8.5240
        71                         -0.2588601              -7.0439
        72                         -0.2541268              -6.9151
        73                         -0.2041587              -5.5554
        74                         -0.2012164              -5.4754
        75                         -0.1452425              -3.9522
        76                         -0.1443412              -3.9277
        77                         -0.1434284              -3.9029
        78                         -0.1390120              -3.7827
       ...                                ...                  ...
       134                          0.7670621              20.8728
      -------------------------------------------------------------
                  HL-Gap            0.0637988 Eh            1.7361 eV

Wiberg/Mayer (AO) data.
largest (>0.10) Wiberg bond orders for each atom

     #   Z sym  total        # sym  WBO       # sym  WBO       # sym  WBO
 ---------------------------------------------------------------------------
     1   6 C    3.860 --    27 H    0.986    28 H    0.979    26 H    0.979
                             2 O    0.885
     2   8 O    2.220 --     3 C    1.141     1 C    0.885     4 O    0.146
     3   6 C    3.853 --     4 O    1.692     2 O    1.141     5 C    0.944
     4   8 O    1.951 --     3 C    1.692     2 O    0.146
     5   6 C    3.953 --    25 N    1.790     6 C    0.993     3 C    0.944
     6   6 C    3.858 --     7 O    1.805     5 C    0.993     8 C    0.908
     7   8 O    2.012 --     6 C    1.805
     8   6 C    3.903 --     9 O    1.635    10 N    1.246     6 C    0.908
     9   8 O    1.929 --     8 C    1.635    10 N    0.185
    10   7 N    3.365 --     8 C    1.246    11 C    0.940    29 H    0.882
                             9 O    0.185
    11   6 C    3.914 --    25 N    1.002    12 C    0.947    10 N    0.940
                            13 C    0.925
    12   6 C    3.981 --    31 H    0.982    30 H    0.981    32 H    0.980
                            11 C    0.947
    13   6 C    3.927 --    15 C    0.999    14 C    0.991    16 N    0.933
                            11 C    0.925
    14   6 C    3.989 --    13 C    0.991    33 H    0.984    34 H    0.984
                            35 H    0.980
    15   6 C    3.988 --    13 C    0.999    37 H    0.982    38 H    0.981
                            36 H    0.974
    16   7 N    3.341 --    17 C    1.245    13 C    0.933    39 H    0.887
                            18 O    0.175
    17   6 C    3.916 --    18 O    1.598    16 N    1.245    19 C    0.989
    18   8 O    1.915 --    17 C    1.598    16 N    0.175
    19   6 C    3.875 --    20 N    1.610    24 O    1.065    17 C    0.989
    20   7 N    3.017 --    19 C    1.610    21 N    1.200
    21   7 N    2.980 --    22 C    1.604    20 N    1.200
    22   6 C    3.870 --    21 N    1.604    24 O    1.083    23 C    1.031
    23   6 C    3.986 --    22 C    1.031    42 H    0.982    41 H    0.964
                            40 H    0.962
    24   8 O    2.331 --    22 C    1.083    19 C    1.065
    25   7 N    3.062 --     5 C    1.790    11 C    1.002
    26   1 H    1.004 --     1 C    0.979
    27   1 H    1.009 --     1 C    0.986
    28   1 H    1.005 --     1 C    0.979
    29   1 H    0.930 --    10 N    0.882
    30   1 H    0.999 --    12 C    0.981
    31   1 H    0.999 --    12 C    0.982
    32   1 H    0.999 --    12 C    0.980
    33   1 H    1.004 --    14 C    0.984
    34   1 H    1.002 --    14 C    0.984
    35   1 H    1.005 --    14 C    0.980
    36   1 H    1.008 --    15 C    0.974
    37   1 H    1.001 --    15 C    0.982
    38   1 H    0.998 --    15 C    0.981
    39   1 H    0.969 --    16 N    0.887
    40   1 H    0.996 --    23 C    0.962
    41   1 H    0.996 --    23 C    0.964
    42   1 H    0.998 --    23 C    0.982
 ---------------------------------------------------------------------------

           -------------------------------------------------
          | TOTAL ENERGY              -82.982700116785 Eh   |
          | GRADIENT NORM               0.000393294815 Eh/α |
          | HOMO-LUMO GAP               1.736052471312 eV   |
           -------------------------------------------------

 * finished run on 2023/06/21 at 17:25:30.311
