   * xtb version 6.5.1 (579679a) compiled by 'ehlert@majestix' on 2022-07-11
          program call               : /lustre/hpc/kemi/ree/PhD/git/ReactivityQM/dep/xtb-6.5.1/bin/xtb --gfn 1 /lustre/hpc/kemi/ree/PhD/git/ReactivityQM/calculations/R02methylcation/reac01prodN14/conf18/R02methylcation_reac01prodN14_conf18_gfn1.xyz --opt --vfukui --chrg 0 --uhf 0 --alpb DMSO

   ID    Z sym.   atoms
    1    6 C      1, 3, 5, 6, 8, 9, 12-15, 17, 19, 22, 23
    2    8 O      2, 4, 7, 10, 18, 24
    3    7 N      11, 16, 20, 21, 25
    4    1 H      26-42

      * Solvation model:               ALPB
        Solvent                        DMSO
        Solvent mass                       7.8130E+01 g/mol
          :  Hamiltonian                  GFN1-xTB          :
 * total energy  :   -82.8957923 Eh     change       -0.9478640E-11 Eh
 * total energy  :   -82.9116298 Eh     change       -0.1583751E-01 Eh
 * total energy  :   -82.9207455 Eh     change       -0.9115715E-02 Eh
 * total energy  :   -82.9226548 Eh     change       -0.1909353E-02 Eh
 * total energy  :   -82.9245863 Eh     change       -0.1931480E-02 Eh
 * total energy  :   -82.9257265 Eh     change       -0.1140180E-02 Eh
 * total energy  :   -82.9268931 Eh     change       -0.1166648E-02 Eh
 * total energy  :   -82.9278085 Eh     change       -0.9153701E-03 Eh
 * total energy  :   -82.9285085 Eh     change       -0.7000069E-03 Eh
 * total energy  :   -82.9292607 Eh     change       -0.7521580E-03 Eh
 * total energy  :   -82.9811031 Eh     change       -0.2132499E-04 Eh
 * total energy  :   -82.9811166 Eh     change       -0.1353788E-04 Eh
 * total energy  :   -82.9811403 Eh     change       -0.2367783E-04 Eh
 * total energy  :   -82.9811548 Eh     change       -0.1445193E-04 Eh
 * total energy  :   -82.9811646 Eh     change       -0.9843690E-05 Eh
 * total energy  :   -82.9811754 Eh     change       -0.1075627E-04 Eh
 * total energy  :   -82.9811808 Eh     change       -0.5472370E-05 Eh
 * total energy  :   -82.9811871 Eh     change       -0.6248861E-05 Eh
 * total energy  :   -82.9811909 Eh     change       -0.3795074E-05 Eh
   *** GEOMETRY OPTIMIZATION CONVERGED AFTER 98 ITERATIONS ***

 final structure:
================
42
 xtb: 6.5.1 (579679a)
C           -5.69527338630576        2.74436160577886        1.26035891464709
O           -4.49648408542629        2.24351092733535        0.66745178185927
C           -3.79538634301640        1.36041288913139        1.40241802359685
O           -4.15028253598271        0.99516466425318        2.50555486115186
C           -2.59003119281302        0.91212783409793        0.72274994818518
C           -2.14064066406139        1.27597685951215       -0.53475089659697
O           -2.46013001199111        1.94364227567069       -1.47950366917219
C           -0.65639958985057       -0.40549240418296       -1.84742694866951
C           -1.93757578589306       -1.03126370620287       -2.24874758523993
O            0.40524975310879       -0.50029191471196       -2.37751412424430
N           -0.75048928068814        0.46523193069403       -0.65334830147226
C           -0.72948121955587       -0.27387717074237        0.63823930001667
C            0.33809874204462       -1.27523151853844        0.97622616354539
C           -0.06776997916705       -2.65360621223067        0.42494206428927
C            0.48421732726766       -1.32499209114457        2.50394063421214
N            1.60095042443782       -0.84655850613057        0.37148721850875
C            2.74429146212617       -1.55961012508263        0.46736671085864
O            2.85812983262603       -2.64698751471870        1.00682327636014
C            3.89447298834742       -0.87079804100999       -0.16885777453523
N            5.11173666039316       -1.30299703821732       -0.28093163764844
N            5.81890710177529       -0.32723450177420       -0.91641078057214
C            4.99033687632956        0.64202191746675       -1.15228105479043
C            5.27176532049327        1.93217947449728       -1.81804486208986
O            3.75470986600584        0.36135249764945       -0.70581758109070
N           -1.74240062983591        0.00246628221406        1.34654894798837
H           -6.12822762716109        3.44319294659474        0.54671671219606
H           -5.46884328354198        3.25673920284723        2.19938364105807
H           -6.39265187643766        1.92533462536909        1.45645381549132
H           -2.50590717964480       -1.35768904302401       -1.38058297898625
H           -2.52415270182891       -0.27328191003340       -2.77328023479636
H           -1.74543227806064       -1.86166776665309       -2.92357010543363
H            0.00411012342786        1.14498133602823       -0.70787276103258
H           -1.07170436811130       -2.89717979478487        0.76818291631926
H           -0.05487877128255       -2.64137170287706       -0.66279728482372
H            0.62446813371811       -3.41581821480529        0.77819750741021
H           -0.47598775259495       -1.57940872230800        2.94998582303668
H            0.80407373573205       -0.35357443802190        2.87662890687045
H            1.22050830301652       -2.07721472666243        2.78051686809355
H            1.64766873766399        0.05896328972107       -0.06233307985269
H            4.94840768563369        2.75557002878934       -1.18248184827145
H            6.33738611382788        2.01707070737093       -2.01725116375139
H            4.72063835525921        1.99584576883179       -2.75636836263566

          :  Hamiltonian                  GFN1-xTB          :
         :: total energy             -82.981190872834 Eh    ::
         :: gradient norm              0.000893612450 Eh/a0 ::
         :: HOMO-LUMO gap              2.514971602849 eV    ::
         :: SCC energy               -83.778137819604 Eh    ::
         :: -> Gsolv                  -0.063219373669 Eh    ::
         :: repulsion energy           0.824003942828 Eh    ::

    * Orbital Energies and Occupations

         #    Occupation            Energy/Eh            Energy/eV
      -------------------------------------------------------------
         1        2.0000           -0.8668338             -23.5877
       ...           ...                  ...                  ...
        55        2.0000           -0.5062855             -13.7767
        56        2.0000           -0.5056168             -13.7585
        57        2.0000           -0.5044037             -13.7255
        58        2.0000           -0.4925726             -13.4036
        59        2.0000           -0.4857034             -13.2167
        60        2.0000           -0.4807144             -13.0809
        61        2.0000           -0.4698162             -12.7843
        62        2.0000           -0.4661340             -12.6842
        63        2.0000           -0.4624102             -12.5828
        64        2.0000           -0.4584862             -12.4760
        65        2.0000           -0.4528700             -12.3232
        66        2.0000           -0.4506717             -12.2634
        67        2.0000           -0.4176023             -11.3635 (HOMO)
        68                         -0.3251788              -8.8486 (LUMO)
        69                         -0.3121835              -8.4949
        70                         -0.3014717              -8.2035
        71                         -0.2732903              -7.4366
        72                         -0.2572149              -6.9992
        73                         -0.1999121              -5.4399
        74                         -0.1666953              -4.5360
        75                         -0.1584583              -4.3119
        76                         -0.1422527              -3.8709
        77                         -0.1410886              -3.8392
        78                         -0.1330401              -3.6202
       ...                                ...                  ...
       134                          0.8270479              22.5051
      -------------------------------------------------------------
                  HL-Gap            0.0924235 Eh            2.5150 eV

Wiberg/Mayer (AO) data.
largest (>0.10) Wiberg bond orders for each atom

     #   Z sym  total        # sym  WBO       # sym  WBO       # sym  WBO
 ---------------------------------------------------------------------------
     1   6 C    3.880 --    26 H    0.986    28 H    0.981    27 H    0.981
                             2 O    0.906
     2   8 O    2.168 --     3 C    1.074     1 C    0.906     4 O    0.120
     3   6 C    3.864 --     4 O    1.614     5 C    1.084     2 O    1.074
     4   8 O    1.893 --     3 C    1.614     2 O    0.120
     5   6 C    3.886 --     6 C    1.352    25 N    1.109     3 C    1.084
                             7 O    0.139
     6   6 C    3.870 --     7 O    1.664     5 C    1.352    11 N    0.689
     7   8 O    2.015 --     6 C    1.664     5 C    0.139
     8   6 C    3.828 --    10 O    1.813     9 C    1.030    11 N    0.883
     9   6 C    3.983 --     8 C    1.030    31 H    0.972    29 H    0.965
                            30 H    0.930
    10   8 O    2.045 --     8 C    1.813
    11   7 N    3.549 --     8 C    0.883    32 H    0.864    12 C    0.853
                             6 C    0.689
    12   6 C    3.886 --    25 N    1.782    13 C    0.993    11 N    0.853
    13   6 C    3.936 --    12 C    0.993    15 C    0.981    14 C    0.971
                            16 N    0.928
    14   6 C    3.985 --    33 H    0.985    34 H    0.983    35 H    0.976
                            13 C    0.971
    15   6 C    3.986 --    37 H    0.985    36 H    0.984    13 C    0.981
                            38 H    0.981
    16   7 N    3.341 --    17 C    1.249    13 C    0.928    39 H    0.893
                            18 O    0.175
    17   6 C    3.915 --    18 O    1.589    16 N    1.249    19 C    0.993
    18   8 O    1.906 --    17 C    1.589    16 N    0.175
    19   6 C    3.873 --    20 N    1.622    24 O    1.047    17 C    0.993
    20   7 N    3.000 --    19 C    1.622    21 N    1.199
    21   7 N    2.982 --    22 C    1.610    20 N    1.199
    22   6 C    3.868 --    21 N    1.610    24 O    1.073    23 C    1.032
    23   6 C    3.986 --    22 C    1.032    41 H    0.982    40 H    0.965
                            42 H    0.961
    24   8 O    2.317 --    22 C    1.073    19 C    1.047
    25   7 N    3.069 --    12 C    1.782     5 C    1.109
    26   1 H    1.012 --     1 C    0.986
    27   1 H    1.009 --     1 C    0.981
    28   1 H    1.009 --     1 C    0.981
    29   1 H    0.995 --     9 C    0.965
    30   1 H    0.994 --     9 C    0.930
    31   1 H    0.994 --     9 C    0.972
    32   1 H    0.915 --    11 N    0.864
    33   1 H    1.003 --    14 C    0.985
    34   1 H    1.003 --    14 C    0.983
    35   1 H    1.009 --    14 C    0.976
    36   1 H    1.007 --    15 C    0.984
    37   1 H    1.002 --    15 C    0.985
    38   1 H    1.007 --    15 C    0.981
    39   1 H    0.943 --    16 N    0.893
    40   1 H    0.996 --    23 C    0.965
    41   1 H    0.998 --    23 C    0.982
    42   1 H    0.996 --    23 C    0.961
 ---------------------------------------------------------------------------

           -------------------------------------------------
          | TOTAL ENERGY              -82.981190872834 Eh   |
          | GRADIENT NORM               0.000893612450 Eh/α |
          | HOMO-LUMO GAP               2.514971602849 eV   |
           -------------------------------------------------

 * finished run on 2023/06/21 at 17:54:08.406
