   * xtb version 6.5.1 (579679a) compiled by 'ehlert@majestix' on 2022-07-11
          program call               : /lustre/hpc/kemi/ree/PhD/git/ReactivityQM/dep/xtb-6.5.1/bin/xtb --gfn 1 /lustre/hpc/kemi/ree/PhD/git/ReactivityQM/calculations/R02deprot/reac01prodE06/conf04/R02deprot_reac01prodE06_conf04_gfn1.xyz --opt --vfukui --chrg -2 --uhf 0 --alpb DMSO

   ID    Z sym.   atoms
    1    6 C      1, 3, 5, 6, 8, 11-15, 17, 19, 22, 23
    2    8 O      2, 4, 7, 9, 18, 24
    3    7 N      10, 16, 20, 21, 25
    4    1 H      26-42

      * Solvation model:               ALPB
        Solvent                        DMSO
        Solvent mass                       7.8130E+01 g/mol
          :  Hamiltonian                  GFN1-xTB          :
 * total energy  :   -83.5866043 Eh     change       -0.1706724E-10 Eh
 * total energy  :   -83.5975376 Eh     change       -0.1093325E-01 Eh
 * total energy  :   -83.6019420 Eh     change       -0.4404469E-02 Eh
 * total energy  :   -83.6027781 Eh     change       -0.8361206E-03 Eh
 * total energy  :   -83.6033024 Eh     change       -0.5242402E-03 Eh
 * total energy  :   -83.6035535 Eh     change       -0.2511149E-03 Eh
 * total energy  :   -83.6037596 Eh     change       -0.2061489E-03 Eh
 * total energy  :   -83.6039329 Eh     change       -0.1732300E-03 Eh
 * total energy  :   -83.6040935 Eh     change       -0.1605871E-03 Eh
 * total energy  :   -83.6042419 Eh     change       -0.1484708E-03 Eh
 * total energy  :   -83.6050335 Eh     change       -0.2875644E-04 Eh
 * total energy  :   -83.6050521 Eh     change       -0.1861102E-04 Eh
 * total energy  :   -83.6050750 Eh     change       -0.2281249E-04 Eh
 * total energy  :   -83.6050515 Eh     change        0.2348729E-04 Eh
 * total energy  :   -83.6050828 Eh     change       -0.3132631E-04 Eh
 * total energy  :   -83.6050215 Eh     change        0.6126331E-04 Eh
 * total energy  :   -83.6050946 Eh     change       -0.7311153E-04 Eh
 * total energy  :   -83.6051006 Eh     change       -0.5957868E-05 Eh
 * total energy  :   -83.6051056 Eh     change       -0.4967422E-05 Eh
   *** GEOMETRY OPTIMIZATION CONVERGED AFTER 36 ITERATIONS ***

 final structure:
================
42
 xtb: 6.5.1 (579679a)
C           -2.63297845569941        0.80039579344617        3.56532254337545
O           -2.22012460327498        0.44043029427313        2.25638689010818
C           -3.20842048424147        0.02716014248712        1.42030877195607
O           -4.37146110024406       -0.01768411229374        1.82515876156364
C           -2.75409490001057       -0.32625011669397        0.07539594751434
C           -3.67848970703039       -0.64626700224125       -0.91244342435126
O           -5.03683665238318       -0.72179957539924       -0.67990729286792
C           -3.22953834083020       -0.75018658869100       -2.32791428680818
O           -4.08068741625217       -0.78645514630707       -3.26292030363800
N           -1.92218879381574       -0.74667900710088       -2.55168158381303
C           -1.00194524247223       -0.80538903235237       -1.43984403091536
C           -0.57967471449770       -2.29433555175543       -1.23824929583834
C            0.26169091748306        0.04629589022101       -1.84887773674985
C            0.94242659693123       -0.52147745218780       -3.09522103726461
C           -0.20508934270328        1.48632008787248       -2.11276561214798
N            1.14298438972483        0.05270224280092       -0.68415149749763
C            2.46525428107105        0.29849180654916       -0.65749399441030
O            3.19442980003427        0.45082914379183       -1.64633343566787
C            2.97717733786185        0.34295510878147        0.72230738332866
N            2.27929684266013        0.18677564770361        1.82262991368662
N            3.14704260152143        0.35828805494008        2.86638805063274
C            4.30697363612401        0.60882785191507        2.35105954892156
C            5.57537052696573        0.86420138439459        3.07367534645780
O            4.28179008293262        0.61600029983375        1.00440347780454
N           -1.42208359125920       -0.29070989987368       -0.14859517163202
H           -1.74835791118024        1.13944050391837        4.10341261078269
H           -3.07296796969645       -0.05781630247136        4.08345551577834
H           -3.37417721492469        1.60531527462367        3.53195343452554
H           -5.21474502023764       -0.52281103522322        0.25921639872324
H           -1.40835369962936       -2.83830133999339       -0.78514877126694
H            0.28378323843024       -2.35881922112121       -0.57667464527993
H           -0.34301471327063       -2.75835727307826       -2.19499439373339
H            1.61267267048264        0.20812314646643       -3.54897207411969
H            0.16706078778790       -0.78027612685613       -3.81993396432681
H            1.51975646404040       -1.41460078531073       -2.85897359777256
H           -0.70265311563347        1.87955530685162       -1.22487375592434
H            0.63940391149352        2.12967827498595       -2.35929657760868
H           -0.91171199678747        1.48664419411117       -2.94410840653314
H            0.63281775279519        0.05332594689603        0.20040724386986
H            6.26454048953496        0.03189956510397        2.93183372163889
H            6.05182321846221        1.76516042704355        2.69092831941996
H            5.37329943973825        0.98136217994206        4.13513201007916

          :  Hamiltonian                  GFN1-xTB          :
         :: total energy             -83.605105570757 Eh    ::
         :: gradient norm              0.000595541228 Eh/a0 ::
         :: HOMO-LUMO gap              0.172271360448 eV    ::
         :: SCC energy               -84.325424000130 Eh    ::
         :: -> Gsolv                  -0.274899348055 Eh    ::
         :: repulsion energy           0.747434478285 Eh    ::

    * Orbital Energies and Occupations

         #    Occupation            Energy/Eh            Energy/eV
      -------------------------------------------------------------
         1        2.0000           -0.8285156             -22.5451
       ...           ...                  ...                  ...
        56        2.0000           -0.4394601             -11.9583
        57        2.0000           -0.4300044             -11.7010
        58        2.0000           -0.4257012             -11.5839
        59        2.0000           -0.4215714             -11.4715
        60        2.0000           -0.4156210             -11.3096
        61        2.0000           -0.4067188             -11.0674
        62        2.0000           -0.3997844             -10.8787
        63        2.0000           -0.3921622             -10.6713
        64        2.0000           -0.3735440             -10.1646
        65        2.0000           -0.3478863              -9.4665
        66        2.0000           -0.3219824              -8.7616
        67        2.0000           -0.3128232              -8.5124
        68        1.9310           -0.2802699              -7.6265 (HOMO)
        69        0.0690           -0.2739391              -7.4543 (LUMO)
        70                         -0.2409121              -6.5556
        71                         -0.2292878              -6.2392
        72                         -0.1576047              -4.2886
        73                         -0.1420742              -3.8660
        74                         -0.1321693              -3.5965
        75                         -0.1180077              -3.2112
        76                         -0.0930086              -2.5309
        77                         -0.0856524              -2.3307
        78                         -0.0782813              -2.1301
        79                         -0.0724117              -1.9704
       ...                                ...                  ...
       134                          0.7325742              19.9344
      -------------------------------------------------------------
                  HL-Gap            0.0063309 Eh            0.1723 eV

Wiberg/Mayer (AO) data.
largest (>0.10) Wiberg bond orders for each atom

     #   Z sym  total        # sym  WBO       # sym  WBO       # sym  WBO
 ---------------------------------------------------------------------------
     1   6 C    3.902 --    26 H    0.987    27 H    0.980    28 H    0.980
                             2 O    0.928
     2   8 O    2.162 --     3 C    1.051     1 C    0.928     4 O    0.104
     3   6 C    3.814 --     4 O    1.551     5 C    1.075     2 O    1.051
     4   8 O    1.887 --     3 C    1.551     2 O    0.104
     5   6 C    3.959 --     6 C    1.379    25 N    1.294     3 C    1.075
     6   6 C    3.796 --     5 C    1.379     8 C    1.030     7 O    1.014
                            25 N    0.159
     7   8 O    1.979 --     6 C    1.014    29 H    0.826
     8   6 C    3.937 --    10 N    1.416     9 O    1.398     6 C    1.030
     9   8 O    1.678 --     8 C    1.398    10 N    0.173
    10   7 N    2.856 --     8 C    1.416    11 C    1.004     9 O    0.173
    11   6 C    3.960 --    10 N    1.004    25 N    0.996    12 C    0.954
                            13 C    0.926
    12   6 C    3.983 --    31 H    0.986    30 H    0.986    32 H    0.985
                            11 C    0.954
    13   6 C    3.914 --    14 C    1.003    15 C    0.988    11 C    0.926
                            16 N    0.923
    14   6 C    3.997 --    13 C    1.003    35 H    0.986    33 H    0.984
                            34 H    0.982
    15   6 C    3.995 --    37 H    0.988    13 C    0.988    36 H    0.983
                            38 H    0.982
    16   7 N    3.364 --    17 C    1.261    13 C    0.923    39 H    0.887
                            18 O    0.168
    17   6 C    3.897 --    18 O    1.494    16 N    1.261    19 C    1.029
    18   8 O    1.797 --    17 C    1.494    16 N    0.168
    19   6 C    3.803 --    20 N    1.534    17 C    1.029    24 O    1.023
    20   7 N    2.928 --    19 C    1.534    21 N    1.183
    21   7 N    2.979 --    22 C    1.626    20 N    1.183
    22   6 C    3.852 --    21 N    1.626    24 O    1.068    23 C    1.026
    23   6 C    3.991 --    22 C    1.026    42 H    0.984    41 H    0.972
                            40 H    0.966
    24   8 O    2.260 --    22 C    1.068    19 C    1.023
    25   7 N    2.827 --     5 C    1.294    11 C    0.996     6 C    0.159
    26   1 H    1.017 --     1 C    0.987
    27   1 H    1.015 --     1 C    0.980
    28   1 H    1.015 --     1 C    0.980
    29   1 H    0.898 --     7 O    0.826
    30   1 H    1.017 --    12 C    0.986
    31   1 H    1.018 --    12 C    0.986
    32   1 H    1.018 --    12 C    0.985
    33   1 H    1.022 --    14 C    0.984
    34   1 H    1.032 --    14 C    0.982
    35   1 H    1.012 --    14 C    0.986
    36   1 H    1.027 --    15 C    0.983
    37   1 H    1.008 --    15 C    0.988
    38   1 H    1.026 --    15 C    0.982
    39   1 H    1.005 --    16 N    0.887
    40   1 H    0.999 --    23 C    0.966
    41   1 H    0.999 --    23 C    0.972
    42   1 H    1.002 --    23 C    0.984
 ---------------------------------------------------------------------------

           -------------------------------------------------
          | TOTAL ENERGY              -83.605105570757 Eh   |
          | GRADIENT NORM               0.000595541228 Eh/α |
          | HOMO-LUMO GAP               0.172271360448 eV   |
           -------------------------------------------------

 * finished run on 2023/06/20 at 17:45:07.108
