   * xtb version 6.5.1 (579679a) compiled by 'ehlert@majestix' on 2022-07-11
          program call               : /lustre/hpc/kemi/ree/PhD/git/ReactivityQM/dep/xtb-6.5.1/bin/xtb --gfn 1 /lustre/hpc/kemi/ree/PhD/git/ReactivityQM/calculations/R02/reac01prodE06/conf02/R02_reac01prodE06_conf02_gfn1.xyz --opt --vfukui --chrg -1 --uhf 0 --alpb DMSO

   ID    Z sym.   atoms
    1    6 C      1, 3, 5, 6, 8, 11-15, 17, 19, 22, 23
    2    8 O      2, 4, 7, 9, 18, 24
    3    7 N      10, 16, 20, 21, 25
    4    1 H      26-43

      * Solvation model:               ALPB
        Solvent                        DMSO
        Solvent mass                       7.8130E+01 g/mol
          :  Hamiltonian                  GFN1-xTB          :
 * total energy  :   -83.8617499 Eh     change       -0.7224799E-10 Eh
 * total energy  :   -83.8743925 Eh     change       -0.1264259E-01 Eh
 * total energy  :   -83.8798255 Eh     change       -0.5433024E-02 Eh
 * total energy  :   -83.8809124 Eh     change       -0.1086880E-02 Eh
 * total energy  :   -83.8816122 Eh     change       -0.6997985E-03 Eh
 * total energy  :   -83.8818179 Eh     change       -0.2056906E-03 Eh
 * total energy  :   -83.8819365 Eh     change       -0.1186755E-03 Eh
 * total energy  :   -83.8820163 Eh     change       -0.7981057E-04 Eh
 * total energy  :   -83.8820965 Eh     change       -0.8020709E-04 Eh
 * total energy  :   -83.8821881 Eh     change       -0.9151137E-04 Eh
 * total energy  :   -83.8830882 Eh     change       -0.1242403E-04 Eh
 * total energy  :   -83.8831087 Eh     change       -0.2046460E-04 Eh
 * total energy  :   -83.8831229 Eh     change       -0.1417669E-04 Eh
 * total energy  :   -83.8831439 Eh     change       -0.2107597E-04 Eh
 * total energy  :   -83.8831568 Eh     change       -0.1287893E-04 Eh
 * total energy  :   -83.8831679 Eh     change       -0.1106845E-04 Eh
 * total energy  :   -83.8831672 Eh     change        0.6388210E-06 Eh
 * total energy  :   -83.8831782 Eh     change       -0.1092115E-04 Eh
 * total energy  :   -83.8831826 Eh     change       -0.4422608E-05 Eh
   *** GEOMETRY OPTIMIZATION CONVERGED AFTER 42 ITERATIONS ***

 final structure:
================
43
 xtb: 6.5.1 (579679a)
C           -4.28989682604563        3.41429078574401        1.20477961506418
O           -3.85064532222255        2.22740994033295        0.54595460050894
C           -2.62161638039666        1.78711338751597        0.87481952039345
O           -1.92913873948032        2.38664933326250        1.67256165301623
C           -2.21814760635208        0.52467578826894        0.18731467606921
C           -2.73129760530287        0.13194537193709       -1.05655679431736
O           -3.70888257488693        0.85799996608776       -1.75185772784049
C           -2.09595722304635       -0.92619994840746       -1.76747829387570
O           -2.35438573335125       -1.32113483937458       -2.91481185557583
N           -0.99092255617433       -1.48813974418906       -1.09816699793802
C           -0.95292311572917       -1.46124456349651        0.36033007018040
C           -1.93227724113154       -2.50886448197619        0.93307956639271
C            0.52410002750235       -1.71876243850587        0.80777875377620
C            0.67756640918080       -1.50506696508512        2.31794287030937
C            1.05069778280065       -3.10358033663617        0.41628618695268
N            1.29202171302460       -0.69410208184692        0.09036683104752
C            2.60913673346105       -0.49429041493382        0.17576800773372
O            3.39157618565107       -1.09289447539664        0.90220269648066
C            3.03918168110809        0.60115724767052       -0.74436074150731
N            2.27096404856979        1.27877711874154       -1.54153997377650
N            3.06904431730812        2.17818918603699       -2.18883632821717
C            4.27173754576190        1.98976382809797       -1.74332854110678
C            5.50298322891872        2.71283694054412       -2.13109565253956
O            4.32037551754632        1.00836307271451       -0.82897897319653
N           -1.30965639330181       -0.15510584676573        0.86868319806591
H           -4.37794770938382        3.23858998686920        2.27995661426161
H           -5.26285992561987        3.66758511868865        0.78995131807990
H           -3.58356659512162        4.23114198446425        1.03285900343675
H           -4.44843027121824        1.07462383516153       -1.17236077763735
H           -0.73458039173191       -2.38404314613954       -1.48916570053017
H           -2.94380610732523       -2.25477944448801        0.61781684982372
H           -1.89733553686474       -2.50414479633912        2.02029407927961
H           -1.69511170124465       -3.50562126330330        0.56771505332025
H            0.25084193876414       -0.54217655370124        2.60109618569988
H            1.72879326793829       -1.52996809803642        2.60031788468884
H            0.15920204455945       -2.29498970234674        2.85818564555234
H            2.09571668542639       -3.19677471617664        0.71012317687336
H            0.97999126086471       -3.25956797515488       -0.65875110469271
H            0.48249497252311       -3.87957340232342        0.92473077215159
H            0.76836841802772       -0.16247787033216       -0.59967972853626
H            6.23503576310739        2.01322845194777       -2.53379708386699
H            5.94377147971139        3.19587415617945       -1.25891389986552
H            5.26578453418655        3.46328760469512       -2.88123065414041

          :  Hamiltonian                  GFN1-xTB          :
         :: total energy             -83.883182588520 Eh    ::
         :: gradient norm              0.000923841869 Eh/a0 ::
         :: HOMO-LUMO gap              0.787221081139 eV    ::
         :: SCC energy               -84.640233817716 Eh    ::
         :: -> Gsolv                  -0.116797921022 Eh    ::
         :: repulsion energy           0.784857279013 Eh    ::

    * Orbital Energies and Occupations

         #    Occupation            Energy/Eh            Energy/eV
      -------------------------------------------------------------
         1        2.0000           -0.8568718             -23.3167
       ...           ...                  ...                  ...
        56        2.0000           -0.4753005             -12.9336
        57        2.0000           -0.4729479             -12.8696
        58        2.0000           -0.4622653             -12.5789
        59        2.0000           -0.4523283             -12.3085
        60        2.0000           -0.4517036             -12.2915
        61        2.0000           -0.4462252             -12.1424
        62        2.0000           -0.4405431             -11.9878
        63        2.0000           -0.4310804             -11.7303
        64        2.0000           -0.4290706             -11.6756
        65        2.0000           -0.4075322             -11.0895
        66        2.0000           -0.3920213             -10.6674
        67        2.0000           -0.3798572             -10.3364
        68        2.0000           -0.3268043              -8.8928 (HOMO)
        69        0.0000           -0.2978744              -8.1056 (LUMO)
        70                         -0.2685238              -7.3069
        71                         -0.2512881              -6.8379
        72                         -0.1966958              -5.3524
        73                         -0.1863779              -5.0716
        74                         -0.1413110              -3.8453
        75                         -0.1278967              -3.4802
        76                         -0.1221651              -3.3243
        77                         -0.1170268              -3.1845
        78                         -0.1096819              -2.9846
        79                         -0.0988260              -2.6892
       ...                                ...                  ...
       136                          0.7323876              19.9293
      -------------------------------------------------------------
                  HL-Gap            0.0289298 Eh            0.7872 eV

Wiberg/Mayer (AO) data.
largest (>0.10) Wiberg bond orders for each atom

     #   Z sym  total        # sym  WBO       # sym  WBO       # sym  WBO
 ---------------------------------------------------------------------------
     1   6 C    3.885 --    27 H    0.987    26 H    0.980    28 H    0.980
                             2 O    0.907
     2   8 O    2.190 --     3 C    1.078     1 C    0.907     4 O    0.123
     3   6 C    3.816 --     4 O    1.652     2 O    1.078     5 C    0.995
     4   8 O    1.902 --     3 C    1.652     2 O    0.123
     5   6 C    3.970 --    25 N    1.441     6 C    1.324     3 C    0.995
     6   6 C    3.855 --     5 C    1.324     8 C    1.204     7 O    0.964
                            25 N    0.178
     7   8 O    1.926 --     6 C    0.964    29 H    0.858
     8   6 C    3.913 --     9 O    1.499     6 C    1.204    10 N    1.058
     9   8 O    1.799 --     8 C    1.499
    10   7 N    3.186 --     8 C    1.058    11 C    0.944    30 H    0.920
    11   6 C    3.946 --    25 N    0.999    12 C    0.975    13 C    0.949
                            10 N    0.944
    12   6 C    3.995 --    31 H    0.984    33 H    0.984    32 H    0.983
                            11 C    0.975
    13   6 C    3.922 --    14 C    0.997    15 C    0.996    11 C    0.949
                            16 N    0.914
    14   6 C    3.994 --    13 C    0.997    36 H    0.984    35 H    0.982
                            34 H    0.980
    15   6 C    3.994 --    13 C    0.996    39 H    0.984    38 H    0.982
                            37 H    0.981
    16   7 N    3.395 --    17 C    1.306    13 C    0.914    40 H    0.890
                            18 O    0.189
    17   6 C    3.925 --    18 O    1.560    16 N    1.306    19 C    0.978
    18   8 O    1.883 --    17 C    1.560    16 N    0.189
    19   6 C    3.869 --    20 N    1.620    24 O    1.061    17 C    0.978
    20   7 N    3.011 --    19 C    1.620    21 N    1.190
    21   7 N    2.980 --    22 C    1.616    20 N    1.190
    22   6 C    3.874 --    21 N    1.616    24 O    1.080    23 C    1.030
    23   6 C    3.988 --    22 C    1.030    43 H    0.983    41 H    0.965
                            42 H    0.965
    24   8 O    2.324 --    22 C    1.080    19 C    1.061
    25   7 N    2.931 --     5 C    1.441    11 C    0.999     6 C    0.178
    26   1 H    1.010 --     1 C    0.980
    27   1 H    1.013 --     1 C    0.987
    28   1 H    1.012 --     1 C    0.980
    29   1 H    0.897 --     7 O    0.858
    30   1 H    0.967 --    10 N    0.920
    31   1 H    1.007 --    12 C    0.984
    32   1 H    1.010 --    12 C    0.983
    33   1 H    1.005 --    12 C    0.984
    34   1 H    1.028 --    14 C    0.980
    35   1 H    1.013 --    14 C    0.982
    36   1 H    1.006 --    14 C    0.984
    37   1 H    1.011 --    15 C    0.981
    38   1 H    1.004 --    15 C    0.982
    39   1 H    1.005 --    15 C    0.984
    40   1 H    0.984 --    16 N    0.890
    41   1 H    0.998 --    23 C    0.965
    42   1 H    0.998 --    23 C    0.965
    43   1 H    0.999 --    23 C    0.983
 ---------------------------------------------------------------------------

           -------------------------------------------------
          | TOTAL ENERGY              -83.883182588520 Eh   |
          | GRADIENT NORM               0.000923841869 Eh/α |
          | HOMO-LUMO GAP               0.787221081139 eV   |
           -------------------------------------------------

 * finished run on 2023/06/20 at 15:00:29.015
