   * xtb version 6.5.1 (579679a) compiled by 'ehlert@majestix' on 2022-07-11
          program call               : /lustre/hpc/kemi/ree/PhD/git/ReactivityQM/dep/xtb-6.5.1/bin/xtb --gfn 1 /lustre/hpc/kemi/ree/PhD/git/ReactivityQM/calculations/R02deprot/reac01prodN05/conf09/R02deprot_reac01prodN05_conf09_gfn1.xyz --opt --vfukui --chrg 0 --uhf 0 --alpb DMSO

   ID    Z sym.   atoms
    1    6 C      1, 3, 5, 7-10, 12, 14, 17, 18, 21, 23, 25
    2    8 O      2, 4, 13, 19, 22, 24
    3    7 N      6, 11, 15, 16, 20
    4    1 H      26-42

      * Solvation model:               ALPB
        Solvent                        DMSO
        Solvent mass                       7.8130E+01 g/mol
          :  Hamiltonian                  GFN1-xTB          :
 * total energy  :   -82.9187114 Eh     change       -0.1604405E-10 Eh
 * total energy  :   -82.9351039 Eh     change       -0.1639253E-01 Eh
 * total energy  :   -82.9413466 Eh     change       -0.6242640E-02 Eh
 * total energy  :   -82.9428748 Eh     change       -0.1528221E-02 Eh
 * total energy  :   -82.9438463 Eh     change       -0.9714783E-03 Eh
 * total energy  :   -82.9444022 Eh     change       -0.5559060E-03 Eh
 * total energy  :   -82.9450241 Eh     change       -0.6219489E-03 Eh
 * total energy  :   -82.9453527 Eh     change       -0.3286004E-03 Eh
 * total energy  :   -82.9456473 Eh     change       -0.2946107E-03 Eh
 * total energy  :   -82.9458243 Eh     change       -0.1769983E-03 Eh
 * total energy  :   -82.9477887 Eh     change       -0.7716701E-05 Eh
 * total energy  :   -82.9477968 Eh     change       -0.8129419E-05 Eh
 * total energy  :   -82.9478059 Eh     change       -0.9144164E-05 Eh
 * total energy  :   -82.9478161 Eh     change       -0.1017369E-04 Eh
 * total energy  :   -82.9478269 Eh     change       -0.1075870E-04 Eh
 * total energy  :   -82.9478379 Eh     change       -0.1107868E-04 Eh
 * total energy  :   -82.9478489 Eh     change       -0.1100267E-04 Eh
 * total energy  :   -82.9478598 Eh     change       -0.1085081E-04 Eh
 * total energy  :   -82.9478637 Eh     change       -0.3930148E-05 Eh
   *** GEOMETRY OPTIMIZATION CONVERGED AFTER 68 ITERATIONS ***

 final structure:
================
42
 xtb: 6.5.1 (579679a)
C            6.10757803652319        1.87478676747817       -0.17439211713811
O            4.91474086404925        1.12373037632077        0.12697719272388
C            3.81605174520581        1.44264876289283       -0.58942390180458
O            3.81923123579363        2.29496642346109       -1.43603029044128
C            2.62397091731708        0.62375388888487       -0.20220935984164
N            1.49258799097773        0.94971364125913       -0.84162110144255
C            0.38658754919397        0.28386171992049       -0.49972506805219
C           -0.87141918507862        0.69435279776192       -1.24820421696853
C           -1.02542416736927        2.21985322423466       -1.20526360359733
C           -0.75936738876711        0.19564201307458       -2.69708088901140
N           -2.00186660239932        0.05351782561700       -0.58445458480550
C           -3.28340914419259        0.20166265510194       -0.94888420437002
O           -3.68918268898771        0.87712801916814       -1.88218395477142
C           -4.18472088841549       -0.57005000607545       -0.04771149333894
N           -3.81802303958030       -1.31096286728566        0.95387793587554
N           -4.95741541651490       -1.81535406419064        1.50852978278149
C           -5.94601188293547       -1.34830828155937        0.80964348268041
C           -7.39068120905601       -1.59559235526357        1.01239924790537
O           -5.52373791598384       -0.55626372281182       -0.18751953955155
N            0.29041655285212       -0.67941059246368        0.38685950179959
C            1.40060910430565       -1.11050362797369        1.07026555142149
O            1.36776401093206       -2.03599732225498        1.88357315555342
C            2.60690911023845       -0.37776727479013        0.73846643055102
O            3.79206255831675       -0.72903560549482        1.48309371248652
C            4.29509142500741       -2.08693978885664        1.29630137986040
H            5.94742683034587        2.92639224897368        0.07024469271346
H            6.34540474171132        1.77124639270828       -1.23444509247018
H            6.89905135100212        1.45412970955952        0.43945924898236
H           -1.87399920696956        2.53375498917558       -1.81064576920115
H           -1.17684500445842        2.54990842502709       -0.17846843894899
H           -0.11817384940487        2.67929760787503       -1.59457678761058
H            0.13687164500400        0.61582857763224       -3.15063924792048
H           -0.68881981930845       -0.89108328649242       -2.71213499281017
H           -1.63148834250342        0.50548834952732       -3.27070578729722
H           -1.76869128268087       -0.55630379787812        0.19448123001919
H           -7.82435728855779       -2.03449052451316        0.11423863804931
H           -7.90504128737155       -0.65530300197728        1.21040653853498
H           -7.53098043626186       -2.27048024409762        1.85314635725833
H            4.50080680547283       -0.06852605008001        1.23552933727703
H            4.51712861318156       -2.25139710812383        0.24294162194584
H            3.51869753311751       -2.76262100101175        1.65169276139748
H            5.19066842625294       -2.16526989244399        1.90612064158702

          :  Hamiltonian                  GFN1-xTB          :
         :: total energy             -82.947863723090 Eh    ::
         :: gradient norm              0.000202637481 Eh/a0 ::
         :: HOMO-LUMO gap              2.373770309880 eV    ::
         :: SCC energy               -83.721376654528 Eh    ::
         :: -> Gsolv                  -0.070519417306 Eh    ::
         :: repulsion energy           0.798797783251 Eh    ::

    * Orbital Energies and Occupations

         #    Occupation            Energy/Eh            Energy/eV
      -------------------------------------------------------------
         1        2.0000           -0.8983309             -24.4448
       ...           ...                  ...                  ...
        55        2.0000           -0.4958332             -13.4923
        56        2.0000           -0.4943677             -13.4524
        57        2.0000           -0.4899456             -13.3321
        58        2.0000           -0.4789371             -13.0325
        59        2.0000           -0.4723832             -12.8542
        60        2.0000           -0.4696562             -12.7800
        61        2.0000           -0.4595396             -12.5047
        62        2.0000           -0.4555354             -12.3957
        63        2.0000           -0.4477634             -12.1843
        64        2.0000           -0.4389155             -11.9435
        65        2.0000           -0.4383772             -11.9288
        66        2.0000           -0.4208892             -11.4530
        67        2.0000           -0.4121781             -11.2159 (HOMO)
        68                         -0.3249436              -8.8422 (LUMO)
        69                         -0.3041502              -8.2763
        70                         -0.2686854              -7.3113
        71                         -0.2543184              -6.9204
        72                         -0.2311882              -6.2910
        73                         -0.1924530              -5.2369
        74                         -0.1651791              -4.4948
        75                         -0.1505056              -4.0955
        76                         -0.1443176              -3.9271
        77                         -0.1419719              -3.8633
        78                         -0.1412629              -3.8440
       ...                                ...                  ...
       134                          0.7385461              20.0969
      -------------------------------------------------------------
                  HL-Gap            0.0872345 Eh            2.3738 eV

Wiberg/Mayer (AO) data.
largest (>0.10) Wiberg bond orders for each atom

     #   Z sym  total        # sym  WBO       # sym  WBO       # sym  WBO
 ---------------------------------------------------------------------------
     1   6 C    3.847 --    28 H    0.986    27 H    0.979    26 H    0.979
                             2 O    0.868
     2   8 O    2.214 --     3 C    1.065     1 C    0.868     4 O    0.129
     3   6 C    3.834 --     4 O    1.710     2 O    1.065     5 C    0.981
     4   8 O    1.965 --     3 C    1.710     2 O    0.129
     5   6 C    3.977 --    23 C    1.470     6 N    1.317     3 C    0.981
     6   7 N    3.008 --     7 C    1.348     5 C    1.317
     7   6 C    3.948 --    20 N    1.470     6 N    1.348     8 C    0.979
     8   6 C    3.935 --     9 C    0.984     7 C    0.979    10 C    0.976
                            11 N    0.929
     9   6 C    3.991 --    30 H    0.986     8 C    0.984    31 H    0.983
                            29 H    0.982
    10   6 C    3.991 --    33 H    0.986    32 H    0.985    34 H    0.982
                             8 C    0.976
    11   7 N    3.370 --    12 C    1.282     8 C    0.929    35 H    0.876
                            13 O    0.184
    12   6 C    3.922 --    13 O    1.575    11 N    1.282    14 C    0.983
    13   8 O    1.894 --    12 C    1.575    11 N    0.184
    14   6 C    3.872 --    15 N    1.616    19 O    1.062    12 C    0.983
    15   7 N    3.012 --    14 C    1.616    16 N    1.195
    16   7 N    2.980 --    17 C    1.610    15 N    1.195
    17   6 C    3.873 --    16 N    1.610    19 O    1.081    18 C    1.031
    18   6 C    3.987 --    17 C    1.031    38 H    0.983    36 H    0.964
                            37 H    0.964
    19   8 O    2.327 --    17 C    1.081    14 C    1.062
    20   7 N    3.030 --     7 C    1.470    21 C    1.167    22 O    0.108
    21   6 C    3.930 --    22 O    1.524    20 N    1.167    23 C    1.126
    22   8 O    1.844 --    21 C    1.524    20 N    0.108
    23   6 C    3.779 --     5 C    1.470    21 C    1.126    24 O    0.822
    24   8 O    2.433 --    23 C    0.822    25 C    0.818    39 H    0.710
    25   6 C    3.794 --    40 H    0.984    42 H    0.981    41 H    0.973
                            24 O    0.818
    26   1 H    1.004 --     1 C    0.979
    27   1 H    1.004 --     1 C    0.979
    28   1 H    1.007 --     1 C    0.986
    29   1 H    1.011 --     9 C    0.982
    30   1 H    1.004 --     9 C    0.986
    31   1 H    1.014 --     9 C    0.983
    32   1 H    1.007 --    10 C    0.985
    33   1 H    1.004 --    10 C    0.986
    34   1 H    1.009 --    10 C    0.982
    35   1 H    0.974 --    11 N    0.876
    36   1 H    0.997 --    18 C    0.964
    37   1 H    0.997 --    18 C    0.964
    38   1 H    0.999 --    18 C    0.983
    39   1 H    0.818 --    24 O    0.710
    40   1 H    0.998 --    25 C    0.984
    41   1 H    1.016 --    25 C    0.973
    42   1 H    0.997 --    25 C    0.981
 ---------------------------------------------------------------------------

           -------------------------------------------------
          | TOTAL ENERGY              -82.947863723090 Eh   |
          | GRADIENT NORM               0.000202637481 Eh/α |
          | HOMO-LUMO GAP               2.373770309880 eV   |
           -------------------------------------------------

 * finished run on 2023/06/20 at 18:10:16.820
