   * xtb version 6.5.1 (579679a) compiled by 'ehlert@majestix' on 2022-07-11
          program call               : /lustre/hpc/kemi/ree/PhD/git/ReactivityQM/dep/xtb-6.5.1/bin/xtb --gfn 1 /lustre/hpc/kemi/ree/PhD/git/ReactivityQM/calculations/R01/reac01prodE01/conf04/R01_reac01prodE01_conf04_gfn1.xyz --opt --vfukui --chrg -1 --uhf 0 --alpb DMSO

   ID    Z sym.   atoms
    1    6 C      1, 3, 4, 6, 9, 10
    2    8 O      2, 5, 11
    3    7 N      7, 8
    4    1 H      12-20

      * Solvation model:               ALPB
        Solvent                        DMSO
        Solvent mass                       7.8130E+01 g/mol
          :  Hamiltonian                  GFN1-xTB          :
 * total energy  :   -38.3253655 Eh     change       -0.4192202E-11 Eh
 * total energy  :   -38.3322808 Eh     change       -0.6915299E-02 Eh
 * total energy  :   -38.3355983 Eh     change       -0.3317482E-02 Eh
 * total energy  :   -38.3360621 Eh     change       -0.4637485E-03 Eh
 * total energy  :   -38.3362042 Eh     change       -0.1421710E-03 Eh
 * total energy  :   -38.3362436 Eh     change       -0.3932641E-04 Eh
 * total energy  :   -38.3362780 Eh     change       -0.3438948E-04 Eh
 * total energy  :   -38.3362954 Eh     change       -0.1747379E-04 Eh
 * total energy  :   -38.3363025 Eh     change       -0.7072179E-05 Eh
 * total energy  :   -38.3363168 Eh     change       -0.1430658E-04 Eh
 * total energy  :   -38.3367578 Eh     change       -0.2710235E-04 Eh
 * total energy  :   -38.3367682 Eh     change       -0.1034814E-04 Eh
 * total energy  :   -38.3367684 Eh     change       -0.1929000E-06 Eh
 * total energy  :   -38.3367930 Eh     change       -0.2462774E-04 Eh
 * total energy  :   -38.3367985 Eh     change       -0.5485733E-05 Eh
 * total energy  :   -38.3368086 Eh     change       -0.1015502E-04 Eh
 * total energy  :   -38.3368173 Eh     change       -0.8660082E-05 Eh
 * total energy  :   -38.3368277 Eh     change       -0.1043077E-04 Eh
 * total energy  :   -38.3368324 Eh     change       -0.4688221E-05 Eh
   *** GEOMETRY OPTIMIZATION CONVERGED AFTER 43 ITERATIONS ***

 final structure:
================
20
 xtb: 6.5.1 (579679a)
C           -1.99931762643177        1.12058952622964        0.46771010571017
O           -1.78035809630083        0.89080017787615       -0.89760533765840
C           -1.10940274636756       -0.38236590089120       -1.32262056833345
C           -1.96635353495983       -1.57600224919829       -0.77466650695354
O           -0.89818815399047       -0.40699006055170       -2.59144368220373
C            0.25077872226272       -0.44291423944518       -0.52010301321947
N            0.85798830187880       -1.53105907222554       -0.15615486033529
N            2.10384340876137       -1.16195068334158        0.31478418681100
C            2.16673597372713        0.12173142828187        0.19547833529285
C            3.29257627374287        1.00628860665058        0.58311149998155
O            1.03986458281061        0.64110701094574       -0.32770638732469
H           -1.13634121484986        0.83243594997087        1.08627194331505
H           -2.16766409819233        2.19484722552168        0.60186813256404
H           -2.88441945509093        0.58756708357751        0.84665851428703
H           -2.02968220355824       -1.57175031602552        0.31112178324325
H           -2.96467135708725       -1.51302326658135       -1.20304363589589
H           -1.49433096056869       -2.50174649766896       -1.10026075962741
H            3.58801726151000        1.63736927887560       -0.25345490727403
H            4.13779452925274        0.40024383697339        0.89778506609126
H            2.99313139345149        1.65482016102641        1.40592309152969

          :  Hamiltonian                  GFN1-xTB          :
         :: total energy             -38.336832414595 Eh    ::
         :: gradient norm              0.000971647931 Eh/a0 ::
         :: HOMO-LUMO gap              3.281248319555 eV    ::
         :: SCC energy               -38.646003076756 Eh    ::
         :: -> Gsolv                  -0.108775372975 Eh    ::
         :: repulsion energy           0.317962231351 Eh    ::

    * Orbital Energies and Occupations

         #    Occupation            Energy/Eh            Energy/eV
      -------------------------------------------------------------
         1        2.0000           -0.8199848             -22.3129
       ...           ...                  ...                  ...
        19        2.0000           -0.5097067             -13.8698
        20        2.0000           -0.5040499             -13.7159
        21        2.0000           -0.4844281             -13.1820
        22        2.0000           -0.4783695             -13.0171
        23        2.0000           -0.4623537             -12.5813
        24        2.0000           -0.4567042             -12.4276
        25        2.0000           -0.4487968             -12.2124
        26        2.0000           -0.4377652             -11.9122
        27        2.0000           -0.4172691             -11.3545
        28        2.0000           -0.4158917             -11.3170
        29        2.0000           -0.4091550             -11.1337
        30        2.0000           -0.3657466              -9.9525
        31        2.0000           -0.3484862              -9.4828 (HOMO)
        32                         -0.2279026              -6.2015 (LUMO)
        33                         -0.2136476              -5.8136
        34                         -0.1302074              -3.5431
        35                         -0.1099265              -2.9913
        36                         -0.0898909              -2.4461
        37                         -0.0629487              -1.7129
        38                         -0.0622103              -1.6928
        39                         -0.0516956              -1.4067
        40                         -0.0436805              -1.1886
        41                         -0.0276698              -0.7529
        42                         -0.0200659              -0.5460
       ...                                ...                  ...
        62                          0.6041697              16.4403
      -------------------------------------------------------------
                  HL-Gap            0.1205837 Eh            3.2812 eV

Wiberg/Mayer (AO) data.
largest (>0.10) Wiberg bond orders for each atom

     #   Z sym  total        # sym  WBO       # sym  WBO       # sym  WBO
 ---------------------------------------------------------------------------
     1   6 C    3.939 --    13 H    0.981    14 H    0.979     2 O    0.979
                            12 H    0.976
     2   8 O    1.952 --     1 C    0.979     3 C    0.800
     3   6 C    3.897 --     5 O    1.251     4 C    0.933     6 C    0.863
                             2 O    0.800
     4   6 C    3.991 --    15 H    0.989    16 H    0.987    17 H    0.986
                             3 C    0.933
     5   8 O    1.534 --     3 C    1.251
     6   6 C    3.803 --     7 N    1.647    11 O    1.048     3 C    0.863
     7   7 N    2.966 --     6 C    1.647     8 N    1.150
     8   7 N    2.976 --     9 C    1.654     7 N    1.150
     9   6 C    3.888 --     8 N    1.654    11 O    1.067    10 C    1.024
    10   6 C    3.993 --     9 C    1.024    19 H    0.985    18 H    0.972
                            20 H    0.968
    11   8 O    2.301 --     9 C    1.067     6 C    1.048
    12   1 H    1.016 --     1 C    0.976
    13   1 H    1.022 --     1 C    0.981
    14   1 H    1.018 --     1 C    0.979
    15   1 H    1.009 --     4 C    0.989
    16   1 H    1.013 --     4 C    0.987
    17   1 H    1.022 --     4 C    0.986
    18   1 H    1.002 --    10 C    0.972
    19   1 H    1.003 --    10 C    0.985
    20   1 H    1.002 --    10 C    0.968
 ---------------------------------------------------------------------------

           -------------------------------------------------
          | TOTAL ENERGY              -38.336832414595 Eh   |
          | GRADIENT NORM               0.000971647931 Eh/α |
          | HOMO-LUMO GAP               3.281248319555 eV   |
           -------------------------------------------------

 * finished run on 2023/06/20 at 14:52:31.729
