   * xtb version 6.5.1 (579679a) compiled by 'ehlert@majestix' on 2022-07-11
          program call               : /lustre/hpc/kemi/ree/PhD/git/ReactivityQM/dep/xtb-6.5.1/bin/xtb --gfn 1 /lustre/hpc/kemi/ree/PhD/git/ReactivityQM/calculations/R03/reac02prodE02/conf07/R03_reac02prodE02_conf07_gfn1.xyz --opt --vfukui --chrg -1 --uhf 0 --alpb DMSO

   ID    Z sym.   atoms
    1    6 C      1, 3, 4, 6, 8-11, 13, 15, 18, 19, 22, 23, 25
    2    8 O      2, 5, 14, 20, 24, 26
    3    7 N      7, 12, 16, 17, 21
    4    1 H      27-46

      * Solvation model:               ALPB
        Solvent                        DMSO
        Solvent mass                       7.8130E+01 g/mol
          :  Hamiltonian                  GFN1-xTB          :
 * total energy  :   -87.0225129 Eh     change       -0.2492769E-08 Eh
 * total energy  :   -87.0367673 Eh     change       -0.1425438E-01 Eh
 * total energy  :   -87.0425833 Eh     change       -0.5816046E-02 Eh
 * total energy  :   -87.0439585 Eh     change       -0.1375196E-02 Eh
 * total energy  :   -87.0445286 Eh     change       -0.5700690E-03 Eh
 * total energy  :   -87.0447454 Eh     change       -0.2168431E-03 Eh
 * total energy  :   -87.0448853 Eh     change       -0.1398586E-03 Eh
 * total energy  :   -87.0450056 Eh     change       -0.1202828E-03 Eh
 * total energy  :   -87.0451183 Eh     change       -0.1126887E-03 Eh
 * total energy  :   -87.0452219 Eh     change       -0.1036424E-03 Eh
 * total energy  :   -87.0458724 Eh     change       -0.1368694E-04 Eh
 * total energy  :   -87.0459083 Eh     change       -0.3584203E-04 Eh
 * total energy  :   -87.0459298 Eh     change       -0.2146916E-04 Eh
 * total energy  :   -87.0459456 Eh     change       -0.1586654E-04 Eh
 * total energy  :   -87.0459625 Eh     change       -0.1691128E-04 Eh
 * total energy  :   -87.0459882 Eh     change       -0.2561254E-04 Eh
 * total energy  :   -87.0459962 Eh     change       -0.8021323E-05 Eh
 * total energy  :   -87.0460064 Eh     change       -0.1023608E-04 Eh
 * total energy  :   -87.0460112 Eh     change       -0.4749413E-05 Eh
   *** GEOMETRY OPTIMIZATION CONVERGED AFTER 34 ITERATIONS ***

 final structure:
================
46
 xtb: 6.5.1 (579679a)
C           -5.27954018447784        0.47106013964946        1.40184489812490
O           -5.08859933076427        0.93412049875963        0.09123101109421
C           -3.76322982615942        1.65042204923531       -0.10729143103064
C           -3.98772657780583        2.38988718163029       -1.47244878842050
O           -3.42050509197537        2.40705867511045        0.87138004616833
C           -2.73450864915880        0.46242568988957       -0.40073302055902
N           -1.60479697986880        0.48146608691830        0.36611597486937
C           -0.66468831723125       -0.39573928118308        0.24605787388761
C            0.50739979828002       -0.26677573253124        1.21516818947292
C            0.36002506358119        1.03404460831998        2.01844014088516
C            0.53336842454728       -1.46115016128210        2.17883024939517
N            1.74858448088483       -0.18007636301524        0.42882155082364
C            2.98377768619232       -0.15013418676144        0.97080440652882
O            3.25904218198420       -0.32782814266253        2.14392009408731
C            4.00437357732837        0.12024067275760       -0.07798940558354
N            3.76212027265655        0.37496744832755       -1.32870455863702
N            4.96871925454755        0.57412085023816       -1.93024847208651
C            5.86979683939179        0.42927339663811       -1.00680858545061
C            7.33695375350323        0.55046743663620       -1.15173404197323
O            5.32367314203746        0.14432276808351        0.18444986611093
N           -0.73483391737527       -1.40916364820168       -0.67870014592319
C            0.26800026413268       -2.45320604868754       -0.87473853912184
C           -1.84423592825836       -1.53025516813887       -1.50486769698014
O           -1.92908838171184       -2.44532770524260       -2.33337668733062
C           -2.86561317258509       -0.52853896359333       -1.33111926169857
O           -3.94255776438100       -0.66350602545979       -2.15559021646110
H           -6.33738027832970        0.21632889488439        1.52534812223478
H           -4.68069978415204       -0.43203885155234        1.61349165202428
H           -5.01665003424238        1.23741635799089        2.14932300121326
H           -4.39386773325696        1.72453081542502       -2.23052760491918
H           -4.68464397023301        3.20843960836705       -1.29746502384887
H           -3.03661415280703        2.79762116928060       -1.81073021453473
H           -0.56803634423201        1.01099195998402        2.58778261902513
H            1.19923307050702        1.13673522396706        2.70354503455311
H            0.33896020778547        1.89029990864371        1.34570423949996
H           -0.46228246448139       -1.59665815968324        2.59962478892423
H            1.23346011393047       -1.27651007597060        2.99110322682281
H            0.82797136279418       -2.37676175303673        1.67343614865734
H            1.66978809405746        0.10245969054458       -0.53777748110535
H            7.82656681955243       -0.33630929773512       -0.75133190044285
H            7.59147828021965        0.66845394249583       -2.20183839402948
H            7.69677883711815        1.41505612302717       -0.59359240861648
H           -0.06173597143307       -3.36953792249196       -0.38386374066236
H            0.35491940198960       -2.64136392535906       -1.94538010136373
H            1.23148460393827       -2.14782809307739       -0.48380263492730
H           -3.79463867603525       -1.44350369113725       -2.71576377869713

          :  Hamiltonian                  GFN1-xTB          :
         :: total energy             -87.046011156924 Eh    ::
         :: gradient norm              0.000853744040 Eh/a0 ::
         :: HOMO-LUMO gap              0.898615357607 eV    ::
         :: SCC energy               -87.844147343651 Eh    ::
         :: -> Gsolv                  -0.132018141360 Eh    ::
         :: repulsion energy           0.827466545074 Eh    ::

    * Orbital Energies and Occupations

         #    Occupation            Energy/Eh            Energy/eV
      -------------------------------------------------------------
         1        2.0000           -0.8621996             -23.4616
       ...           ...                  ...                  ...
        59        2.0000           -0.4624775             -12.5847
        60        2.0000           -0.4588159             -12.4850
        61        2.0000           -0.4579021             -12.4601
        62        2.0000           -0.4502902             -12.2530
        63        2.0000           -0.4430032             -12.0547
        64        2.0000           -0.4404608             -11.9855
        65        2.0000           -0.4384679             -11.9313
        66        2.0000           -0.4340936             -11.8123
        67        2.0000           -0.4162118             -11.3257
        68        2.0000           -0.4011364             -10.9155
        69        2.0000           -0.3929125             -10.6917
        70        2.0000           -0.3601178              -9.7993
        71        2.0000           -0.3411347              -9.2827 (HOMO)
        72                         -0.3081112              -8.3841 (LUMO)
        73                         -0.2736325              -7.4459
        74                         -0.2555549              -6.9540
        75                         -0.2476069              -6.7377
        76                         -0.1966506              -5.3511
        77                         -0.1417896              -3.8583
        78                         -0.1413093              -3.8452
        79                         -0.1330154              -3.6195
        80                         -0.1173844              -3.1942
        81                         -0.1083245              -2.9477
        82                         -0.1019192              -2.7734
       ...                                ...                  ...
       144                          0.7301979              19.8697
      -------------------------------------------------------------
                  HL-Gap            0.0330235 Eh            0.8986 eV

Wiberg/Mayer (AO) data.
largest (>0.10) Wiberg bond orders for each atom

     #   Z sym  total        # sym  WBO       # sym  WBO       # sym  WBO
 ---------------------------------------------------------------------------
     1   6 C    3.938 --    27 H    0.984    28 H    0.980     2 O    0.980
                            29 H    0.974
     2   8 O    1.941 --     1 C    0.980     3 C    0.776
     3   6 C    3.897 --     5 O    1.271     4 C    0.928     6 C    0.868
                             2 O    0.776
     4   6 C    3.991 --    32 H    0.989    30 H    0.988    31 H    0.986
                             3 C    0.928
     5   8 O    1.544 --     3 C    1.271
     6   6 C    3.912 --    25 C    1.516     7 N    1.207     3 C    0.868
     7   7 N    3.041 --     8 C    1.576     6 C    1.207
     8   6 C    3.937 --     7 N    1.576    21 N    1.162     9 C    0.973
     9   6 C    3.929 --    10 C    0.991    11 C    0.987     8 C    0.973
                            12 N    0.912
    10   6 C    3.991 --     9 C    0.991    35 H    0.985    34 H    0.984
                            33 H    0.983
    11   6 C    3.991 --     9 C    0.987    36 H    0.985    38 H    0.981
                            37 H    0.979
    12   7 N    3.352 --    13 C    1.252     9 C    0.912    39 H    0.897
                            14 O    0.177
    13   6 C    3.918 --    14 O    1.595    12 N    1.252    15 C    0.986
    14   8 O    1.911 --    13 C    1.595    12 N    0.177
    15   6 C    3.874 --    16 N    1.612    20 O    1.064    13 C    0.986
    16   7 N    3.018 --    15 C    1.612    17 N    1.198
    17   7 N    2.981 --    18 C    1.607    16 N    1.198
    18   6 C    3.871 --    17 N    1.607    20 O    1.082    19 C    1.031
    19   6 C    3.987 --    18 C    1.031    41 H    0.982    40 H    0.966
                            42 H    0.961
    20   8 O    2.330 --    18 C    1.082    15 C    1.064
    21   7 N    3.493 --     8 C    1.162    23 C    1.114    22 C    0.937
                            24 O    0.124
    22   6 C    3.934 --    45 H    0.979    43 H    0.977    44 H    0.976
                            21 N    0.937
    23   6 C    3.911 --    24 O    1.505    25 C    1.129    21 N    1.114
    24   8 O    1.853 --    23 C    1.505    21 N    0.124
    25   6 C    3.912 --     6 C    1.516    23 C    1.129    26 O    1.042
    26   8 O    2.032 --    25 C    1.042    46 H    0.828
    27   1 H    1.023 --     1 C    0.984
    28   1 H    1.018 --     1 C    0.980
    29   1 H    1.036 --     1 C    0.974
    30   1 H    1.019 --     4 C    0.988
    31   1 H    1.020 --     4 C    0.986
    32   1 H    1.016 --     4 C    0.989
    33   1 H    1.015 --    10 C    0.983
    34   1 H    1.007 --    10 C    0.984
    35   1 H    1.012 --    10 C    0.985
    36   1 H    1.003 --    11 C    0.985
    37   1 H    1.013 --    11 C    0.979
    38   1 H    1.003 --    11 C    0.981
    39   1 H    0.957 --    12 N    0.897
    40   1 H    0.997 --    19 C    0.966
    41   1 H    0.999 --    19 C    0.982
    42   1 H    0.997 --    19 C    0.961
    43   1 H    1.004 --    22 C    0.977
    44   1 H    1.011 --    22 C    0.976
    45   1 H    1.011 --    22 C    0.979
    46   1 H    0.871 --    26 O    0.828
 ---------------------------------------------------------------------------

           -------------------------------------------------
          | TOTAL ENERGY              -87.046011156924 Eh   |
          | GRADIENT NORM               0.000853744040 Eh/α |
          | HOMO-LUMO GAP               0.898615357607 eV   |
           -------------------------------------------------

 * finished run on 2023/06/20 at 15:15:46.833
