                         Program Version 5.0.1 -  RELEASE  -
|  1> # ORCA input file
|  2> ! SP r2SCAN-3c CPCM
|  3>
|  4> %maxcore 1875.0
|  5> %pal nprocs 4 end
|  6> %cpcm smd true SMDsolvent "DMSO" end
|  7>
|  8> *xyz 0 1
|  9> C      -3.553249    1.709921   -1.143007
| 10> O      -4.325495    0.859023   -0.298074
| 11> C      -3.881246   -0.227955    0.310726
| 12> O      -4.806417   -0.848406    1.014109
| 13> C      -6.139167   -0.334282    1.030315
| 14> C      -2.588961   -0.759019    0.272730
| 15> N      -1.631059   -0.061426   -0.460282
| 16> C      -0.434562   -0.502452   -0.543893
| 17> C       0.616329    0.219643   -1.361165
| 18> C       0.220529    1.676532   -1.609293
| 19> C       0.817018   -0.524935   -2.684747
| 20> N       1.883296    0.171418   -0.627262
| 21> C       1.978638    0.625130    0.642722
| 22> O       1.032879    0.986160    1.322675
| 23> C       3.368568    0.599401    1.159055
| 24> N       3.783736    0.919954    2.344633
| 25> N       5.131687    0.719515    2.357051
| 26> C       5.456217    0.288544    1.177948
| 27> C       6.800811   -0.073665    0.680598
| 28> O       4.386882    0.189082    0.371898
| 29> N      -0.028172   -1.679607    0.042410
| 30> C      -0.834942   -2.474294    0.809211
| 31> O      -0.413691   -3.501830    1.309725
| 32> C      -2.264786   -1.980380    0.973733
| 33> O      -3.041636   -2.632023    1.663486
| 34> H      -2.741450    2.176019   -0.582432
| 35> H      -4.245168    2.471165   -1.503491
| 36> H      -3.142264    1.149728   -1.983843
| 37> H      -6.152233    0.675867    1.444441
| 38> H      -6.715946   -1.008721    1.660896
| 39> H      -6.549758   -0.317669    0.018971
| 40> H      -0.672651    1.709953   -2.229787
| 41> H       1.029173    2.192685   -2.122441
| 42> H       0.016094    2.177504   -0.663690
| 43> H       1.578489   -0.024961   -3.279897
| 44> H      -0.117173   -0.535854   -3.243758
| 45> H       1.130608   -1.550557   -2.497586
| 46> H       2.723042   -0.003942   -1.151166
| 47> H       7.085433    0.591851   -0.134175
| 48> H       7.526066    0.007199    1.486677
| 49> H       6.790935   -1.091923    0.293207
| 50> H       0.923597   -1.982389   -0.096537
| 51> **                         ****END OF INPUT****

CARTESIAN COORDINATES (ANGSTROEM)
---------------------------------
  C     -3.553249    1.709921   -1.143007
  O     -4.325495    0.859023   -0.298074
  C     -3.881246   -0.227955    0.310726
  O     -4.806417   -0.848406    1.014109
  C     -6.139167   -0.334282    1.030315
  C     -2.588961   -0.759019    0.272730
  N     -1.631059   -0.061426   -0.460282
  C     -0.434562   -0.502452   -0.543893
  C      0.616329    0.219643   -1.361165
  C      0.220529    1.676532   -1.609293
  C      0.817018   -0.524935   -2.684747
  N      1.883296    0.171418   -0.627262
  C      1.978638    0.625130    0.642722
  O      1.032879    0.986160    1.322675
  C      3.368568    0.599401    1.159055
  N      3.783736    0.919954    2.344633
  N      5.131687    0.719515    2.357051
  C      5.456217    0.288544    1.177948
  C      6.800811   -0.073665    0.680598
  O      4.386882    0.189082    0.371898
  N     -0.028172   -1.679607    0.042410
  C     -0.834942   -2.474294    0.809211
  O     -0.413691   -3.501830    1.309725
  C     -2.264786   -1.980380    0.973733
  O     -3.041636   -2.632023    1.663486
  H     -2.741450    2.176019   -0.582432
  H     -4.245168    2.471165   -1.503491
  H     -3.142264    1.149728   -1.983843
  H     -6.152233    0.675867    1.444441
  H     -6.715946   -1.008721    1.660896
  H     -6.549758   -0.317669    0.018971
  H     -0.672651    1.709953   -2.229787
  H      1.029173    2.192685   -2.122441
  H      0.016094    2.177504   -0.663690
  H      1.578489   -0.024961   -3.279897
  H     -0.117173   -0.535854   -3.243758
  H      1.130608   -1.550557   -2.497586
  H      2.723042   -0.003942   -1.151166
  H      7.085433    0.591851   -0.134175
  H      7.526066    0.007199    1.486677
  H      6.790935   -1.091923    0.293207
  H      0.923597   -1.982389   -0.096537

 Total Charge           Charge          ....    0
 Multiplicity           Mult            ....    1
 Number of Electrons    NEL             ....  184
 Basis Dimension        Dim             ....  615

ORBITAL ENERGIES
----------------

  NO   OCC          E(Eh)            E(eV)
   0   2.0000     -19.066082      -518.8145
   1   2.0000     -19.023815      -517.6643
   2   2.0000     -19.017242      -517.4855
   3   2.0000     -18.938567      -515.3446
   4   2.0000     -18.925825      -514.9979
   5   2.0000     -18.915361      -514.7131
   6   2.0000     -14.209663      -386.6646
   7   2.0000     -14.206510      -386.5788
   8   2.0000     -14.202396      -386.4669
   9   2.0000     -14.198172      -386.3519
  10   2.0000     -14.152309      -385.1039
  11   2.0000     -10.185287      -277.1557
  12   2.0000     -10.159135      -276.4441
  13   2.0000     -10.148292      -276.1491
  14   2.0000     -10.144129      -276.0358
  15   2.0000     -10.134375      -275.7704
  16   2.0000     -10.109025      -275.0806
  17   2.0000     -10.106166      -275.0028
  18   2.0000     -10.099978      -274.8344
  19   2.0000     -10.083602      -274.3888
  20   2.0000     -10.081851      -274.3411
  21   2.0000     -10.070436      -274.0305
  22   2.0000     -10.046145      -273.3695
  23   2.0000     -10.027675      -272.8669
  24   2.0000     -10.018427      -272.6153
  25   2.0000      -1.156429       -31.4680
  26   2.0000      -1.109272       -30.1848
  27   2.0000      -1.035009       -28.1640
  28   2.0000      -1.028118       -27.9765
  29   2.0000      -1.019570       -27.7439
  30   2.0000      -0.978474       -26.6256
  31   2.0000      -0.976822       -26.5807
  32   2.0000      -0.953143       -25.9363
  33   2.0000      -0.912952       -24.8427
  34   2.0000      -0.867057       -23.5938
  35   2.0000      -0.832799       -22.6616
  36   2.0000      -0.780602       -21.2413
  37   2.0000      -0.753623       -20.5071
  38   2.0000      -0.714710       -19.4482
  39   2.0000      -0.707330       -19.2474
  40   2.0000      -0.688785       -18.7428
  41   2.0000      -0.668649       -18.1949
  42   2.0000      -0.664862       -18.0918
  43   2.0000      -0.645972       -17.5778
  44   2.0000      -0.620118       -16.8743
  45   2.0000      -0.603154       -16.4127
  46   2.0000      -0.585003       -15.9187
  47   2.0000      -0.558850       -15.2071
  48   2.0000      -0.551571       -15.0090
  49   2.0000      -0.534355       -14.5405
  50   2.0000      -0.529817       -14.4170
  51   2.0000      -0.515399       -14.0247
  52   2.0000      -0.500998       -13.6328
  53   2.0000      -0.495590       -13.4857
  54   2.0000      -0.481258       -13.0957
  55   2.0000      -0.476996       -12.9797
  56   2.0000      -0.461628       -12.5615
  57   2.0000      -0.448378       -12.2010
  58   2.0000      -0.431337       -11.7373
  59   2.0000      -0.424673       -11.5559
  60   2.0000      -0.423483       -11.5235
  61   2.0000      -0.418712       -11.3937
  62   2.0000      -0.413851       -11.2615
  63   2.0000      -0.409250       -11.1363
  64   2.0000      -0.405820       -11.0429
  65   2.0000      -0.401229       -10.9180
  66   2.0000      -0.393832       -10.7167
  67   2.0000      -0.388044       -10.5592
  68   2.0000      -0.383268       -10.4293
  69   2.0000      -0.382167       -10.3993
  70   2.0000      -0.376514       -10.2455
  71   2.0000      -0.361884        -9.8474
  72   2.0000      -0.359273        -9.7763
  73   2.0000      -0.353378        -9.6159
  74   2.0000      -0.345552        -9.4029
  75   2.0000      -0.338625        -9.2145
  76   2.0000      -0.337294        -9.1782
  77   2.0000      -0.334453        -9.1009
  78   2.0000      -0.331827        -9.0295
  79   2.0000      -0.323728        -8.8091
  80   2.0000      -0.320795        -8.7293
  81   2.0000      -0.315429        -8.5833
  82   2.0000      -0.289875        -7.8879
  83   2.0000      -0.269095        -7.3225
  84   2.0000      -0.266967        -7.2645
  85   2.0000      -0.263696        -7.1755
  86   2.0000      -0.261675        -7.1205
  87   2.0000      -0.254398        -6.9225
  88   2.0000      -0.247468        -6.7340
  89   2.0000      -0.233191        -6.3454
  90   2.0000      -0.197850        -5.3838
  91   2.0000      -0.187347        -5.0980
  92   0.0000      -0.091483        -2.4894
  93   0.0000      -0.088920        -2.4196
  94   0.0000      -0.022510        -0.6125
  95   0.0000      -0.020625        -0.5612
  96   0.0000       0.006308         0.1717

MULLIKEN ATOMIC CHARGES
-----------------------
   0 C :   -0.328998
   1 O :   -0.158952
   2 C :    0.282424
   3 O :   -0.127344
   4 C :   -0.315583
   5 C :   -0.108157
   6 N :   -0.111015
   7 C :    0.168966
   8 C :    0.116219
   9 C :   -0.626828
  10 C :   -0.542347
  11 N :   -0.190495
  12 C :   -0.127873
  13 O :   -0.419215
  14 C :    0.437594
  15 N :   -0.172568
  16 N :   -0.281895
  17 C :    0.396736
  18 C :   -0.632496
  19 O :   -0.057297
  20 N :   -0.032027
  21 C :    0.037886
  22 O :   -0.378221
  23 C :    0.046608
  24 O :   -0.347382
  25 H :    0.185503
  26 H :    0.172892
  27 H :    0.184364
  28 H :    0.181658
  29 H :    0.183466
  30 H :    0.182122
  31 H :    0.185572
  32 H :    0.185360
  33 H :    0.198522
  34 H :    0.188550
  35 H :    0.196317
  36 H :    0.188159
  37 H :    0.319442
  38 H :    0.202854
  39 H :    0.205352
  40 H :    0.200011
  41 H :    0.312111
Sum of atomic charges:    0.0000000

LOEWDIN ATOMIC CHARGES
----------------------
   0 C :   -0.012305
   1 O :   -0.562324
   2 C :    0.477283
   3 O :   -0.545591
   4 C :   -0.019985
   5 C :    0.136731
   6 N :   -0.600886
   7 C :    0.336721
   8 C :    0.105029
   9 C :   -0.343976
  10 C :   -0.339494
  11 N :   -0.579060
  12 C :    0.380823
  13 O :   -0.433989
  14 C :    0.414029
  15 N :   -0.332884
  16 N :   -0.359174
  17 C :    0.379653
  18 C :   -0.316546
  19 O :   -0.391828
  20 N :   -0.468256
  21 C :    0.367854
  22 O :   -0.437760
  23 C :    0.275774
  24 O :   -0.486381
  25 H :    0.189705
  26 H :    0.182725
  27 H :    0.190135
  28 H :    0.185855
  29 H :    0.190013
  30 H :    0.186191
  31 H :    0.174735
  32 H :    0.169639
  33 H :    0.180399
  34 H :    0.173888
  35 H :    0.178025
  36 H :    0.174269
  37 H :    0.300275
  38 H :    0.192671
  39 H :    0.191325
  40 H :    0.191494
  41 H :    0.305196

  Mayer bond orders larger than 0.100000
B(  0-C ,  1-O ) :   0.8526 B(  0-C , 25-H ) :   0.9410 B(  0-C , 26-H ) :   0.9556
B(  0-C , 27-H ) :   0.9439 B(  1-O ,  2-C ) :   1.2252 B(  2-C ,  3-O ) :   1.2711
B(  2-C ,  5-C ) :   1.3026 B(  3-O ,  4-C ) :   0.8144 B(  4-C , 28-H ) :   0.9513
B(  4-C , 29-H ) :   0.9605 B(  4-C , 30-H ) :   0.9517 B(  5-C ,  6-N ) :   0.9626
B(  5-C , 23-C ) :   1.0019 B(  5-C , 24-O ) :  -0.1014 B(  6-N ,  7-C ) :   1.7502
B(  7-C ,  8-C ) :   0.7940 B(  7-C , 20-N ) :   0.9776 B(  8-C ,  9-C ) :   0.8837
B(  8-C , 10-C ) :   0.9586 B(  8-C , 11-N ) :   0.7728 B(  9-C , 31-H ) :   0.9561
B(  9-C , 32-H ) :   0.9748 B(  9-C , 33-H ) :   0.9662 B( 10-C , 34-H ) :   0.9626
B( 10-C , 35-H ) :   0.9675 B( 10-C , 36-H ) :   0.9511 B( 11-N , 12-C ) :   1.1661
B( 11-N , 37-H ) :   0.8910 B( 12-C , 13-O ) :   1.8794 B( 12-C , 14-C ) :   0.7853
B( 13-O , 14-C ) :  -0.1016 B( 14-C , 15-N ) :   1.7245 B( 14-C , 17-C ) :   0.1188
B( 14-C , 19-O ) :   1.0719 B( 15-N , 16-N ) :   1.2698 B( 16-N , 17-C ) :   1.6227
B( 17-C , 18-C ) :   0.8267 B( 17-C , 19-O ) :   1.0666 B( 18-C , 38-H ) :   0.9389
B( 18-C , 39-H ) :   0.9895 B( 18-C , 40-H ) :   0.9458 B( 20-N , 21-C ) :   1.0255
B( 20-N , 41-H ) :   0.8820 B( 21-C , 22-O ) :   2.0740 B( 21-C , 23-C ) :   0.8580
B( 23-C , 24-O ) :   1.9553

Dispersion correction           -0.019112320
FINAL SINGLE POINT ENERGY     -1268.618792504137

DIPOLE MOMENT
-------------
                                X             Y             Z
Electronic contribution:      2.83237      -7.99084      13.40553
Nuclear contribution   :     -1.79262      10.38775     -19.03528
                        -----------------------------------------
Total Dipole Moment    :      1.03975       2.39690      -5.62975
                        -----------------------------------------
Magnitude (a.u.)       :      6.20647
Magnitude (Debye)      :     15.77559

Rotational constants in cm-1:     0.015257     0.003654     0.003395
Rotational constants in MHz :   457.389793   109.533873   101.776673

                             ****ORCA TERMINATED NORMALLY****
TOTAL RUN TIME: 0 days 0 hours 1 minutes 57 seconds 135 msec
