   * xtb version 6.5.1 (579679a) compiled by 'ehlert@majestix' on 2022-07-11
          program call               : /lustre/hpc/kemi/ree/PhD/git/ReactivityQM/dep/xtb-6.5.1/bin/xtb --gfn 1 /lustre/hpc/kemi/ree/PhD/git/ReactivityQM/calculations/R02methylcation/reac01prodN04/conf19/R02methylcation_reac01prodN04_conf19_gfn1.xyz --opt --vfukui --chrg 0 --uhf 0 --alpb DMSO

   ID    Z sym.   atoms
    1    6 C      1, 3, 5, 6, 8-11, 13, 15, 18, 19, 22, 24
    2    8 O      2, 4, 14, 20, 23, 25
    3    7 N      7, 12, 16, 17, 21
    4    1 H      26-42

      * Solvation model:               ALPB
        Solvent                        DMSO
        Solvent mass                       7.8130E+01 g/mol
          :  Hamiltonian                  GFN1-xTB          :
 * total energy  :   -82.9724057 Eh     change       -0.1077183E-10 Eh
 * total energy  :   -82.9886076 Eh     change       -0.1620184E-01 Eh
 * total energy  :   -82.9942549 Eh     change       -0.5647305E-02 Eh
 * total energy  :   -82.9958591 Eh     change       -0.1604190E-02 Eh
 * total energy  :   -82.9969651 Eh     change       -0.1106068E-02 Eh
 * total energy  :   -82.9976771 Eh     change       -0.7119913E-03 Eh
 * total energy  :   -82.9982530 Eh     change       -0.5759223E-03 Eh
 * total energy  :   -82.9986940 Eh     change       -0.4409355E-03 Eh
 * total energy  :   -82.9989372 Eh     change       -0.2432293E-03 Eh
 * total energy  :   -82.9990565 Eh     change       -0.1193143E-03 Eh
 * total energy  :   -83.0005556 Eh     change       -0.2126768E-04 Eh
 * total energy  :   -83.0005846 Eh     change       -0.2907757E-04 Eh
 * total energy  :   -83.0006146 Eh     change       -0.2994875E-04 Eh
 * total energy  :   -83.0006281 Eh     change       -0.1348823E-04 Eh
 * total energy  :   -83.0006525 Eh     change       -0.2440804E-04 Eh
 * total energy  :   -83.0006849 Eh     change       -0.3241355E-04 Eh
 * total energy  :   -83.0006977 Eh     change       -0.1280525E-04 Eh
 * total energy  :   -83.0007154 Eh     change       -0.1765874E-04 Eh
 * total energy  :   -83.0007198 Eh     change       -0.4447084E-05 Eh
   *** GEOMETRY OPTIMIZATION CONVERGED AFTER 44 ITERATIONS ***

 final structure:
================
42
 xtb: 6.5.1 (579679a)
C           -3.55324934649320        1.70992073693825       -1.14300716710778
O           -4.32549528533950        0.85902306850484       -0.29807367214404
C           -3.88124603220487       -0.22795475988874        0.31072562476993
O           -4.80641652313286       -0.84840636404651        1.01410870642248
C           -6.13916703992623       -0.33428221238843        1.03031458276769
C           -2.58896119832535       -0.75901946307068        0.27273048584825
N           -1.63105880609583       -0.06142554649320       -0.46028157945399
C           -0.43456185916154       -0.50245179085490       -0.54389260452233
C            0.61632909181554        0.21964255784544       -1.36116490662810
C            0.22052857592091        1.67653198578034       -1.60929283531184
C            0.81701768389703       -0.52493523681105       -2.68474699584037
N            1.88329590912153        0.17141775644033       -0.62726191021265
C            1.97863808744877        0.62512976333609        0.64272213553943
O            1.03287928332822        0.98616047259012        1.32267450382123
C            3.36856842189563        0.59940093118179        1.15905475154820
N            3.78373606298207        0.91995432987503        2.34463310236073
N            5.13168699818918        0.71951481217259        2.35705055162653
C            5.45621682325356        0.28854374459834        1.17794846419110
C            6.80081142024979       -0.07366477905492        0.68059832947921
O            4.38688230622527        0.18908153413417        0.37189800733318
N           -0.02817162937980       -1.67960672741300        0.04240950456175
C           -0.83494179065829       -2.47429440640935        0.80921068579708
O           -0.41369130274941       -3.50182993014831        1.30972532474780
C           -2.26478645673735       -1.98038037317922        0.97373336528297
O           -3.04163623770761       -2.63202284056364        1.66348625402717
H           -2.74144986208164        2.17601932378241       -0.58243243950118
H           -4.24516826895442        2.47116511717024       -1.50349093631692
H           -3.14226389007793        1.14972832310928       -1.98384281647636
H           -6.15223304822960        0.67586700881038        1.44444090591123
H           -6.71594647010943       -1.00872132396333        1.66089583428702
H           -6.54975841635928       -0.31766858510616        0.01897138664411
H           -0.67265089814871        1.70995282268327       -2.22978684846829
H            1.02917311548382        2.19268509776038       -2.12244077429644
H            0.01609398064088        2.17750384430764       -0.66369009824474
H            1.57848856871793       -0.02496095274955       -3.27989673616894
H           -0.11717321173912       -0.53585400874094       -3.24375839406866
H            1.13060761977098       -1.55055739650877       -2.49758615275569
H            2.72304175333357       -0.00394187756047       -1.15116629671715
H            7.08543335933000        0.59185062509315       -0.13417518110955
H            7.52606610992179        0.00719932475499        1.48667651990890
H            6.79093493262638       -1.09192337803742        0.29320684188466
H            0.92359746945415       -1.98238922788341       -0.09653652342492

          :  Hamiltonian                  GFN1-xTB          :
         :: total energy             -83.000719809947 Eh    ::
         :: gradient norm              0.000445468606 Eh/a0 ::
         :: HOMO-LUMO gap              2.367211797013 eV    ::
         :: SCC energy               -83.781302537466 Eh    ::
         :: -> Gsolv                  -0.073929539425 Eh    ::
         :: repulsion energy           0.807031573762 Eh    ::

    * Orbital Energies and Occupations

         #    Occupation            Energy/Eh            Energy/eV
      -------------------------------------------------------------
         1        2.0000           -0.8649339             -23.5360
       ...           ...                  ...                  ...
        55        2.0000           -0.5062357             -13.7754
        56        2.0000           -0.5046434             -13.7320
        57        2.0000           -0.4991988             -13.5839
        58        2.0000           -0.4928997             -13.4125
        59        2.0000           -0.4799855             -13.0611
        60        2.0000           -0.4756390             -12.9428
        61        2.0000           -0.4673044             -12.7160
        62        2.0000           -0.4612680             -12.5517
        63        2.0000           -0.4531093             -12.3297
        64        2.0000           -0.4517361             -12.2924
        65        2.0000           -0.4447566             -12.1024
        66        2.0000           -0.4183373             -11.3835
        67        2.0000           -0.4120045             -11.2112 (HOMO)
        68                         -0.3250110              -8.8440 (LUMO)
        69                         -0.3110964              -8.4654
        70                         -0.2702962              -7.3551
        71                         -0.2560755              -6.9682
        72                         -0.2454652              -6.6794
        73                         -0.1984483              -5.4001
        74                         -0.1533896              -4.1739
        75                         -0.1513605              -4.1187
        76                         -0.1425840              -3.8799
        77                         -0.1409213              -3.8347
        78                         -0.1319366              -3.5902
       ...                                ...                  ...
       134                          0.7555706              20.5601
      -------------------------------------------------------------
                  HL-Gap            0.0869934 Eh            2.3672 eV

Wiberg/Mayer (AO) data.
largest (>0.10) Wiberg bond orders for each atom

     #   Z sym  total        # sym  WBO       # sym  WBO       # sym  WBO
 ---------------------------------------------------------------------------
     1   6 C    3.854 --    27 H    0.981    26 H    0.976    28 H    0.976
                             2 O    0.883
     2   8 O    2.222 --     3 C    1.129     1 C    0.883
     3   6 C    3.833 --     6 C    1.339     4 O    1.150     2 O    1.129
     4   8 O    2.236 --     3 C    1.150     5 C    0.890
     5   6 C    3.863 --    30 H    0.984    29 H    0.978    31 H    0.978
                             4 O    0.890
     6   6 C    3.924 --     3 C    1.339    24 C    1.163     7 N    1.106
     7   7 N    3.044 --     8 C    1.655     6 C    1.106
     8   6 C    3.931 --     7 N    1.655    21 N    1.105     9 C    0.976
     9   6 C    3.937 --    10 C    0.991    11 C    0.985     8 C    0.976
                            12 N    0.925
    10   6 C    3.989 --     9 C    0.991    33 H    0.985    32 H    0.983
                            34 H    0.981
    11   6 C    3.988 --     9 C    0.985    36 H    0.984    37 H    0.984
                            35 H    0.982
    12   7 N    3.341 --    13 C    1.248     9 C    0.925    38 H    0.891
                            14 O    0.174
    13   6 C    3.917 --    14 O    1.590    12 N    1.248    15 C    0.994
    14   8 O    1.892 --    13 C    1.590    12 N    0.174
    15   6 C    3.872 --    16 N    1.622    20 O    1.047    13 C    0.994
    16   7 N    3.000 --    15 C    1.622    17 N    1.199
    17   7 N    2.981 --    18 C    1.610    16 N    1.199
    18   6 C    3.868 --    17 N    1.610    20 O    1.074    19 C    1.032
    19   6 C    3.986 --    18 C    1.032    40 H    0.982    41 H    0.964
                            39 H    0.961
    20   8 O    2.317 --    18 C    1.074    15 C    1.047
    21   7 N    3.440 --    22 C    1.166     8 C    1.105    42 H    0.887
                            23 O    0.139
    22   6 C    3.884 --    23 O    1.631    21 N    1.166    24 C    0.940
    23   8 O    1.909 --    22 C    1.631    21 N    0.139
    24   6 C    3.919 --    25 O    1.631     6 C    1.163    22 C    0.940
    25   8 O    1.916 --    24 C    1.631
    26   1 H    1.019 --     1 C    0.976
    27   1 H    1.008 --     1 C    0.981
    28   1 H    1.020 --     1 C    0.976
    29   1 H    1.006 --     5 C    0.978
    30   1 H    1.009 --     5 C    0.984
    31   1 H    1.005 --     5 C    0.978
    32   1 H    1.006 --    10 C    0.983
    33   1 H    1.001 --    10 C    0.985
    34   1 H    1.010 --    10 C    0.981
    35   1 H    0.996 --    11 C    0.982
    36   1 H    1.000 --    11 C    0.984
    37   1 H    0.999 --    11 C    0.984
    38   1 H    0.932 --    12 N    0.891
    39   1 H    0.996 --    19 C    0.961
    40   1 H    0.998 --    19 C    0.982
    41   1 H    0.996 --    19 C    0.964
    42   1 H    0.937 --    21 N    0.887
 ---------------------------------------------------------------------------

           -------------------------------------------------
          | TOTAL ENERGY              -83.000719809947 Eh   |
          | GRADIENT NORM               0.000445468606 Eh/α |
          | HOMO-LUMO GAP               2.367211797013 eV   |
           -------------------------------------------------

 * finished run on 2023/06/21 at 17:34:06.010
