   * xtb version 6.5.1 (579679a) compiled by 'ehlert@majestix' on 2022-07-11
          program call               : /lustre/hpc/kemi/ree/PhD/git/ReactivityQM/dep/xtb-6.5.1/bin/xtb --gfn 1 /lustre/hpc/kemi/ree/PhD/git/ReactivityQM/calculations/R02methylcation/reac01prodN14/conf04/R02methylcation_reac01prodN14_conf04_gfn1.xyz --opt --vfukui --chrg 0 --uhf 0 --alpb DMSO

   ID    Z sym.   atoms
    1    6 C      1, 3, 5, 6, 8, 9, 12-15, 17, 19, 22, 23
    2    8 O      2, 4, 7, 10, 18, 24
    3    7 N      11, 16, 20, 21, 25
    4    1 H      26-42

      * Solvation model:               ALPB
        Solvent                        DMSO
        Solvent mass                       7.8130E+01 g/mol
          :  Hamiltonian                  GFN1-xTB          :
 * total energy  :   -82.8922088 Eh     change       -0.4121148E-12 Eh
 * total energy  :   -82.9098956 Eh     change       -0.1768682E-01 Eh
 * total energy  :   -82.9198822 Eh     change       -0.9986533E-02 Eh
 * total energy  :   -82.9219605 Eh     change       -0.2078365E-02 Eh
 * total energy  :   -82.9234766 Eh     change       -0.1516076E-02 Eh
 * total energy  :   -82.9243062 Eh     change       -0.8296062E-03 Eh
 * total energy  :   -82.9251272 Eh     change       -0.8209825E-03 Eh
 * total energy  :   -82.9258599 Eh     change       -0.7326708E-03 Eh
 * total energy  :   -82.9265846 Eh     change       -0.7247617E-03 Eh
 * total energy  :   -82.9273217 Eh     change       -0.7370392E-03 Eh
 * total energy  :   -82.9759226 Eh     change       -0.2489134E-04 Eh
 * total energy  :   -82.9759354 Eh     change       -0.1282872E-04 Eh
 * total energy  :   -82.9759679 Eh     change       -0.3244982E-04 Eh
 * total energy  :   -82.9759836 Eh     change       -0.1574022E-04 Eh
 * total energy  :   -82.9760098 Eh     change       -0.2621372E-04 Eh
 * total energy  :   -82.9760193 Eh     change       -0.9455221E-05 Eh
 * total energy  :   -82.9760351 Eh     change       -0.1588686E-04 Eh
 * total energy  :   -82.9760429 Eh     change       -0.7708009E-05 Eh
 * total energy  :   -82.9760470 Eh     change       -0.4110892E-05 Eh
   *** GEOMETRY OPTIMIZATION CONVERGED AFTER 94 ITERATIONS ***

 final structure:
================
42
 xtb: 6.5.1 (579679a)
C           -6.72224274446365        0.31042825382980        0.85245412491361
O           -5.40966308189677        0.37691070538823        0.29223452340621
C           -4.48620112781348       -0.42611258514499        0.85051726296328
O           -4.73477871140786       -1.17258407877334        1.77556461326314
C           -3.17876165052816       -0.28207988948897        0.22573822077444
C           -2.85136064204979        0.53486852369669       -0.83654531296223
O           -3.31220641398089        1.34184953321157       -1.58518538866085
C           -0.50798054526850        1.46518824890780       -0.87725821894882
C           -0.60296138084528        2.09472511266622        0.46606377808859
O            0.05001845178701        1.90043291430010       -1.83600680723197
N           -1.23647203556904        0.19759474801326       -1.02094313406391
C           -1.04444001154600       -0.82273643583085        0.02932571704538
C            0.23309764768079       -1.60519451444026        0.15572810362954
C            0.27899144720424       -2.66613518563472       -0.95795623680844
C            0.26040413867244       -2.25602486011731        1.54372498633895
N            1.37521612010775       -0.70101590458214        0.00496366404365
C            2.66518062753456       -1.10923902500538        0.06924454860354
O            3.04339088380114       -2.23036458372808        0.34858147206310
C            3.57390804569608        0.02412617284733       -0.23641207508201
N            3.20362575305845        1.23418061815136       -0.53365112040847
N            4.34059603314027        1.95054594884385       -0.74990178622834
C            5.33366849935913        1.13178187878230       -0.57088624268528
C            6.77831566177961        1.42797475732649       -0.68530036949723
O            4.91276943483786       -0.09882152915253       -0.24392143002334
N           -2.11187568556307       -1.05345510888549        0.67501868139713
H           -7.12597379971115       -0.70067134831975        0.75389949889326
H           -7.33537958944263        1.01617488062268        0.29495729913421
H           -6.69702445393833        0.58650585381473        1.90987908134740
H            0.32163269963217        2.62947188050426        0.67384812875453
H           -0.80794082893760        1.36618652140763        1.24547722079992
H           -1.41592428877822        2.82254443660376        0.43510278359349
H           -1.08471203384795       -0.15492686632804       -1.96382189312286
H           -0.61130116619186       -3.28976812708554       -0.90529118950565
H            1.16216591291416       -3.29045341537721       -0.83451207751652
H            0.31985552983404       -2.17990477897467       -1.93069342868667
H            1.14049339818791       -2.88734377809996        1.64465831838693
H            0.27949400493173       -1.48475421319341        2.31207918974709
H           -0.63372021285879       -2.86387453032298        1.67332793410756
H            1.21527550212752        0.23564284752513       -0.33249934199383
H            7.26105122578359        1.30380106906606        0.28427208505235
H            6.91476338562828        2.45002073124284       -1.02988293537921
H            7.24700400093977        0.73758212173375       -1.38599224755547

          :  Hamiltonian                  GFN1-xTB          :
         :: total energy             -82.976046968746 Eh    ::
         :: gradient norm              0.000494050781 Eh/a0 ::
         :: HOMO-LUMO gap              2.624872117708 eV    ::
         :: SCC energy               -83.774553855123 Eh    ::
         :: -> Gsolv                  -0.056579470651 Eh    ::
         :: repulsion energy           0.825799207066 Eh    ::

    * Orbital Energies and Occupations

         #    Occupation            Energy/Eh            Energy/eV
      -------------------------------------------------------------
         1        2.0000           -0.8668495             -23.5882
       ...           ...                  ...                  ...
        55        2.0000           -0.5090747             -13.8526
        56        2.0000           -0.5077469             -13.8165
        57        2.0000           -0.5066182             -13.7858
        58        2.0000           -0.4956898             -13.4884
        59        2.0000           -0.4884557             -13.2916
        60        2.0000           -0.4859551             -13.2235
        61        2.0000           -0.4723638             -12.8537
        62        2.0000           -0.4689817             -12.7616
        63        2.0000           -0.4655383             -12.6679
        64        2.0000           -0.4624398             -12.5836
        65        2.0000           -0.4560101             -12.4087
        66        2.0000           -0.4526751             -12.3179
        67        2.0000           -0.4212098             -11.4617 (HOMO)
        68                         -0.3247475              -8.8368 (LUMO)
        69                         -0.3155551              -8.5867
        70                         -0.3056973              -8.3184
        71                         -0.2756276              -7.5002
        72                         -0.2596197              -7.0646
        73                         -0.2034015              -5.5348
        74                         -0.1685018              -4.5852
        75                         -0.1639093              -4.4602
        76                         -0.1579069              -4.2969
        77                         -0.1433391              -3.9005
        78                         -0.1429664              -3.8903
       ...                                ...                  ...
       134                          0.8538778              23.2352
      -------------------------------------------------------------
                  HL-Gap            0.0964623 Eh            2.6249 eV

Wiberg/Mayer (AO) data.
largest (>0.10) Wiberg bond orders for each atom

     #   Z sym  total        # sym  WBO       # sym  WBO       # sym  WBO
 ---------------------------------------------------------------------------
     1   6 C    3.878 --    27 H    0.986    28 H    0.981    26 H    0.981
                             2 O    0.904
     2   8 O    2.169 --     3 C    1.076     1 C    0.904     4 O    0.120
     3   6 C    3.864 --     4 O    1.617     5 C    1.078     2 O    1.076
     4   8 O    1.896 --     3 C    1.617     2 O    0.120
     5   6 C    3.885 --     6 C    1.362    25 N    1.109     3 C    1.078
                             7 O    0.140
     6   6 C    3.863 --     7 O    1.703     5 C    1.362    11 N    0.625
     7   8 O    2.053 --     6 C    1.703     5 C    0.140
     8   6 C    3.833 --    10 O    1.799     9 C    1.021    11 N    0.909
     9   6 C    3.984 --     8 C    1.021    30 H    0.976    29 H    0.965
                            31 H    0.935
    10   8 O    2.034 --     8 C    1.799
    11   7 N    3.543 --     8 C    0.909    12 C    0.873    32 H    0.868
                             6 C    0.625
    12   6 C    3.891 --    25 N    1.776    13 C    0.990    11 N    0.873
    13   6 C    3.933 --    12 C    0.990    15 C    0.986    14 C    0.968
                            16 N    0.923
    14   6 C    3.985 --    33 H    0.985    35 H    0.984    34 H    0.977
                            13 C    0.968
    15   6 C    3.986 --    13 C    0.986    37 H    0.985    38 H    0.984
                            36 H    0.980
    16   7 N    3.325 --    17 C    1.233    13 C    0.923    39 H    0.890
                            18 O    0.174
    17   6 C    3.914 --    18 O    1.607    16 N    1.233    19 C    0.991
    18   8 O    1.922 --    17 C    1.607    16 N    0.174
    19   6 C    3.876 --    20 N    1.606    24 O    1.066    17 C    0.991
    20   7 N    3.022 --    19 C    1.606    21 N    1.203
    21   7 N    2.981 --    22 C    1.602    20 N    1.203
    22   6 C    3.870 --    21 N    1.602    24 O    1.083    23 C    1.032
    23   6 C    3.986 --    22 C    1.032    41 H    0.982    42 H    0.965
                            40 H    0.961
    24   8 O    2.332 --    22 C    1.083    19 C    1.066
    25   7 N    3.059 --    12 C    1.776     5 C    1.109
    26   1 H    1.009 --     1 C    0.981
    27   1 H    1.012 --     1 C    0.986
    28   1 H    1.009 --     1 C    0.981
    29   1 H    0.995 --     9 C    0.965
    30   1 H    0.997 --     9 C    0.976
    31   1 H    0.990 --     9 C    0.935
    32   1 H    0.918 --    11 N    0.868
    33   1 H    1.000 --    14 C    0.985
    34   1 H    1.004 --    14 C    0.977
    35   1 H    1.000 --    14 C    0.984
    36   1 H    1.009 --    15 C    0.980
    37   1 H    1.003 --    15 C    0.985
    38   1 H    1.008 --    15 C    0.984
    39   1 H    0.960 --    16 N    0.890
    40   1 H    0.996 --    23 C    0.961
    41   1 H    0.998 --    23 C    0.982
    42   1 H    0.996 --    23 C    0.965
 ---------------------------------------------------------------------------

           -------------------------------------------------
          | TOTAL ENERGY              -82.976046968746 Eh   |
          | GRADIENT NORM               0.000494050781 Eh/α |
          | HOMO-LUMO GAP               2.624872117708 eV   |
           -------------------------------------------------

 * finished run on 2023/06/21 at 17:54:10.016
