   * xtb version 6.5.1 (579679a) compiled by 'ehlert@majestix' on 2022-07-11
          program call               : /lustre/hpc/kemi/ree/PhD/git/ReactivityQM/dep/xtb-6.5.1/bin/xtb --gfn 1 /lustre/hpc/kemi/ree/PhD/git/ReactivityQM/calculations/R02deprot/reac01prodE01/conf09/R02deprot_reac01prodE01_conf09_gfn1.xyz --opt --vfukui --chrg -2 --uhf 0 --alpb DMSO

   ID    Z sym.   atoms
    1    6 C      1, 3, 5, 7-10, 12, 13, 15, 18, 19, 22, 24
    2    8 O      2, 4, 14, 20, 23, 25
    3    7 N      6, 11, 16, 17, 21
    4    1 H      26-42

      * Solvation model:               ALPB
        Solvent                        DMSO
        Solvent mass                       7.8130E+01 g/mol
          :  Hamiltonian                  GFN1-xTB          :
 * total energy  :   -83.6125411 Eh     change       -0.5437073E-10 Eh
 * total energy  :   -83.6259966 Eh     change       -0.1345546E-01 Eh
 * total energy  :   -83.6303036 Eh     change       -0.4307012E-02 Eh
 * total energy  :   -83.6311231 Eh     change       -0.8195019E-03 Eh
 * total energy  :   -83.6316025 Eh     change       -0.4793989E-03 Eh
 * total energy  :   -83.6317999 Eh     change       -0.1974641E-03 Eh
 * total energy  :   -83.6318947 Eh     change       -0.9470812E-04 Eh
 * total energy  :   -83.6319276 Eh     change       -0.3289765E-04 Eh
 * total energy  :   -83.6319419 Eh     change       -0.1434335E-04 Eh
 * total energy  :   -83.6319517 Eh     change       -0.9845403E-05 Eh
 * total energy  :   -83.6319578 Eh     change       -0.6030722E-05 Eh
 * total energy  :   -83.6319640 Eh     change       -0.6259507E-05 Eh
 * total energy  :   -83.6319679 Eh     change       -0.3899899E-05 Eh
   *** GEOMETRY OPTIMIZATION CONVERGED AFTER 13 ITERATIONS ***

 final structure:
================
42
 xtb: 6.5.1 (579679a)
C           -6.24370364709250        0.17713300586084        0.96249912882034
O           -4.91284028549710        0.07460760552636        0.46813702025697
C           -4.71934777769836        0.47883056666158       -0.79787197188365
O           -5.64386826946118        0.91026820631718       -1.47689508899009
C           -3.33261834692430        0.35599232901188       -1.26217050675815
N           -2.41878059819008       -0.14414315818332       -0.38107663584633
C           -1.16721354408713       -0.22997223923911       -0.79560928882308
C           -0.14592995914140       -0.82626941083365        0.18413199717514
C           -0.10286706642533       -2.33876708714388       -0.12439307088245
C           -0.64490026790111       -0.60596535840642        1.62262136202206
N            1.11684301245729       -0.10964113056998       -0.02123931267397
C            2.43851101426912       -0.82596205434245        0.25259256091332
C            2.62460884380770       -0.94669196297055        1.80058003780378
O            2.64773311778658       -1.92901358911764       -0.41217680252497
C            3.45260548396752        0.29094041267143       -0.20985720655944
N            3.38656076546072        0.99391408817368       -1.29713012682502
N            4.55505760307952        1.72890670960069       -1.37994869046039
C            5.25046009687780        1.41464992585106       -0.34103155941713
C            6.58635130430302        1.93436496817309        0.04185820799361
O            4.62183027676810        0.51394448102045        0.44058208324960
N           -0.71642701309484        0.10256330729450       -2.00108905142445
C           -1.55714479114078        0.59800834474151       -2.94607126289690
O           -1.16383844867850        0.91494604979704       -4.08563356150646
C           -2.96148233052473        0.73807666690460       -2.53391951543958
O           -3.82858323835991        1.24642109766129       -3.44665009313237
H           -6.58178605207847        1.21649496765264        0.93637179795877
H           -6.23033947268480       -0.18477623369561        1.98888757793263
H           -6.92255239873810       -0.43173516578597        0.35962024498661
H            0.53651950315411       -2.86775113583434        0.58061639273397
H           -1.11363927875705       -2.74436047341271       -0.05081940549183
H            0.27512710287804       -2.50912990534628       -1.13266160236131
H           -1.68062797942189       -0.93355986908276        1.71506103430187
H           -0.59058549509491        0.45438026197752        1.87223924206457
H           -0.04603070137497       -1.16437812166125        2.33921952422347
H            1.15509830637028        0.12491398106826       -1.02336197295844
H            2.01714124041433       -1.76717373067221        2.17643735036733
H            3.66831969707420       -1.17776012766711        2.00859018634678
H            2.35243102507201       -0.02115013183868        2.30576548982928
H            6.53574827973496        2.42637640360396        1.01275821856437
H            7.30502660657168        1.11862988499101        0.11526405607077
H            6.92671405291328        2.64763837183577       -0.70479056613105
H           -4.72758237059193        1.29619824939491       -3.06750922060382

          :  Hamiltonian                  GFN1-xTB          :
         :: total energy             -83.631967934361 Eh    ::
         :: gradient norm              0.000731032046 Eh/a0 ::
         :: HOMO-LUMO gap              1.590867863992 eV    ::
         :: SCC energy               -84.356808274069 Eh    ::
         :: -> Gsolv                  -0.283158060164 Eh    ::
         :: repulsion energy           0.750672043578 Eh    ::

    * Orbital Energies and Occupations

         #    Occupation            Energy/Eh            Energy/eV
      -------------------------------------------------------------
         1        2.0000           -0.8134502             -22.1351
       ...           ...                  ...                  ...
        56        2.0000           -0.4372499             -11.8982
        57        2.0000           -0.4302440             -11.7075
        58        2.0000           -0.4277307             -11.6391
        59        2.0000           -0.4144316             -11.2773
        60        2.0000           -0.4072587             -11.0821
        61        2.0000           -0.4036699             -10.9844
        62        2.0000           -0.4010939             -10.9143
        63        2.0000           -0.3834722             -10.4348
        64        2.0000           -0.3584699              -9.7545
        65        2.0000           -0.3548209              -9.6552
        66        2.0000           -0.3530389              -9.6067
        67        2.0000           -0.3339728              -9.0879
        68        2.0000           -0.3294508              -8.9648 (HOMO)
        69                         -0.2709874              -7.3739 (LUMO)
        70                         -0.2210021              -6.0138
        71                         -0.2090145              -5.6876
        72                         -0.2030612              -5.5256
        73                         -0.1792584              -4.8779
        74                         -0.1281014              -3.4858
        75                         -0.1251567              -3.4057
        76                         -0.0951770              -2.5899
        77                         -0.0915672              -2.4917
        78                         -0.0768708              -2.0918
        79                         -0.0722780              -1.9668
       ...                                ...                  ...
       134                          0.7325164              19.9328
      -------------------------------------------------------------
                  HL-Gap            0.0584633 Eh            1.5909 eV

Wiberg/Mayer (AO) data.
largest (>0.10) Wiberg bond orders for each atom

     #   Z sym  total        # sym  WBO       # sym  WBO       # sym  WBO
 ---------------------------------------------------------------------------
     1   6 C    3.888 --    27 H    0.987    26 H    0.980    28 H    0.980
                             2 O    0.913
     2   8 O    2.188 --     3 C    1.089     1 C    0.913     4 O    0.116
     3   6 C    3.831 --     4 O    1.582     2 O    1.089     5 C    1.055
     4   8 O    1.911 --     3 C    1.582     2 O    0.116
     5   6 C    3.964 --    24 C    1.449     6 N    1.213     3 C    1.055
     6   7 N    2.992 --     7 C    1.440     5 C    1.213
     7   6 C    3.946 --     6 N    1.440    21 N    1.376     8 C    0.968
     8   6 C    3.970 --    10 C    0.994    11 N    0.979     9 C    0.972
                             7 C    0.968
     9   6 C    3.996 --    30 H    0.987    31 H    0.984    29 H    0.982
                             8 C    0.972
    10   6 C    3.996 --     8 C    0.994    33 H    0.987    32 H    0.983
                            34 H    0.983
    11   7 N    2.974 --     8 C    0.979    35 H    0.932    12 C    0.868
    12   6 C    3.938 --    14 O    1.202    13 C    0.943    15 C    0.872
                            11 N    0.868
    13   6 C    3.991 --    38 H    0.990    37 H    0.986    36 H    0.981
                            12 C    0.943
    14   8 O    1.534 --    12 C    1.202
    15   6 C    3.792 --    16 N    1.654    20 O    1.041    12 C    0.872
    16   7 N    2.970 --    15 C    1.654    17 N    1.147
    17   7 N    2.976 --    18 C    1.658    16 N    1.147
    18   6 C    3.889 --    17 N    1.658    20 O    1.062    19 C    1.023
    19   6 C    3.993 --    18 C    1.023    41 H    0.985    40 H    0.971
                            39 H    0.971
    20   8 O    2.289 --    18 C    1.062    15 C    1.041
    21   7 N    3.002 --     7 C    1.376    22 C    1.242    23 O    0.126
    22   6 C    3.932 --    23 O    1.479    21 N    1.242    24 C    1.077
    23   8 O    1.767 --    22 C    1.479    21 N    0.126
    24   6 C    3.901 --     5 C    1.449    22 C    1.077    25 O    1.062
    25   8 O    2.040 --    24 C    1.062    42 H    0.811
    26   1 H    1.011 --     1 C    0.980
    27   1 H    1.014 --     1 C    0.987
    28   1 H    1.011 --     1 C    0.980
    29   1 H    1.028 --     9 C    0.982
    30   1 H    1.011 --     9 C    0.987
    31   1 H    1.031 --     9 C    0.984
    32   1 H    1.028 --    10 C    0.983
    33   1 H    1.019 --    10 C    0.987
    34   1 H    1.013 --    10 C    0.983
    35   1 H    1.014 --    11 N    0.932
    36   1 H    1.019 --    13 C    0.981
    37   1 H    1.019 --    13 C    0.986
    38   1 H    1.015 --    13 C    0.990
    39   1 H    1.002 --    19 C    0.971
    40   1 H    1.002 --    19 C    0.971
    41   1 H    1.003 --    19 C    0.985
    42   1 H    0.880 --    25 O    0.811
 ---------------------------------------------------------------------------

           -------------------------------------------------
          | TOTAL ENERGY              -83.631967934361 Eh   |
          | GRADIENT NORM               0.000731032046 Eh/α |
          | HOMO-LUMO GAP               1.590867863992 eV   |
           -------------------------------------------------

 * finished run on 2023/06/20 at 17:32:30.760
