   * xtb version 6.5.1 (579679a) compiled by 'ehlert@majestix' on 2022-07-11
          program call               : /lustre/hpc/kemi/ree/PhD/git/ReactivityQM/dep/xtb-6.5.1/bin/xtb --gfn 1 /lustre/hpc/kemi/ree/PhD/git/ReactivityQM/calculations/R02oxygendeprot/reac01prodN05/conf19/R02oxygendeprot_reac01prodN05_conf19_gfn1.xyz --opt --vfukui --chrg 0 --uhf 0 --alpb DMSO

   ID    Z sym.   atoms
    1    6 C      1, 3, 5, 6, 8, 11-14, 16, 18, 21, 22, 25
    2    8 O      2, 4, 7, 9, 17, 23
    3    7 N      10, 15, 19, 20, 24
    4    1 H      26-42

      * Solvation model:               ALPB
        Solvent                        DMSO
        Solvent mass                       7.8130E+01 g/mol
          :  Hamiltonian                  GFN1-xTB          :
 * total energy  :   -82.9808198 Eh     change       -0.4013145E-10 Eh
 * total energy  :   -82.9926294 Eh     change       -0.1180958E-01 Eh
 * total energy  :   -82.9978802 Eh     change       -0.5250820E-02 Eh
 * total energy  :   -82.9995363 Eh     change       -0.1656120E-02 Eh
 * total energy  :   -83.0008014 Eh     change       -0.1265075E-02 Eh
 * total energy  :   -83.0015085 Eh     change       -0.7071059E-03 Eh
 * total energy  :   -83.0019211 Eh     change       -0.4126239E-03 Eh
 * total energy  :   -83.0021687 Eh     change       -0.2475658E-03 Eh
 * total energy  :   -83.0023160 Eh     change       -0.1472799E-03 Eh
 * total energy  :   -83.0024082 Eh     change       -0.9221858E-04 Eh
 * total energy  :   -83.0027380 Eh     change       -0.1900837E-04 Eh
 * total energy  :   -83.0027483 Eh     change       -0.1025633E-04 Eh
 * total energy  :   -83.0027575 Eh     change       -0.9229790E-05 Eh
 * total energy  :   -83.0027638 Eh     change       -0.6248505E-05 Eh
 * total energy  :   -83.0027693 Eh     change       -0.5560141E-05 Eh
 * total energy  :   -83.0027778 Eh     change       -0.8440005E-05 Eh
 * total energy  :   -83.0027851 Eh     change       -0.7367265E-05 Eh
 * total energy  :   -83.0027913 Eh     change       -0.6208747E-05 Eh
 * total energy  :   -83.0027959 Eh     change       -0.4604411E-05 Eh
   *** GEOMETRY OPTIMIZATION CONVERGED AFTER 27 ITERATIONS ***

 final structure:
================
42
 xtb: 6.5.1 (579679a)
C            4.55953112206637        2.98709258832602       -1.45612190935398
O            4.22197502598433        1.75861440843244       -0.81307467226217
C            2.92029345898732        1.45504307848236       -0.76821436798002
O            2.07996887454549        2.19395329604522       -1.25731170173903
C            2.63975245189999        0.20483150580571       -0.04952400851967
C            3.56815534983721       -0.31443524465152        0.89496908115445
O            4.70856797863282        0.10502865565134        1.09972184727542
C            3.07050651897843       -1.46729678641942        1.73014682092672
O            3.73046196811534       -2.08375834416670        2.54146642080786
N            1.73519064180407       -1.79242806194282        1.55079025213470
C            0.89882237756685       -1.29263241952584        0.61388545615037
C           -0.50759943090792       -1.88125157432102        0.59251962517410
C           -0.90686207340561       -2.43968141530621        1.96922579764616
C           -0.61447885993001       -3.00520836101420       -0.44513181814100
N           -1.46061988831392       -0.82416753132941        0.26344331768069
C           -1.49890105036239        0.31615289514061        0.99771333194205
O           -0.67755492902228        0.60468178528088        1.85092366880060
C           -2.61498575132055        1.20665106583102        0.61471179053204
N           -2.91642869095371        2.36738568887504        1.10791969068350
N           -4.00820646576590        2.81147462248611        0.42742854908471
C           -4.30720497099977        1.89537938023685       -0.44113131594557
C           -5.40584112348065        1.90217616643868       -1.43003699826554
O           -3.46359691767641        0.85243396714967       -0.37462239575974
N            1.36119609090638       -0.36689420974515       -0.19971027201950
C            0.58605869271169        0.03774939798945       -1.37837195154988
H            4.19952081627232        2.98494976225920       -2.48770673553623
H            4.11355093878705        3.83089590726376       -0.92322562650271
H            5.64533155147077        3.06179850459408       -1.43803720167652
H            1.41061211726380       -2.54642608686816        2.13520798608611
H           -0.70089380099762       -1.71546878101280        2.75578486282295
H           -1.97506696096577       -2.64640763291950        1.95273367432186
H           -0.38685287171903       -3.37190139012227        2.17909077360982
H            0.10753240504758       -3.78465412962897       -0.20828966942698
H           -1.61535371336340       -3.43028001789017       -0.40883365319024
H           -0.42603213952145       -2.64844997333399       -1.45459911023850
H           -2.24111663798880       -1.06294514193891       -0.32299627562386
H           -6.01275000494108        1.00456524572003       -1.31547033743516
H           -4.99346812561405        1.90097861298252       -2.43947978582626
H           -6.02352880504535        2.78625332172259       -1.28977332816038
H            0.05001766566702        0.96312928079612       -1.17546216590544
H            1.26929382954660        0.18286405172855       -2.21125581708621
H           -0.11899766380583       -0.73979708710542       -1.63967782870519

          :  Hamiltonian                  GFN1-xTB          :
         :: total energy             -83.002795947516 Eh    ::
         :: gradient norm              0.000605383752 Eh/a0 ::
         :: HOMO-LUMO gap              2.518708371645 eV    ::
         :: SCC energy               -83.784986778932 Eh    ::
         :: -> Gsolv                  -0.084344991743 Eh    ::
         :: repulsion energy           0.809994785362 Eh    ::

    * Orbital Energies and Occupations

         #    Occupation            Energy/Eh            Energy/eV
      -------------------------------------------------------------
         1        2.0000           -0.8698857             -23.6708
       ...           ...                  ...                  ...
        55        2.0000           -0.5100230             -13.8784
        56        2.0000           -0.5096479             -13.8682
        57        2.0000           -0.4932577             -13.4222
        58        2.0000           -0.4901070             -13.3365
        59        2.0000           -0.4885726             -13.2947
        60        2.0000           -0.4854226             -13.2090
        61        2.0000           -0.4757761             -12.9465
        62        2.0000           -0.4723252             -12.8526
        63        2.0000           -0.4666897             -12.6993
        64        2.0000           -0.4574413             -12.4476
        65        2.0000           -0.4552114             -12.3869
        66        2.0000           -0.4248972             -11.5620
        67        2.0000           -0.4133784             -11.2486 (HOMO)
        68                         -0.3208176              -8.7299 (LUMO)
        69                         -0.3192400              -8.6870
        70                         -0.3022319              -8.2241
        71                         -0.2603523              -7.0845
        72                         -0.2380360              -6.4773
        73                         -0.2060543              -5.6070
        74                         -0.1655346              -4.5044
        75                         -0.1472611              -4.0072
        76                         -0.1436565              -3.9091
        77                         -0.1428710              -3.8877
        78                         -0.1339991              -3.6463
       ...                                ...                  ...
       134                          0.7504155              20.4198
      -------------------------------------------------------------
                  HL-Gap            0.0925608 Eh            2.5187 eV

Wiberg/Mayer (AO) data.
largest (>0.10) Wiberg bond orders for each atom

     #   Z sym  total        # sym  WBO       # sym  WBO       # sym  WBO
 ---------------------------------------------------------------------------
     1   6 C    3.879 --    28 H    0.986    26 H    0.980    27 H    0.980
                             2 O    0.905
     2   8 O    2.199 --     3 C    1.101     1 C    0.905     4 O    0.120
     3   6 C    3.865 --     4 O    1.583     2 O    1.101     5 C    1.083
     4   8 O    1.895 --     3 C    1.583     2 O    0.120
     5   6 C    3.852 --     6 C    1.261     3 C    1.083    24 N    1.054
                             7 O    0.140
     6   6 C    3.945 --     7 O    1.568     5 C    1.261     8 C    0.954
     7   8 O    1.878 --     6 C    1.568     5 C    0.140
     8   6 C    3.868 --     9 O    1.656    10 N    1.093     6 C    0.954
     9   8 O    1.927 --     8 C    1.656    10 N    0.117
    10   7 N    3.456 --    11 C    1.206     8 C    1.093    29 H    0.879
                             9 O    0.117
    11   6 C    3.915 --    24 N    1.435    10 N    1.206    12 C    0.976
    12   6 C    3.938 --    13 C    0.985    14 C    0.982    11 C    0.976
                            15 N    0.937
    13   6 C    3.986 --    12 C    0.985    30 H    0.980    31 H    0.980
                            32 H    0.979
    14   6 C    3.983 --    33 H    0.982    12 C    0.982    34 H    0.980
                            35 H    0.976
    15   7 N    3.330 --    16 C    1.229    12 C    0.937    36 H    0.887
                            17 O    0.169
    16   6 C    3.913 --    17 O    1.594    15 N    1.229    18 C    1.001
    17   8 O    1.897 --    16 C    1.594    15 N    0.169
    18   6 C    3.875 --    19 N    1.617    23 O    1.047    16 C    1.001
    19   7 N    3.004 --    18 C    1.617    20 N    1.204
    20   7 N    2.982 --    21 C    1.605    19 N    1.204
    21   6 C    3.866 --    20 N    1.605    23 O    1.074    22 C    1.033
    22   6 C    3.985 --    21 C    1.033    39 H    0.982    37 H    0.964
                            38 H    0.960
    23   8 O    2.317 --    21 C    1.074    18 C    1.047
    24   7 N    3.593 --    11 C    1.435     5 C    1.054    25 C    0.921
    25   6 C    3.913 --    41 H    0.976    42 H    0.975    40 H    0.969
                            24 N    0.921
    26   1 H    1.010 --     1 C    0.980
    27   1 H    1.009 --     1 C    0.980
    28   1 H    1.012 --     1 C    0.986
    29   1 H    0.933 --    10 N    0.879
    30   1 H    1.004 --    13 C    0.980
    31   1 H    0.998 --    13 C    0.980
    32   1 H    0.997 --    13 C    0.979
    33   1 H    0.998 --    14 C    0.982
    34   1 H    0.993 --    14 C    0.980
    35   1 H    0.999 --    14 C    0.976
    36   1 H    0.928 --    15 N    0.887
    37   1 H    0.996 --    22 C    0.964
    38   1 H    0.996 --    22 C    0.960
    39   1 H    0.998 --    22 C    0.982
    40   1 H    1.014 --    25 C    0.969
    41   1 H    1.005 --    25 C    0.976
    42   1 H    1.008 --    25 C    0.975
 ---------------------------------------------------------------------------

           -------------------------------------------------
          | TOTAL ENERGY              -83.002795947516 Eh   |
          | GRADIENT NORM               0.000605383752 Eh/α |
          | HOMO-LUMO GAP               2.518708371645 eV   |
           -------------------------------------------------

 * finished run on 2023/06/21 at 17:20:58.129
