   * xtb version 6.5.1 (579679a) compiled by 'ehlert@majestix' on 2022-07-11
          program call               : /lustre/hpc/kemi/ree/PhD/git/ReactivityQM/dep/xtb-6.5.1/bin/xtb --gfn 1 /lustre/hpc/kemi/ree/PhD/git/ReactivityQM/calculations/R01/reac01prodE05/conf11/R01_reac01prodE05_conf11_gfn1.xyz --opt --vfukui --chrg -1 --uhf 0 --alpb DMSO

   ID    Z sym.   atoms
    1    6 C      1, 3, 5, 8-10
    2    8 O      2, 4, 11
    3    7 N      6, 7
    4    1 H      12-20

      * Solvation model:               ALPB
        Solvent                        DMSO
        Solvent mass                       7.8130E+01 g/mol
          :  Hamiltonian                  GFN1-xTB          :
 * total energy  :   -38.2548353 Eh     change       -0.7133849E-11 Eh
 * total energy  :   -38.2713266 Eh     change       -0.1649130E-01 Eh
 * total energy  :   -38.2764516 Eh     change       -0.5125050E-02 Eh
 * total energy  :   -38.2770213 Eh     change       -0.5696047E-03 Eh
 * total energy  :   -38.2774412 Eh     change       -0.4199787E-03 Eh
 * total energy  :   -38.2775816 Eh     change       -0.1403912E-03 Eh
 * total energy  :   -38.2776543 Eh     change       -0.7268866E-04 Eh
 * total energy  :   -38.2776930 Eh     change       -0.3864458E-04 Eh
 * total energy  :   -38.2777116 Eh     change       -0.1865461E-04 Eh
 * total energy  :   -38.2777269 Eh     change       -0.1525582E-04 Eh
 * total energy  :   -38.2777325 Eh     change       -0.5623616E-05 Eh
 * total energy  :   -38.2777342 Eh     change       -0.1692195E-05 Eh
   *** GEOMETRY OPTIMIZATION CONVERGED AFTER 12 ITERATIONS ***

 final structure:
================
20
 xtb: 6.5.1 (579679a)
C           -4.06311397995398       -0.74807755338310        0.19008097907129
O           -2.66098732579974       -0.76340378582280        0.29129519540122
C           -2.01455584301201        0.32304214156289       -0.42092667180230
O           -2.75265820336550        1.16652725375493       -1.03379542863197
C           -0.66188972840574        0.29223933998861       -0.33967159186547
N            0.26317136727780        1.20699596740513       -0.91652300617559
N            1.44039095013435        0.73333458791829       -0.53407407523929
C            2.62878170325371        1.43631795684126       -0.95737826383991
C            1.39227615522946       -0.35359333277273        0.20577171069223
C            2.51427199121859       -1.13271745756573        0.78732386558947
O            0.08785116671182       -0.73338458824181        0.40054844058208
H           -4.40146894314017       -0.83829886419116       -0.85335990770547
H           -4.49628940738967        0.17355786642586        0.60775090609638
H           -4.44488139138587       -1.60202282262906        0.75656135079421
H            3.20041695579092        1.76165741121578       -0.08920348805253
H            2.31500240545775        2.30203473304609       -1.53693892474415
H            3.24829596938723        0.78576758171906       -1.57362340330057
H            2.46709680360799       -1.12923128447960        1.87917134869221
H            3.46622736386775       -0.70746419352437        0.47976853879153
H            2.47206199051530       -2.17328195726777        0.45727142564655

          :  Hamiltonian                  GFN1-xTB          :
         :: total energy             -38.277734181886 Eh    ::
         :: gradient norm              0.000328462197 Eh/a0 ::
         :: HOMO-LUMO gap              0.975113034388 eV    ::
         :: SCC energy               -38.591154378218 Eh    ::
         :: -> Gsolv                  -0.121941482268 Eh    ::
         :: repulsion energy           0.321549726908 Eh    ::

    * Orbital Energies and Occupations

         #    Occupation            Energy/Eh            Energy/eV
      -------------------------------------------------------------
         1        2.0000           -0.8002845             -21.7768
       ...           ...                  ...                  ...
        19        2.0000           -0.5117223             -13.9247
        20        2.0000           -0.5108608             -13.9012
        21        2.0000           -0.5036379             -13.7047
        22        2.0000           -0.4850351             -13.1985
        23        2.0000           -0.4658736             -12.6771
        24        2.0000           -0.4593667             -12.5000
        25        2.0000           -0.4555178             -12.3953
        26        2.0000           -0.4369633             -11.8904
        27        2.0000           -0.4067447             -11.0681
        28        2.0000           -0.4026956             -10.9579
        29        2.0000           -0.3696995             -10.0600
        30        2.0000           -0.3651878              -9.9373
        31        2.0000           -0.2577829              -7.0146 (HOMO)
        32                         -0.2219482              -6.0395 (LUMO)
        33                         -0.1402546              -3.8165
        34                         -0.1248377              -3.3970
        35                         -0.0995251              -2.7082
        36                         -0.0986621              -2.6847
        37                         -0.0746657              -2.0318
        38                         -0.0737155              -2.0059
        39                         -0.0567427              -1.5440
        40                         -0.0452216              -1.2305
        41                         -0.0381667              -1.0386
        42                         -0.0350339              -0.9533
       ...                                ...                  ...
        62                          0.7111224              19.3506
      -------------------------------------------------------------
                  HL-Gap            0.0358347 Eh            0.9751 eV

Wiberg/Mayer (AO) data.
largest (>0.10) Wiberg bond orders for each atom

     #   Z sym  total        # sym  WBO       # sym  WBO       # sym  WBO
 ---------------------------------------------------------------------------
     1   6 C    3.932 --    14 H    0.986    12 H    0.980    13 H    0.979
                             2 O    0.970
     2   8 O    2.001 --     1 C    0.970     3 C    0.856
     3   6 C    3.879 --     5 C    1.544     4 O    1.308     2 O    0.856
     4   8 O    1.639 --     3 C    1.308     5 C    0.167
     5   6 C    3.713 --     3 C    1.544     6 N    1.059    11 O    0.838
                             4 O    0.167
     6   7 N    2.758 --     7 N    1.185     5 C    1.059     9 C    0.329
     7   7 N    3.635 --     9 C    1.375     6 N    1.185     8 C    0.951
     8   6 C    3.956 --    16 H    0.984    15 H    0.982    17 H    0.981
                             7 N    0.951
     9   6 C    3.867 --     7 N    1.375    11 O    1.026    10 C    1.025
                             6 N    0.329
    10   6 C    3.994 --     9 C    1.025    19 H    0.985    20 H    0.972
                            18 H    0.970
    11   8 O    2.083 --     9 C    1.026     5 C    0.838
    12   1 H    1.027 --     1 C    0.980
    13   1 H    1.028 --     1 C    0.979
    14   1 H    1.023 --     1 C    0.986
    15   1 H    1.004 --     8 C    0.982
    16   1 H    1.015 --     8 C    0.984
    17   1 H    1.004 --     8 C    0.981
    18   1 H    1.005 --    10 C    0.970
    19   1 H    1.002 --    10 C    0.985
    20   1 H    1.005 --    10 C    0.972
 ---------------------------------------------------------------------------

           -------------------------------------------------
          | TOTAL ENERGY              -38.277734181886 Eh   |
          | GRADIENT NORM               0.000328462197 Eh/α |
          | HOMO-LUMO GAP               0.975113034388 eV   |
           -------------------------------------------------

 * finished run on 2023/06/20 at 14:53:58.488
