   * xtb version 6.5.1 (579679a) compiled by 'ehlert@majestix' on 2022-07-11
          program call               : /lustre/hpc/kemi/ree/PhD/git/ReactivityQM/dep/xtb-6.5.1/bin/xtb --gfn 1 /lustre/hpc/kemi/ree/PhD/git/ReactivityQM/calculations/R02methylcation/reac01prodE13/conf11/R02methylcation_reac01prodE13_conf11_gfn1.xyz --opt --vfukui --chrg -2 --uhf 0 --alpb DMSO

   ID    Z sym.   atoms
    1    6 C      1, 3, 5, 6, 8, 10, 12-15, 17, 19, 22, 23
    2    8 O      2, 4, 7, 9, 18, 24
    3    7 N      11, 16, 20, 21, 25
    4    1 H      26-42

      * Solvation model:               ALPB
        Solvent                        DMSO
        Solvent mass                       7.8130E+01 g/mol
          :  Hamiltonian                  GFN1-xTB          :
 * total energy  :   -83.5661745 Eh     change       -0.7619860E-10 Eh
 * total energy  :   -83.5803205 Eh     change       -0.1414602E-01 Eh
 * total energy  :   -83.5858417 Eh     change       -0.5521129E-02 Eh
 * total energy  :   -83.5867683 Eh     change       -0.9266616E-03 Eh
 * total energy  :   -83.5871988 Eh     change       -0.4305267E-03 Eh
 * total energy  :   -83.5873195 Eh     change       -0.1206236E-03 Eh
 * total energy  :   -83.5873945 Eh     change       -0.7503963E-04 Eh
 * total energy  :   -83.5874461 Eh     change       -0.5160415E-04 Eh
 * total energy  :   -83.5874947 Eh     change       -0.4857614E-04 Eh
 * total energy  :   -83.5875515 Eh     change       -0.5676415E-04 Eh
 * total energy  :   -83.5937573 Eh     change       -0.2158973E-04 Eh
 * total energy  :   -83.5937881 Eh     change       -0.3086562E-04 Eh
 * total energy  :   -83.5938012 Eh     change       -0.1305268E-04 Eh
 * total energy  :   -83.5938166 Eh     change       -0.1540646E-04 Eh
 * total energy  :   -83.5938245 Eh     change       -0.7881475E-05 Eh
 * total energy  :   -83.5938331 Eh     change       -0.8667069E-05 Eh
 * total energy  :   -83.5938392 Eh     change       -0.6104510E-05 Eh
 * total energy  :   -83.5938465 Eh     change       -0.7269213E-05 Eh
 * total energy  :   -83.5938510 Eh     change       -0.4475783E-05 Eh
   *** GEOMETRY OPTIMIZATION CONVERGED AFTER 78 ITERATIONS ***

 final structure:
================
42
 xtb: 6.5.1 (579679a)
C           -3.56245375656913        3.96332858669097        1.15256656168965
O           -3.53793167270149        2.57189786115969        0.93312796931521
C           -2.26195786666749        2.02795615112842        0.71628746989867
O           -1.28129369347068        2.80649817353259        0.74222288265904
C           -2.22626927023330        0.63977137630327        0.48379020444452
C           -3.39462758531080       -0.26930636872033        0.45950086899357
O           -4.59076334345528        0.12008878578669        0.64857437486372
C           -3.07262878187299       -1.60871568356062        0.22813942922522
O           -3.98472331085289       -2.66376855679955        0.17851851164583
C           -4.99595044638111       -2.56181350128200       -0.81640580359239
N           -1.75211643060002       -2.01867165683934       -0.05883161253356
C           -0.72958380759672       -1.10748828299246        0.02089785259175
C            0.68071455860195       -1.63031302094517       -0.22234619885862
C            0.74818160077777       -2.34776099459677       -1.58136338518563
C            1.07491289971081       -2.59702343311253        0.91094487599003
N            1.55958050429607       -0.47366212833351       -0.23620958892103
C            2.93012685276298       -0.54950095510848       -0.32487591141671
O            3.54544398044011       -1.60450340498865       -0.59075361955542
C            3.55332640012581        0.73003579506926       -0.11771452492257
N            2.93585894825643        1.87485678141874        0.16780023614534
N            3.91283582317312        2.82390729734080        0.29052719460425
C            5.04584014267525        2.23814569772876        0.08301056762337
C            6.39325887046163        2.85948366768885        0.10595438995894
O            4.91867050940276        0.91633039440754       -0.18219361514071
N           -0.93203236701406        0.13508230401954        0.26598446206580
H           -3.15195144454216        4.51548496945210        0.29611967098974
H           -2.98875348333188        4.24313381785677        2.04670317718824
H           -4.60505367770701        4.25442280691334        1.29508316956807
H           -5.65821396755719       -1.70673723750767       -0.62395032996954
H           -4.56120846644721       -2.46071817094358       -1.81994727780204
H           -5.57881671513956       -3.48395985660338       -0.77418535498087
H           -1.58216882195245       -3.00436346073599       -0.13305384147193
H            0.06947054556905       -3.19821369458826       -1.59232308244348
H            0.46592270471402       -1.66086683782734       -2.37925598675127
H            1.75892940398214       -2.70865483142842       -1.76596924019988
H            1.07349608429676       -2.07299033276698        1.86664347907362
H            2.06823662335290       -3.00582994116903        0.73221614011653
H            0.36431617266377       -3.42026970207603        0.95943672081253
H            1.14523432104030        0.39268337915540        0.10869636979028
H            6.30278975629611        3.91561587150268        0.34808572952893
H            6.87678019666742        2.75383658791855       -0.86543256813510
H            7.02457301013447        2.37257174785108        0.84922363308289

          :  Hamiltonian                  GFN1-xTB          :
         :: total energy             -83.593850983097 Eh    ::
         :: gradient norm              0.000678166576 Eh/a0 ::
         :: HOMO-LUMO gap              0.048532932071 eV    ::
         :: SCC energy               -84.321571559247 Eh    ::
         :: -> Gsolv                  -0.282891950083 Eh    ::
         :: repulsion energy           0.752569477523 Eh    ::

    * Orbital Energies and Occupations

         #    Occupation            Energy/Eh            Energy/eV
      -------------------------------------------------------------
         1        2.0000           -0.8049232             -21.9031
       ...           ...                  ...                  ...
        56        2.0000           -0.4326200             -11.7722
        57        2.0000           -0.4309952             -11.7280
        58        2.0000           -0.4251452             -11.5688
        59        2.0000           -0.4094191             -11.1409
        60        2.0000           -0.4068561             -11.0711
        61        2.0000           -0.4050327             -11.0215
        62        2.0000           -0.3978360             -10.8257
        63        2.0000           -0.3888836             -10.5821
        64        2.0000           -0.3885620             -10.5733
        65        2.0000           -0.3828877             -10.4189
        66        2.0000           -0.3401995              -9.2573
        67        2.0000           -0.3341343              -9.0923
        68        1.4377           -0.2668677              -7.2618 (HOMO)
        69        0.5623           -0.2650841              -7.2133 (LUMO)
        70                         -0.2124478              -5.7810
        71                         -0.1990014              -5.4151
        72                         -0.1616697              -4.3993
        73                         -0.1405733              -3.8252
        74                         -0.1259626              -3.4276
        75                         -0.1065785              -2.9001
        76                         -0.1051700              -2.8618
        77                         -0.1048580              -2.8533
        78                         -0.0978187              -2.6618
        79                         -0.0734328              -1.9982
       ...                                ...                  ...
       134                          0.7140988              19.4316
      -------------------------------------------------------------
                  HL-Gap            0.0017836 Eh            0.0485 eV

Wiberg/Mayer (AO) data.
largest (>0.10) Wiberg bond orders for each atom

     #   Z sym  total        # sym  WBO       # sym  WBO       # sym  WBO
 ---------------------------------------------------------------------------
     1   6 C    3.925 --    28 H    0.987    27 H    0.980    26 H    0.980
                             2 O    0.957
     2   8 O    2.067 --     1 C    0.957     3 C    0.942
     3   6 C    3.790 --     4 O    1.437     5 C    1.306     2 O    0.942
     4   8 O    1.695 --     3 C    1.437
     5   6 C    3.754 --     3 C    1.306    25 N    1.095     6 C    1.069
     6   6 C    3.925 --     7 O    1.384     8 C    1.349     5 C    1.069
     7   8 O    1.679 --     6 C    1.384     8 C    0.121
     8   6 C    3.529 --     6 C    1.349    11 N    1.000     9 O    0.947
                             7 O    0.121
     9   8 O    2.007 --     8 C    0.947    10 C    0.935
    10   6 C    3.911 --    31 H    0.987    30 H    0.983    29 H    0.979
                             9 O    0.935
    11   7 N    3.236 --    12 C    1.125     8 C    1.000    32 H    0.911
                            25 N    0.109
    12   6 C    3.929 --    25 N    1.621    11 N    1.125    13 C    0.972
    13   6 C    3.951 --    14 C    0.985    15 C    0.979    12 C    0.972
                            16 N    0.950
    14   6 C    3.991 --    34 H    0.987    33 H    0.986    13 C    0.985
                            35 H    0.981
    15   6 C    3.990 --    36 H    0.987    38 H    0.986    37 H    0.981
                            13 C    0.979
    16   7 N    3.208 --    17 C    1.148    13 C    0.950    39 H    0.890
                            18 O    0.128
    17   6 C    3.782 --    18 O    1.444    16 N    1.148    19 C    1.121
    18   8 O    1.703 --    17 C    1.444    16 N    0.128
    19   6 C    3.693 --    20 N    1.421    17 C    1.121    24 O    0.982
    20   7 N    2.769 --    19 C    1.421    21 N    1.186
    21   7 N    2.981 --    22 C    1.628    20 N    1.186
    22   6 C    3.822 --    21 N    1.628    24 O    1.051    23 C    1.024
    23   6 C    3.994 --    22 C    1.024    40 H    0.986    42 H    0.971
                            41 H    0.971
    24   8 O    2.191 --    22 C    1.051    19 C    0.982
    25   7 N    2.986 --    12 C    1.621     5 C    1.095    11 N    0.109
    26   1 H    1.022 --     1 C    0.980
    27   1 H    1.022 --     1 C    0.980
    28   1 H    1.021 --     1 C    0.987
    29   1 H    1.037 --    10 C    0.979
    30   1 H    1.015 --    10 C    0.983
    31   1 H    1.020 --    10 C    0.987
    32   1 H    0.961 --    11 N    0.911
    33   1 H    1.006 --    14 C    0.986
    34   1 H    1.009 --    14 C    0.987
    35   1 H    1.019 --    14 C    0.981
    36   1 H    1.008 --    15 C    0.987
    37   1 H    1.017 --    15 C    0.981
    38   1 H    1.006 --    15 C    0.986
    39   1 H    0.996 --    16 N    0.890
    40   1 H    1.004 --    23 C    0.986
    41   1 H    1.001 --    23 C    0.971
    42   1 H    1.001 --    23 C    0.971
 ---------------------------------------------------------------------------

           -------------------------------------------------
          | TOTAL ENERGY              -83.593850983097 Eh   |
          | GRADIENT NORM               0.000678166576 Eh/α |
          | HOMO-LUMO GAP               0.048532932071 eV   |
           -------------------------------------------------

 * finished run on 2023/06/21 at 17:25:47.213
