   * xtb version 6.5.1 (579679a) compiled by 'ehlert@majestix' on 2022-07-11
          program call               : /lustre/hpc/kemi/ree/PhD/git/ReactivityQM/dep/xtb-6.5.1/bin/xtb --gfn 1 /lustre/hpc/kemi/ree/PhD/git/ReactivityQM/calculations/R02methylcation/reac01prodN01/conf05/R02methylcation_reac01prodN01_conf05_gfn1.xyz --opt --vfukui --chrg 0 --uhf 0 --alpb DMSO

   ID    Z sym.   atoms
    1    6 C      1, 3, 5, 7-10, 12, 14, 17, 18, 20, 22, 24
    2    8 O      2, 4, 13, 19, 23, 25
    3    7 N      6, 11, 15, 16, 21
    4    1 H      26-42

      * Solvation model:               ALPB
        Solvent                        DMSO
        Solvent mass                       7.8130E+01 g/mol
          :  Hamiltonian                  GFN1-xTB          :
 * total energy  :   -82.8781762 Eh     change       -0.5684342E-13 Eh
 * total energy  :   -82.8958407 Eh     change       -0.1766443E-01 Eh
 * total energy  :   -82.9047286 Eh     change       -0.8887924E-02 Eh
 * total energy  :   -82.9073976 Eh     change       -0.2669049E-02 Eh
 * total energy  :   -82.9091293 Eh     change       -0.1731706E-02 Eh
 * total energy  :   -82.9100476 Eh     change       -0.9182835E-03 Eh
 * total energy  :   -82.9107978 Eh     change       -0.7501420E-03 Eh
 * total energy  :   -82.9114406 Eh     change       -0.6428191E-03 Eh
 * total energy  :   -82.9118625 Eh     change       -0.4219127E-03 Eh
 * total energy  :   -82.9121116 Eh     change       -0.2490579E-03 Eh
 * total energy  :   -82.9142874 Eh     change       -0.1659330E-04 Eh
 * total energy  :   -82.9142997 Eh     change       -0.1225831E-04 Eh
 * total energy  :   -82.9143135 Eh     change       -0.1378557E-04 Eh
 * total energy  :   -82.9143302 Eh     change       -0.1673584E-04 Eh
 * total energy  :   -82.9143396 Eh     change       -0.9405450E-05 Eh
 * total energy  :   -82.9143461 Eh     change       -0.6541976E-05 Eh
 * total energy  :   -82.9143522 Eh     change       -0.6090498E-05 Eh
 * total energy  :   -82.9143578 Eh     change       -0.5598047E-05 Eh
 * total energy  :   -82.9143626 Eh     change       -0.4760275E-05 Eh
   *** GEOMETRY OPTIMIZATION CONVERGED AFTER 53 ITERATIONS ***

 final structure:
================
42
 xtb: 6.5.1 (579679a)
C            6.53558044385658        2.05467201446740       -0.29345931457306
O            5.38007298599834        1.46248701258257       -0.87180563083324
C            4.46664115243275        0.97303515429159        0.00121478659208
O            4.65175986866191        1.05139648940485        1.20977936393404
C            3.29860799514119        0.36097925923593       -0.61871106550515
N            2.40951630266194       -0.14864388276399        0.30964976429362
C            1.34600060482546       -0.74833159424130       -0.07024472505718
C            0.42095770646029       -1.37744464372086        0.95028212732526
C            0.52458369577802       -0.63741928879757        2.28566895243557
C            0.77743718000065       -2.85834237023349        1.11584936584682
N           -0.96962252722176       -1.32538681620824        0.45719803736741
C           -1.60364915799027       -0.18719332070044        0.16497559237424
O           -1.14810707376548        0.94079090332029        0.20080276184274
C           -3.01471335277584       -0.45310782308985       -0.25743672932339
N           -3.61733200673102       -1.57236644674804       -0.41228155045759
N           -4.90134348085896       -1.33123238023766       -0.81509250908753
C           -5.08051014588259       -0.06919697705560       -0.90403295121886
C           -6.28809518054343        0.67679186345757       -1.28909366819700
O           -3.89244385022158        0.58990153300224       -0.55762745512280
C           -3.59924935583630        2.02264383878063       -0.50182683504459
N            1.04326168554862       -0.93555124787800       -1.40298928989539
C            1.81179881709628       -0.44833259486383       -2.43099910042340
O            1.45616399003129       -0.62689551046957       -3.59243273612690
C            3.07768350082878        0.27283499351572       -2.01928385293268
O            3.81846675788506        0.72219401679555       -2.91105634305120
H            7.07505416526382        1.32833876803328        0.32252327215132
H            6.26020331728920        2.91032416437527        0.33078608679951
H            7.17032757699762        2.38581535695902       -1.11473150756647
H            1.55553176949940       -0.68644585211786        2.63556747564249
H            0.24710600356480        0.40770918941601        2.16104677170486
H           -0.13127462632417       -1.09777616314523        3.02114132616329
H            0.11724439067703       -3.32598627902895        1.84374734398780
H            1.80587867497454       -2.94626689178179        1.46381948890683
H            0.68098554286100       -3.37645859288174        0.16311808929840
H           -1.49325549353368       -2.18450578545937        0.42971201691312
H           -6.60820900365158        1.32907546300488       -0.47630224378969
H           -7.07871988609307       -0.03712453668648       -1.51310622921347
H           -6.09495099912780        1.29331577818933       -2.16734253233418
H           -2.82202417175062        2.22696372622400       -1.23613524221852
H           -3.26176516685862        2.24494562076611        0.50813713658321
H           -4.52389753232451        2.53846487776787       -0.73835951156857
H            0.19829888314801       -1.41867002549178       -1.65154173661996

          :  Hamiltonian                  GFN1-xTB          :
         :: total energy             -82.914362584731 Eh    ::
         :: gradient norm              0.000538190361 Eh/a0 ::
         :: HOMO-LUMO gap              0.285152617745 eV    ::
         :: SCC energy               -83.697961369046 Eh    ::
         :: -> Gsolv                  -0.131252721096 Eh    ::
         :: repulsion energy           0.809752195245 Eh    ::

    * Orbital Energies and Occupations

         #    Occupation            Energy/Eh            Energy/eV
      -------------------------------------------------------------
         1        2.0000           -0.9641430             -26.2357
       ...           ...                  ...                  ...
        55        2.0000           -0.5061549             -13.7732
        56        2.0000           -0.5039646             -13.7136
        57        2.0000           -0.4958922             -13.4939
        58        2.0000           -0.4898217             -13.3287
        59        2.0000           -0.4845784             -13.1860
        60        2.0000           -0.4711052             -12.8194
        61        2.0000           -0.4673040             -12.7160
        62        2.0000           -0.4614644             -12.5571
        63        2.0000           -0.4452593             -12.1161
        64        2.0000           -0.4397884             -11.9673
        65        2.0000           -0.4223726             -11.4933
        66        2.0000           -0.3837909             -10.4435
        67        1.9920           -0.3707422             -10.0884 (HOMO)
        68        0.0080           -0.3602631              -9.8033 (LUMO)
        69                         -0.3101282              -8.4390
        70                         -0.2745230              -7.4702
        71                         -0.2450933              -6.6693
        72                         -0.2392782              -6.5111
        73                         -0.2012357              -5.4759
        74                         -0.1880419              -5.1169
        75                         -0.1735749              -4.7232
        76                         -0.1360181              -3.7012
        77                         -0.1230107              -3.3473
        78                         -0.1227415              -3.3400
       ...                                ...                  ...
       134                          0.7527530              20.4835
      -------------------------------------------------------------
                  HL-Gap            0.0104792 Eh            0.2852 eV

Wiberg/Mayer (AO) data.
largest (>0.10) Wiberg bond orders for each atom

     #   Z sym  total        # sym  WBO       # sym  WBO       # sym  WBO
 ---------------------------------------------------------------------------
     1   6 C    3.897 --    28 H    0.987    27 H    0.980    26 H    0.980
                             2 O    0.923
     2   8 O    2.163 --     3 C    1.053     1 C    0.923     4 O    0.111
     3   6 C    3.850 --     4 O    1.579     5 C    1.108     2 O    1.053
     4   8 O    1.852 --     3 C    1.579     2 O    0.111
     5   6 C    3.907 --    24 C    1.268     6 N    1.156     3 C    1.108
                            25 O    0.128
     6   7 N    3.031 --     7 C    1.633     5 C    1.156
     7   6 C    3.931 --     6 N    1.633    21 N    1.093     8 C    0.972
     8   6 C    3.913 --     9 C    0.990    10 C    0.988     7 C    0.972
                            11 N    0.897
     9   6 C    3.989 --     8 C    0.990    31 H    0.987    30 H    0.981
                            29 H    0.981
    10   6 C    3.989 --     8 C    0.988    34 H    0.984    32 H    0.983
                            33 H    0.982
    11   7 N    3.389 --    12 C    1.303     8 C    0.897    35 H    0.891
                            13 O    0.195
    12   6 C    3.927 --    13 O    1.579    11 N    1.303    14 C    0.969
    13   8 O    1.927 --    12 C    1.579    11 N    0.195
    14   6 C    3.790 --    15 N    1.697    12 C    0.969    19 O    0.884
    15   7 N    3.035 --    14 C    1.697    16 N    1.147
    16   7 N    3.025 --    17 C    1.698    15 N    1.147
    17   6 C    3.799 --    16 N    1.698    18 C    1.043    19 O    0.873
    18   6 C    3.970 --    17 C    1.043    37 H    0.970    38 H    0.952
                            36 H    0.951
    19   8 O    2.651 --    14 C    0.884    17 C    0.873    20 C    0.749
    20   6 C    3.727 --    41 H    0.975    40 H    0.968    39 H    0.968
                            19 O    0.749
    21   7 N    3.421 --    22 C    1.155     7 C    1.093    42 H    0.898
                            23 O    0.134
    22   6 C    3.875 --    23 O    1.583    21 N    1.155    24 C    0.966
    23   8 O    1.862 --    22 C    1.583    21 N    0.134
    24   6 C    3.941 --    25 O    1.525     5 C    1.268    22 C    0.966
    25   8 O    1.826 --    24 C    1.525     5 C    0.128
    26   1 H    1.014 --     1 C    0.980
    27   1 H    1.013 --     1 C    0.980
    28   1 H    1.015 --     1 C    0.987
    29   1 H    1.013 --     9 C    0.981
    30   1 H    1.010 --     9 C    0.981
    31   1 H    1.001 --     9 C    0.987
    32   1 H    0.997 --    10 C    0.983
    33   1 H    1.002 --    10 C    0.982
    34   1 H    0.999 --    10 C    0.984
    35   1 H    0.937 --    11 N    0.891
    36   1 H    0.988 --    18 C    0.951
    37   1 H    0.989 --    18 C    0.970
    38   1 H    0.988 --    18 C    0.952
    39   1 H    0.999 --    20 C    0.968
    40   1 H    1.000 --    20 C    0.968
    41   1 H    0.991 --    20 C    0.975
    42   1 H    0.948 --    21 N    0.898
 ---------------------------------------------------------------------------

           -------------------------------------------------
          | TOTAL ENERGY              -82.914362584731 Eh   |
          | GRADIENT NORM               0.000538190361 Eh/α |
          | HOMO-LUMO GAP               0.285152617745 eV   |
           -------------------------------------------------

 * finished run on 2023/06/21 at 17:29:33.556
