                         Program Version 5.0.1 -  RELEASE  -
|  1> # ORCA input file
|  2> ! SP r2SCAN-3c CPCM
|  3>
|  4> %maxcore 1875.0
|  5> %pal nprocs 4 end
|  6> %cpcm smd true SMDsolvent "DMSO" end
|  7>
|  8> *xyz -1 1
|  9> C      -5.627502    2.181631    1.426855
| 10> O      -4.877174    1.645800    0.348949
| 11> C      -3.795631    0.822576    0.687471
| 12> O      -4.052811   -0.082635    1.711456
| 13> C      -3.361575    0.134717    2.937493
| 14> C      -2.628676    0.837241   -0.024652
| 15> N      -1.666759   -0.110889    0.355490
| 16> C      -0.578542   -0.262492   -0.318500
| 17> C       0.347878   -1.366402    0.202922
| 18> C       0.098800   -2.661400   -0.579082
| 19> C       0.062360   -1.623927    1.690343
| 20> N       1.760380   -1.005950    0.063634
| 21> C       2.280670    0.118277    0.610414
| 22> O       1.630132    0.987085    1.179145
| 23> C       3.741739    0.226336    0.421692
| 24> N       4.520592    1.204031    0.790304
| 25> N       5.783858    0.871147    0.392667
| 26> C       5.702128   -0.281462   -0.191519
| 27> C       6.798403   -1.072024   -0.793951
| 28> O       4.440444   -0.749301   -0.212124
| 29> N      -0.294032    0.442841   -1.446684
| 30> C       0.871211    0.230549   -2.292031
| 31> C      -1.127390    1.563945   -1.848160
| 32> O      -0.722428    2.261879   -2.811310
| 33> C      -2.291820    1.711302   -1.110947
| 34> O      -3.119589    2.795043   -1.447385
| 35> H      -6.084554    1.384806    2.024463
| 36> H      -6.417318    2.795304    0.991371
| 37> H      -5.004512    2.806281    2.080115
| 38> H      -3.689410   -0.643462    3.628757
| 39> H      -2.276964    0.057311    2.793320
| 40> H      -3.596897    1.117245    3.363819
| 41> H       0.712227   -3.464669   -0.174636
| 42> H       0.333886   -2.544320   -1.634904
| 43> H      -0.949840   -2.940780   -0.484438
| 44> H       0.760334   -2.366760    2.072506
| 45> H      -0.953958   -1.994795    1.809063
| 46> H       0.169533   -0.703275    2.262782
| 47> H       2.390303   -1.711984   -0.273165
| 48> H       6.602366   -1.236428   -1.853302
| 49> H       6.864630   -2.046017   -0.309954
| 50> H       7.740194   -0.541839   -0.675766
| 51> H       1.708152    0.859739   -1.974894
| 52> H       0.606941    0.498454   -3.317715
| 53> H       1.182233   -0.809127   -2.275152
| 54> H      -3.992011    2.666394   -1.045028
| 55> **                         ****END OF INPUT****

CARTESIAN COORDINATES (ANGSTROEM)
---------------------------------
  C     -5.627502    2.181631    1.426855
  O     -4.877174    1.645800    0.348949
  C     -3.795631    0.822576    0.687471
  O     -4.052811   -0.082635    1.711456
  C     -3.361575    0.134717    2.937493
  C     -2.628676    0.837241   -0.024652
  N     -1.666759   -0.110889    0.355490
  C     -0.578542   -0.262492   -0.318500
  C      0.347878   -1.366402    0.202922
  C      0.098800   -2.661400   -0.579082
  C      0.062360   -1.623927    1.690343
  N      1.760380   -1.005950    0.063634
  C      2.280670    0.118277    0.610414
  O      1.630132    0.987085    1.179145
  C      3.741739    0.226336    0.421692
  N      4.520592    1.204031    0.790304
  N      5.783858    0.871147    0.392667
  C      5.702128   -0.281462   -0.191519
  C      6.798403   -1.072024   -0.793951
  O      4.440444   -0.749301   -0.212124
  N     -0.294032    0.442841   -1.446684
  C      0.871211    0.230549   -2.292031
  C     -1.127390    1.563945   -1.848160
  O     -0.722428    2.261879   -2.811310
  C     -2.291820    1.711302   -1.110947
  O     -3.119589    2.795043   -1.447385
  H     -6.084554    1.384806    2.024463
  H     -6.417318    2.795304    0.991371
  H     -5.004512    2.806281    2.080115
  H     -3.689410   -0.643462    3.628757
  H     -2.276964    0.057311    2.793320
  H     -3.596897    1.117245    3.363819
  H      0.712227   -3.464669   -0.174636
  H      0.333886   -2.544320   -1.634904
  H     -0.949840   -2.940780   -0.484438
  H      0.760334   -2.366760    2.072506
  H     -0.953958   -1.994795    1.809063
  H      0.169533   -0.703275    2.262782
  H      2.390303   -1.711984   -0.273165
  H      6.602366   -1.236428   -1.853302
  H      6.864630   -2.046017   -0.309954
  H      7.740194   -0.541839   -0.675766
  H      1.708152    0.859739   -1.974894
  H      0.606941    0.498454   -3.317715
  H      1.182233   -0.809127   -2.275152
  H     -3.992011    2.666394   -1.045028

 Total Charge           Charge          ....   -1
 Multiplicity           Mult            ....    1
 Number of Electrons    NEL             ....  194
 Basis Dimension        Dim             ....  649

ORBITAL ENERGIES
----------------

  NO   OCC          E(Eh)            E(eV)
   0   2.0000     -19.060966      -518.6753
   1   2.0000     -18.961646      -515.9726
   2   2.0000     -18.949928      -515.6538
   3   2.0000     -18.929296      -515.0923
   4   2.0000     -18.927632      -515.0470
   5   2.0000     -18.859926      -513.2047
   6   2.0000     -14.200837      -386.4244
   7   2.0000     -14.194131      -386.2419
   8   2.0000     -14.192426      -386.1955
   9   2.0000     -14.178494      -385.8164
  10   2.0000     -14.115484      -384.1018
  11   2.0000     -10.148727      -276.1609
  12   2.0000     -10.143699      -276.0241
  13   2.0000     -10.138737      -275.8891
  14   2.0000     -10.088889      -274.5326
  15   2.0000     -10.085981      -274.4535
  16   2.0000     -10.076495      -274.1954
  17   2.0000     -10.071687      -274.0645
  18   2.0000     -10.060005      -273.7466
  19   2.0000     -10.053239      -273.5626
  20   2.0000     -10.043307      -273.2923
  21   2.0000     -10.038802      -273.1697
  22   2.0000     -10.036110      -273.0964
  23   2.0000     -10.031420      -272.9688
  24   2.0000     -10.020358      -272.6678
  25   2.0000     -10.007510      -272.3182
  26   2.0000      -1.148047       -31.2399
  27   2.0000      -1.018768       -27.7221
  28   2.0000      -1.013542       -27.5799
  29   2.0000      -0.970294       -26.4030
  30   2.0000      -0.969818       -26.3901
  31   2.0000      -0.963494       -26.2180
  32   2.0000      -0.945188       -25.7199
  33   2.0000      -0.912402       -24.8277
  34   2.0000      -0.893971       -24.3262
  35   2.0000      -0.833513       -22.6810
  36   2.0000      -0.826390       -22.4872
  37   2.0000      -0.762243       -20.7417
  38   2.0000      -0.712774       -19.3956
  39   2.0000      -0.708895       -19.2900
  40   2.0000      -0.678267       -18.4566
  41   2.0000      -0.661264       -17.9939
  42   2.0000      -0.658516       -17.9191
  43   2.0000      -0.652092       -17.7443
  44   2.0000      -0.637694       -17.3525
  45   2.0000      -0.600897       -16.3513
  46   2.0000      -0.596932       -16.2434
  47   2.0000      -0.592961       -16.1353
  48   2.0000      -0.574212       -15.6251
  49   2.0000      -0.535623       -14.5750
  50   2.0000      -0.523930       -14.2569
  51   2.0000      -0.517322       -14.0770
  52   2.0000      -0.490806       -13.3555
  53   2.0000      -0.489329       -13.3153
  54   2.0000      -0.471909       -12.8413
  55   2.0000      -0.459487       -12.5033
  56   2.0000      -0.455240       -12.3877
  57   2.0000      -0.441147       -12.0042
  58   2.0000      -0.431139       -11.7319
  59   2.0000      -0.424177       -11.5424
  60   2.0000      -0.419875       -11.4254
  61   2.0000      -0.416396       -11.3307
  62   2.0000      -0.407547       -11.0899
  63   2.0000      -0.402058       -10.9405
  64   2.0000      -0.398506       -10.8439
  65   2.0000      -0.392813       -10.6890
  66   2.0000      -0.387002       -10.5309
  67   2.0000      -0.382963       -10.4210
  68   2.0000      -0.381154       -10.3717
  69   2.0000      -0.379070       -10.3150
  70   2.0000      -0.374569       -10.1925
  71   2.0000      -0.361930        -9.8486
  72   2.0000      -0.356375        -9.6975
  73   2.0000      -0.349355        -9.5064
  74   2.0000      -0.345090        -9.3904
  75   2.0000      -0.342169        -9.3109
  76   2.0000      -0.340346        -9.2613
  77   2.0000      -0.339445        -9.2368
  78   2.0000      -0.322295        -8.7701
  79   2.0000      -0.317933        -8.6514
  80   2.0000      -0.313694        -8.5360
  81   2.0000      -0.312277        -8.4975
  82   2.0000      -0.310241        -8.4421
  83   2.0000      -0.296233        -8.0609
  84   2.0000      -0.283486        -7.7141
  85   2.0000      -0.281816        -7.6686
  86   2.0000      -0.264674        -7.2021
  87   2.0000      -0.258175        -7.0253
  88   2.0000      -0.254196        -6.9170
  89   2.0000      -0.241166        -6.5625
  90   2.0000      -0.238841        -6.4992
  91   2.0000      -0.229871        -6.2551
  92   2.0000      -0.220568        -6.0020
  93   2.0000      -0.205493        -5.5918
  94   2.0000      -0.183906        -5.0043
  95   2.0000      -0.166751        -4.5375
  96   2.0000      -0.092496        -2.5169
  97   0.0000      -0.083581        -2.2743
  98   0.0000      -0.016981        -0.4621
  99   0.0000       0.000486         0.0132
 100   0.0000       0.038489         1.0473
 101   0.0000       0.054566         1.4848

MULLIKEN ATOMIC CHARGES
-----------------------
   0 C :   -0.332319
   1 O :   -0.217437
   2 C :   -0.141322
   3 O :   -0.198524
   4 C :   -0.329949
   5 C :    0.054060
   6 N :   -0.165535
   7 C :    0.047677
   8 C :    0.101826
   9 C :   -0.539877
  10 C :   -0.670852
  11 N :   -0.124283
  12 C :   -0.161227
  13 O :   -0.422948
  14 C :    0.418438
  15 N :   -0.176095
  16 N :   -0.285762
  17 C :    0.389334
  18 C :   -0.635382
  19 O :   -0.061499
  20 N :    0.244010
  21 C :   -0.456982
  22 C :   -0.050601
  23 O :   -0.501547
  24 C :   -0.226058
  25 O :   -0.414182
  26 H :    0.167149
  27 H :    0.162224
  28 H :    0.151109
  29 H :    0.155857
  30 H :    0.169704
  31 H :    0.145274
  32 H :    0.185333
  33 H :    0.181922
  34 H :    0.196028
  35 H :    0.176372
  36 H :    0.187732
  37 H :    0.202407
  38 H :    0.314608
  39 H :    0.200173
  40 H :    0.199643
  41 H :    0.204071
  42 H :    0.169551
  43 H :    0.182662
  44 H :    0.172305
  45 H :    0.332911
Sum of atomic charges:   -1.0000000

LOEWDIN ATOMIC CHARGES
----------------------
   0 C :   -0.063550
   1 O :   -0.710315
   2 C :    0.293666
   3 O :   -0.676671
   4 C :   -0.070017
   5 C :    0.157416
   6 N :   -0.640133
   7 C :    0.345053
   8 C :    0.111450
   9 C :   -0.347231
  10 C :   -0.346313
  11 N :   -0.595501
  12 C :    0.370160
  13 O :   -0.449249
  14 C :    0.410809
  15 N :   -0.340607
  16 N :   -0.366572
  17 C :    0.375269
  18 C :   -0.318559
  19 O :   -0.395977
  20 N :   -0.706389
  21 C :   -0.092708
  22 C :    0.314825
  23 O :   -0.610213
  24 C :    0.134920
  25 O :   -0.547730
  26 H :    0.171716
  27 H :    0.177250
  28 H :    0.163078
  29 H :    0.172390
  30 H :    0.171727
  31 H :    0.160152
  32 H :    0.170784
  33 H :    0.168754
  34 H :    0.176431
  35 H :    0.162392
  36 H :    0.174422
  37 H :    0.179290
  38 H :    0.297001
  39 H :    0.191004
  40 H :    0.190799
  41 H :    0.190406
  42 H :    0.176414
  43 H :    0.197111
  44 H :    0.187104
  45 H :    0.285944

  Mayer bond orders larger than 0.100000
B(  0-C ,  1-O ) :   0.8451 B(  0-C , 26-H ) :   0.9671 B(  0-C , 27-H ) :   0.9676
B(  0-C , 28-H ) :   0.9535 B(  1-O ,  2-C ) :   1.0576 B(  2-C ,  3-O ) :   1.1799
B(  2-C ,  5-C ) :   1.5346 B(  3-O ,  4-C ) :   0.8379 B(  4-C , 29-H ) :   0.9723
B(  4-C , 30-H ) :   0.9598 B(  4-C , 31-H ) :   0.9591 B(  5-C ,  6-N ) :   0.8794
B(  5-C , 24-C ) :   0.8900 B(  6-N ,  7-C ) :   1.7772 B(  6-N ,  8-C ) :  -0.1114
B(  7-C ,  8-C ) :   0.7519 B(  7-C , 20-N ) :   1.2823 B(  8-C ,  9-C ) :   0.9734
B(  8-C , 10-C ) :   0.8580 B(  8-C , 11-N ) :   0.8043 B(  9-C , 32-H ) :   0.9659
B(  9-C , 33-H ) :   0.9443 B(  9-C , 34-H ) :   0.9722 B( 10-C , 35-H ) :   0.9731
B( 10-C , 36-H ) :   0.9623 B( 10-C , 37-H ) :   0.9743 B( 11-N , 12-C ) :   1.1565
B( 11-N , 38-H ) :   0.8939 B( 12-C , 13-O ) :   1.9128 B( 12-C , 14-C ) :   0.7573
B( 13-O , 14-C ) :  -0.1186 B( 14-C , 15-N ) :   1.7123 B( 14-C , 17-C ) :   0.1147
B( 14-C , 19-O ) :   1.0682 B( 15-N , 16-N ) :   1.2684 B( 16-N , 17-C ) :   1.6323
B( 17-C , 18-C ) :   0.8250 B( 17-C , 19-O ) :   1.0645 B( 18-C , 39-H ) :   0.9428
B( 18-C , 40-H ) :   0.9436 B( 18-C , 41-H ) :   0.9912 B( 20-N , 21-C ) :   0.8535
B( 20-N , 22-C ) :   0.8738 B( 21-C , 42-H ) :   0.9483 B( 21-C , 43-H ) :   0.9462
B( 21-C , 44-H ) :   0.9415 B( 22-C , 23-O ) :   1.8510 B( 22-C , 24-C ) :   1.3000
B( 22-C , 25-O ) :   0.1013 B( 24-C , 25-O ) :   0.9803 B( 25-O , 45-H ) :   0.8173

Dispersion correction           -0.021767930
FINAL SINGLE POINT ENERGY     -1308.579041879467

DIPOLE MOMENT
-------------
                                X             Y             Z
Electronic contribution:      9.70115       8.73283      -5.16780
Nuclear contribution   :     -5.56781     -14.71722       6.58913
                        -----------------------------------------
Total Dipole Moment    :      4.13334      -5.98439       1.42133
                        -----------------------------------------
Magnitude (a.u.)       :      7.41064
Magnitude (Debye)      :     18.83635

Rotational constants in cm-1:     0.014310     0.003449     0.003194
Rotational constants in MHz :   429.003540   103.406110    95.749600

                             ****ORCA TERMINATED NORMALLY****
TOTAL RUN TIME: 0 days 0 hours 1 minutes 57 seconds 673 msec
