   * xtb version 6.5.1 (579679a) compiled by 'ehlert@majestix' on 2022-07-11
          program call               : /lustre/hpc/kemi/ree/PhD/git/ReactivityQM/dep/xtb-6.5.1/bin/xtb --gfn 1 /lustre/hpc/kemi/ree/PhD/git/ReactivityQM/calculations/R03/reac02prodE03/conf09/R03_reac02prodE03_conf09_gfn1.xyz --opt --vfukui --chrg -1 --uhf 0 --alpb DMSO

   ID    Z sym.   atoms
    1    6 C      1, 3, 5, 6, 8-11, 13, 15, 18, 19, 22, 23, 25
    2    8 O      2, 4, 14, 20, 24, 26
    3    7 N      7, 12, 16, 17, 21
    4    1 H      27-46

      * Solvation model:               ALPB
        Solvent                        DMSO
        Solvent mass                       7.8130E+01 g/mol
          :  Hamiltonian                  GFN1-xTB          :
 * total energy  :   -86.9931474 Eh     change       -0.3352341E-09 Eh
 * total energy  :   -87.0086623 Eh     change       -0.1551493E-01 Eh
 * total energy  :   -87.0148266 Eh     change       -0.6164262E-02 Eh
 * total energy  :   -87.0164928 Eh     change       -0.1666182E-02 Eh
 * total energy  :   -87.0175078 Eh     change       -0.1015003E-02 Eh
 * total energy  :   -87.0180098 Eh     change       -0.5019792E-03 Eh
 * total energy  :   -87.0183761 Eh     change       -0.3663594E-03 Eh
 * total energy  :   -87.0186339 Eh     change       -0.2577685E-03 Eh
 * total energy  :   -87.0188234 Eh     change       -0.1895163E-03 Eh
 * total energy  :   -87.0189296 Eh     change       -0.1061997E-03 Eh
 * total energy  :   -87.0242904 Eh     change       -0.1974079E-04 Eh
 * total energy  :   -87.0243118 Eh     change       -0.2142444E-04 Eh
 * total energy  :   -87.0243293 Eh     change       -0.1754008E-04 Eh
 * total energy  :   -87.0243469 Eh     change       -0.1761257E-04 Eh
 * total energy  :   -87.0243570 Eh     change       -0.1004560E-04 Eh
 * total energy  :   -87.0243656 Eh     change       -0.8606522E-05 Eh
 * total energy  :   -87.0243737 Eh     change       -0.8121235E-05 Eh
 * total energy  :   -87.0243772 Eh     change       -0.3492505E-05 Eh
 * total energy  :   -87.0243812 Eh     change       -0.4008662E-05 Eh
   *** GEOMETRY OPTIMIZATION CONVERGED AFTER 68 ITERATIONS ***

 final structure:
================
46
 xtb: 6.5.1 (579679a)
C           -5.62750182163545        2.18163103312656        1.42685484323124
O           -4.87717429394221        1.64580033322128        0.34894881237842
C           -3.79563131337174        0.82257599233267        0.68747104837981
O           -4.05281094134624       -0.08263476158952        1.71145576773313
C           -3.36157510906160        0.13471721093104        2.93749294747620
C           -2.62867582618972        0.83724113286494       -0.02465161134766
N           -1.66675937443029       -0.11088946419109        0.35549017619263
C           -0.57854228064621       -0.26249168423971       -0.31849964045466
C            0.34787754437577       -1.36640161430979        0.20292184115787
C            0.09880023766795       -2.66140025961724       -0.57908237611138
C            0.06235951914614       -1.62392712375912        1.69034321690742
N            1.76038003246705       -1.00594965548056        0.06363418109380
C            2.28066969091492        0.11827735072417        0.61041407525732
O            1.63013205690714        0.98708531582887        1.17914531049028
C            3.74173915280398        0.22633554695492        0.42169164336223
N            4.52059217265380        1.20403059545448        0.79030392139354
N            5.78385849831848        0.87114701560657        0.39266658393758
C            5.70212819547096       -0.28146167612465       -0.19151879933987
C            6.79840304297540       -1.07202360346849       -0.79395110907617
O            4.44044353252760       -0.74930070782342       -0.21212432936176
N           -0.29403171885528        0.44284067281090       -1.44668408000842
C            0.87121131041577        0.23054940414654       -2.29203079183129
C           -1.12738986184713        1.56394474970317       -1.84816049502317
O           -0.72242803407979        2.26187868033020       -2.81131043021365
C           -2.29181961896123        1.71130201201500       -1.11094650880202
O           -3.11958919792720        2.79504300558080       -1.44738468575732
H           -6.08455394328147        1.38480584114026        2.02446337772935
H           -6.41731755613724        2.79530390924807        0.99137067110426
H           -5.00451200347159        2.80628121407663        2.08011458496800
H           -3.68940987083678       -0.64346223492647        3.62875692175695
H           -2.27696377969327        0.05731145577241        2.79331990430138
H           -3.59689721795116        1.11724466049611        3.36381941274486
H            0.71222665012582       -3.46466937501631       -0.17463615480215
H            0.33388586986089       -2.54432015228273       -1.63490391058211
H           -0.94984012019881       -2.94077964026647       -0.48443801173652
H            0.76033406105676       -2.36676049052478        2.07250577878151
H           -0.95395835654427       -1.99479505242713        1.80906343145902
H            0.16953310793602       -0.70327456587365        2.26278173403629
H            2.39030252166599       -1.71198352637133       -0.27316502829300
H            6.60236566283597       -1.23642837133994       -1.85330216223297
H            6.86462974096789       -2.04601694432735       -0.30995411173923
H            7.74019395707926       -0.54183902317737       -0.67576616318471
H            1.70815189523744        0.85973893793197       -1.97489389588440
H            0.60694119760487        0.49845437339082       -3.31771489162158
H            1.18223335844298       -0.80912743404369       -2.27515175405250
H           -3.99201076905376        2.66639391750909       -1.04502824439420

          :  Hamiltonian                  GFN1-xTB          :
         :: total energy             -87.024381206755 Eh    ::
         :: gradient norm              0.000445965459 Eh/a0 ::
         :: HOMO-LUMO gap              0.148401771351 eV    ::
         :: SCC energy               -87.816771700621 Eh    ::
         :: -> Gsolv                  -0.133745378170 Eh    ::
         :: repulsion energy           0.822406708790 Eh    ::

    * Orbital Energies and Occupations

         #    Occupation            Energy/Eh            Energy/eV
      -------------------------------------------------------------
         1        2.0000           -0.8501235             -23.1330
       ...           ...                  ...                  ...
        59        2.0000           -0.4673004             -12.7159
        60        2.0000           -0.4637739             -12.6199
        61        2.0000           -0.4551352             -12.3849
        62        2.0000           -0.4486499             -12.2084
        63        2.0000           -0.4446472             -12.0995
        64        2.0000           -0.4379170             -11.9163
        65        2.0000           -0.4372451             -11.8980
        66        2.0000           -0.4277761             -11.6404
        67        2.0000           -0.4145084             -11.2793
        68        2.0000           -0.3910323             -10.6405
        69        2.0000           -0.3859781             -10.5030
        70        2.0000           -0.3663201              -9.9681
        71        1.8927           -0.3015580              -8.2058 (HOMO)
        72        0.1073           -0.2961044              -8.0574 (LUMO)
        73                         -0.2447638              -6.6604
        74                         -0.2258877              -6.1467
        75                         -0.1906853              -5.1888
        76                         -0.1816033              -4.9417
        77                         -0.1368117              -3.7228
        78                         -0.1233306              -3.3560
        79                         -0.1226258              -3.3368
        80                         -0.1165058              -3.1703
        81                         -0.1089143              -2.9637
        82                         -0.1007486              -2.7415
       ...                                ...                  ...
       144                          0.7274882              19.7960
      -------------------------------------------------------------
                  HL-Gap            0.0054537 Eh            0.1484 eV

Wiberg/Mayer (AO) data.
largest (>0.10) Wiberg bond orders for each atom

     #   Z sym  total        # sym  WBO       # sym  WBO       # sym  WBO
 ---------------------------------------------------------------------------
     1   6 C    3.909 --    28 H    0.985    27 H    0.982    29 H    0.981
                             2 O    0.934
     2   8 O    2.058 --     3 C    0.935     1 C    0.934
     3   6 C    3.701 --     6 C    1.517     4 O    0.952     2 O    0.935
     4   8 O    2.022 --     3 C    0.952     5 C    0.930
     5   6 C    3.910 --    30 H    0.986    32 H    0.982    31 H    0.978
                             4 O    0.930
     6   6 C    3.949 --     3 C    1.517    25 C    1.164     7 N    1.077
     7   7 N    3.009 --     8 C    1.601     6 C    1.077    21 N    0.133
     8   6 C    3.945 --     7 N    1.601    21 N    1.196     9 C    0.963
     9   6 C    3.933 --    10 C    0.990    11 C    0.989     8 C    0.963
                            12 N    0.923
    10   6 C    3.993 --     9 C    0.990    35 H    0.984    33 H    0.984
                            34 H    0.979
    11   6 C    3.992 --     9 C    0.989    36 H    0.987    37 H    0.983
                            38 H    0.981
    12   7 N    3.325 --    13 C    1.235     9 C    0.923    39 H    0.901
                            14 O    0.168
    13   6 C    3.885 --    14 O    1.557    12 N    1.235    15 C    1.011
    14   8 O    1.845 --    13 C    1.557    12 N    0.168
    15   6 C    3.826 --    16 N    1.585    20 O    1.032    13 C    1.011
    16   7 N    2.940 --    15 C    1.585    17 N    1.191
    17   7 N    2.980 --    18 C    1.620    16 N    1.191
    18   6 C    3.858 --    17 N    1.620    20 O    1.066    19 C    1.030
    19   6 C    3.988 --    18 C    1.030    42 H    0.983    41 H    0.965
                            40 H    0.965
    20   8 O    2.287 --    18 C    1.066    15 C    1.032
    21   7 N    3.397 --     8 C    1.196    22 C    0.957    23 C    0.938
                             7 N    0.133
    22   6 C    3.956 --    45 H    0.980    43 H    0.980    44 H    0.977
                            21 N    0.957
    23   6 C    3.896 --    24 O    1.408    25 C    1.383    21 N    0.938
    24   8 O    1.727 --    23 C    1.408    25 C    0.129
    25   6 C    3.800 --    23 C    1.383     6 C    1.164    26 O    0.966
                            24 O    0.129
    26   8 O    1.926 --    25 C    0.966    46 H    0.848
    27   1 H    1.018 --     1 C    0.982
    28   1 H    1.017 --     1 C    0.985
    29   1 H    1.011 --     1 C    0.981
    30   1 H    1.018 --     5 C    0.986
    31   1 H    1.034 --     5 C    0.978
    32   1 H    1.017 --     5 C    0.982
    33   1 H    1.000 --    10 C    0.984
    34   1 H    1.004 --    10 C    0.979
    35   1 H    1.005 --    10 C    0.984
    36   1 H    1.004 --    11 C    0.987
    37   1 H    1.020 --    11 C    0.983
    38   1 H    1.019 --    11 C    0.981
    39   1 H    0.945 --    12 N    0.901
    40   1 H    0.997 --    19 C    0.965
    41   1 H    0.998 --    19 C    0.965
    42   1 H    1.000 --    19 C    0.983
    43   1 H    1.010 --    22 C    0.980
    44   1 H    1.022 --    22 C    0.977
    45   1 H    1.013 --    22 C    0.980
    46   1 H    0.899 --    26 O    0.848
 ---------------------------------------------------------------------------

           -------------------------------------------------
          | TOTAL ENERGY              -87.024381206755 Eh   |
          | GRADIENT NORM               0.000445965459 Eh/α |
          | HOMO-LUMO GAP               0.148401771351 eV   |
           -------------------------------------------------

 * finished run on 2023/06/20 at 15:17:21.978
