   * xtb version 6.5.1 (579679a) compiled by 'ehlert@majestix' on 2022-07-11
          program call               : /lustre/hpc/kemi/ree/PhD/git/ReactivityQM/dep/xtb-6.5.1/bin/xtb --gfn 1 /lustre/hpc/kemi/ree/PhD/git/ReactivityQM/calculations/R03/reac02prodE11/conf12/R03_reac02prodE11_conf12_gfn1.xyz --opt --vfukui --chrg -1 --uhf 0 --alpb DMSO

   ID    Z sym.   atoms
    1    6 C      1, 3, 5, 7-10, 12, 14, 17-19, 22, 23, 25
    2    8 O      2, 4, 13, 20, 24, 26
    3    7 N      6, 11, 15, 16, 21
    4    1 H      27-46

      * Solvation model:               ALPB
        Solvent                        DMSO
        Solvent mass                       7.8130E+01 g/mol
          :  Hamiltonian                  GFN1-xTB          :
 * total energy  :   -87.0462527 Eh     change       -0.5115908E-11 Eh
 * total energy  :   -87.0570571 Eh     change       -0.1080438E-01 Eh
 * total energy  :   -87.0608713 Eh     change       -0.3814203E-02 Eh
 * total energy  :   -87.0615052 Eh     change       -0.6339163E-03 Eh
 * total energy  :   -87.0618285 Eh     change       -0.3233061E-03 Eh
 * total energy  :   -87.0619398 Eh     change       -0.1112931E-03 Eh
 * total energy  :   -87.0620249 Eh     change       -0.8511887E-04 Eh
 * total energy  :   -87.0620776 Eh     change       -0.5271733E-04 Eh
 * total energy  :   -87.0621133 Eh     change       -0.3565002E-04 Eh
 * total energy  :   -87.0621410 Eh     change       -0.2770460E-04 Eh
 * total energy  :   -87.0622138 Eh     change        0.5775486E-07 Eh
 * total energy  :   -87.0622269 Eh     change       -0.1310261E-04 Eh
 * total energy  :   -87.0622443 Eh     change       -0.1738775E-04 Eh
 * total energy  :   -87.0622571 Eh     change       -0.1279977E-04 Eh
 * total energy  :   -87.0622688 Eh     change       -0.1176456E-04 Eh
 * total energy  :   -87.0622789 Eh     change       -0.1006832E-04 Eh
 * total energy  :   -87.0622893 Eh     change       -0.1035307E-04 Eh
 * total energy  :   -87.0623013 Eh     change       -0.1204422E-04 Eh
 * total energy  :   -87.0623056 Eh     change       -0.4307887E-05 Eh
   *** GEOMETRY OPTIMIZATION CONVERGED AFTER 22 ITERATIONS ***

 final structure:
================
46
 xtb: 6.5.1 (579679a)
C           -6.82226450604213       -2.05886898950209       -0.64803582904281
O           -5.80642439238314       -1.05788286680094       -0.57153072732229
C           -4.63079720777792       -1.44479061460340       -0.06651756481945
O           -4.41540538938577       -2.58103697054376        0.29818072329123
C           -3.63133214458951       -0.34717300346614        0.01588697854190
N           -2.44911575198243       -0.71540166297589        0.59406548029546
C           -1.48321129412733        0.12622661209835        0.78442867846882
C           -0.24347836621801       -0.42749017199129        1.48268517078326
C           -0.34957703669492       -0.06942159673306        2.97597450696338
C           -0.22432711137546       -1.95890124117209        1.32410540033794
N            0.94321830469249        0.15718487373188        0.86835180414112
C            2.23840910261629       -0.25805996547909        1.27708335054017
O            2.44597322114859       -0.75093771626002        2.39887704811117
C            3.19894469999193        0.02488831964880        0.28141547186727
N            2.92686848584290        0.51882020731649       -0.92270586206202
N            4.00808135835677        0.67024400034806       -1.62209911172557
C            5.14036713795904        0.23063342402548       -0.78958052192870
C            6.09919360028441        1.40913457483331       -0.55381251361207
C            5.86442144073728       -0.93870843511576       -1.47492415289704
O            4.57209431568703       -0.19497858136147        0.44157828358399
N           -1.60372419631188        1.44823156031869        0.42527725340632
C           -0.59051147647500        2.48129748028477        0.65778101140458
C           -2.73531073320620        1.91020350256783       -0.21948907981663
O           -2.84993011269941        3.07950772398560       -0.59011935980984
C           -3.79784511197569        0.94251724212003       -0.41479281493352
O           -4.90115971262809        1.41412233109279       -1.01941412320649
H           -6.98411083141930       -2.50888111245766        0.33472385112796
H           -7.72815220752706       -1.56100126237010       -0.98733693167067
H           -6.53225027223952       -2.83813440498265       -1.35730033682507
H           -0.25624075137520        1.00383777228188        3.12899342904823
H            0.43554572164631       -0.57121235000963        3.53846476136744
H           -1.31807478900410       -0.39401591412383        3.35496191463511
H           -1.11705412495436       -2.39340702645537        1.77070522916541
H           -0.19388023621384       -2.22514844353955        0.26818757255349
H            0.65443948912164       -2.36485324440929        1.82254742251698
H            0.87061554124536        0.22542051403288       -0.14193596571675
H            5.55972477091279        2.22191360883118       -0.07037219576452
H            6.49137309658241        1.75948910913666       -1.50628919591438
H            6.92455406845161        1.10039006651377        0.08540472032401
H            6.24836124764231       -0.61639595943879       -2.44051910091238
H            6.68974496943758       -1.28525412815879       -0.85545082114921
H            5.16339021465054       -1.75796818839149       -1.62604137444921
H            0.07024514410948        2.19660303765657        1.46899638904239
H           -0.01098862290468        2.63236357122809       -0.25354327038478
H           -1.10744526991715        3.40712994906409        0.90958933377027
H           -4.76295128169084        2.35976336922164       -1.21506793132280

          :  Hamiltonian                  GFN1-xTB          :
         :: total energy             -87.062305609391 Eh    ::
         :: gradient norm              0.000425692180 Eh/a0 ::
         :: HOMO-LUMO gap              0.180933703650 eV    ::
         :: SCC energy               -87.855056957289 Eh    ::
         :: -> Gsolv                  -0.108470743233 Eh    ::
         :: repulsion energy           0.821593283990 Eh    ::

    * Orbital Energies and Occupations

         #    Occupation            Energy/Eh            Energy/eV
      -------------------------------------------------------------
         1        2.0000           -0.8322839             -22.6476
       ...           ...                  ...                  ...
        59        2.0000           -0.4764311             -12.9644
        60        2.0000           -0.4726144             -12.8605
        61        2.0000           -0.4631337             -12.6025
        62        2.0000           -0.4511647             -12.2768
        63        2.0000           -0.4495294             -12.2323
        64        2.0000           -0.4414016             -12.0111
        65        2.0000           -0.4356799             -11.8555
        66        2.0000           -0.4238765             -11.5343
        67        2.0000           -0.4186486             -11.3920
        68        2.0000           -0.4118782             -11.2078
        69        2.0000           -0.3988290             -10.8527
        70        2.0000           -0.3770270             -10.2594
        71        1.9413           -0.3213804              -8.7452 (HOMO)
        72        0.0587           -0.3147313              -8.5643 (LUMO)
        73                         -0.2715661              -7.3897
        74                         -0.2457651              -6.6876
        75                         -0.2315369              -6.3004
        76                         -0.1472235              -4.0062
        77                         -0.1354997              -3.6871
        78                         -0.1338441              -3.6421
        79                         -0.1270064              -3.4560
        80                         -0.1125398              -3.0624
        81                         -0.1054300              -2.8689
        82                         -0.1026386              -2.7929
       ...                                ...                  ...
       144                          0.7277575              19.8033
      -------------------------------------------------------------
                  HL-Gap            0.0066492 Eh            0.1809 eV

Wiberg/Mayer (AO) data.
largest (>0.10) Wiberg bond orders for each atom

     #   Z sym  total        # sym  WBO       # sym  WBO       # sym  WBO
 ---------------------------------------------------------------------------
     1   6 C    3.877 --    28 H    0.986    27 H    0.980    29 H    0.980
                             2 O    0.903
     2   8 O    2.191 --     3 C    1.101     1 C    0.903     4 O    0.130
     3   6 C    3.834 --     4 O    1.644     2 O    1.101     5 C    1.011
     4   8 O    1.900 --     3 C    1.644     2 O    0.130
     5   6 C    3.946 --    25 C    1.473     6 N    1.190     3 C    1.011
     6   7 N    3.028 --     7 C    1.568     5 C    1.190
     7   6 C    3.914 --     6 N    1.568    21 N    1.163     8 C    0.975
     8   6 C    3.955 --    10 C    0.987     9 C    0.978     7 C    0.975
                            11 N    0.957
     9   6 C    3.991 --    32 H    0.987    30 H    0.981     8 C    0.978
                            31 H    0.976
    10   6 C    3.992 --     8 C    0.987    34 H    0.986    33 H    0.985
                            35 H    0.982
    11   7 N    3.163 --    12 C    1.033     8 C    0.957    36 H    0.918
    12   6 C    3.914 --    13 O    1.477    14 C    1.223    11 N    1.033
    13   8 O    1.818 --    12 C    1.477
    14   6 C    3.823 --    15 N    1.379    12 C    1.223    20 O    0.945
                            16 N    0.144
    15   7 N    3.051 --    16 N    1.477    14 C    1.379
    16   7 N    2.858 --    15 N    1.477    17 C    0.981    14 C    0.144
    17   6 C    3.898 --    16 N    0.981    19 C    0.978    18 C    0.977
                            20 O    0.924
    18   6 C    3.991 --    38 H    0.988    39 H    0.986    37 H    0.985
                            17 C    0.977
    19   6 C    3.991 --    40 H    0.988    41 H    0.986    42 H    0.985
                            17 C    0.978
    20   8 O    2.056 --    14 C    0.945    17 C    0.924
    21   7 N    3.499 --     7 C    1.163    23 C    1.136    22 C    0.928
                            24 O    0.132
    22   6 C    3.923 --    43 H    0.977    45 H    0.977    44 H    0.976
                            21 N    0.928
    23   6 C    3.907 --    24 O    1.531    21 N    1.136    25 C    1.092
    24   8 O    1.872 --    23 C    1.531    21 N    0.132
    25   6 C    3.897 --     5 C    1.473    23 C    1.092    26 O    1.091
    26   8 O    2.064 --    25 C    1.091    46 H    0.810
    27   1 H    1.009 --     1 C    0.980
    28   1 H    1.012 --     1 C    0.986
    29   1 H    1.008 --     1 C    0.980
    30   1 H    1.006 --     9 C    0.981
    31   1 H    1.022 --     9 C    0.976
    32   1 H    1.006 --     9 C    0.987
    33   1 H    1.017 --    10 C    0.985
    34   1 H    1.008 --    10 C    0.986
    35   1 H    1.012 --    10 C    0.982
    36   1 H    0.983 --    11 N    0.918
    37   1 H    1.013 --    18 C    0.985
    38   1 H    1.009 --    18 C    0.988
    39   1 H    1.008 --    18 C    0.986
    40   1 H    1.009 --    19 C    0.988
    41   1 H    1.007 --    19 C    0.986
    42   1 H    1.013 --    19 C    0.985
    43   1 H    1.022 --    22 C    0.977
    44   1 H    1.005 --    22 C    0.976
    45   1 H    1.008 --    22 C    0.977
    46   1 H    0.854 --    26 O    0.810
 ---------------------------------------------------------------------------

           -------------------------------------------------
          | TOTAL ENERGY              -87.062305609391 Eh   |
          | GRADIENT NORM               0.000425692180 Eh/α |
          | HOMO-LUMO GAP               0.180933703650 eV   |
           -------------------------------------------------

 * finished run on 2023/06/20 at 15:32:26.409
