   * xtb version 6.5.1 (579679a) compiled by 'ehlert@majestix' on 2022-07-11
          program call               : /lustre/hpc/kemi/ree/PhD/git/ReactivityQM/dep/xtb-6.5.1/bin/xtb --gfn 1 /lustre/hpc/kemi/ree/PhD/git/ReactivityQM/calculations/R02/reac01prodN16/conf17/R02_reac01prodN16_conf17_gfn1.xyz --opt --vfukui --chrg 1 --uhf 0 --alpb DMSO

   ID    Z sym.   atoms
    1    6 C      1, 2, 5, 6, 9-12, 14, 15, 18-20, 22
    2    7 N      3, 4, 8, 13, 24
    3    8 O      7, 16, 17, 21, 23, 25
    4    1 H      26-43

      * Solvation model:               ALPB
        Solvent                        DMSO
        Solvent mass                       7.8130E+01 g/mol
          :  Hamiltonian                  GFN1-xTB          :
 * total energy  :   -83.0992980 Eh     change       -0.3080913E-10 Eh
 * total energy  :   -83.1130363 Eh     change       -0.1373824E-01 Eh
 * total energy  :   -83.1180888 Eh     change       -0.5052484E-02 Eh
 * total energy  :   -83.1195870 Eh     change       -0.1498216E-02 Eh
 * total energy  :   -83.1206044 Eh     change       -0.1017444E-02 Eh
 * total energy  :   -83.1213125 Eh     change       -0.7081161E-03 Eh
 * total energy  :   -83.1219398 Eh     change       -0.6272879E-03 Eh
 * total energy  :   -83.1224269 Eh     change       -0.4870481E-03 Eh
 * total energy  :   -83.1227486 Eh     change       -0.3217090E-03 Eh
 * total energy  :   -83.1230855 Eh     change       -0.3368824E-03 Eh
 * total energy  :   -83.1280821 Eh     change       -0.5431424E-04 Eh
 * total energy  :   -83.1280925 Eh     change       -0.1034277E-04 Eh
 * total energy  :   -83.1281019 Eh     change       -0.9467871E-05 Eh
 * total energy  :   -83.1281092 Eh     change       -0.7218308E-05 Eh
 * total energy  :   -83.1281142 Eh     change       -0.5010729E-05 Eh
 * total energy  :   -83.1281228 Eh     change       -0.8633560E-05 Eh
 * total energy  :   -83.1281280 Eh     change       -0.5219638E-05 Eh
 * total energy  :   -83.1281407 Eh     change       -0.1263299E-04 Eh
 * total energy  :   -83.1281438 Eh     change       -0.3162633E-05 Eh
   *** GEOMETRY OPTIMIZATION CONVERGED AFTER 39 ITERATIONS ***

 final structure:
================
43
 xtb: 6.5.1 (579679a)
C            5.70151531775999       -1.73521650487627        1.79130164717106
C            5.47069487923811       -0.84915607391186        0.63023464440202
N            6.34881925893984       -0.35060820233511       -0.18297032507921
N            5.66374991318236        0.39686636307593       -1.09209352917834
C            4.40903855165539        0.31063004649111       -0.77902118089881
C            3.25231435286060        0.94088139990244       -1.45861089158905
O            3.37602088336788        1.63983105162394       -2.44705129115532
N            2.07986281566145        0.66158401080345       -0.83491588160202
C            0.77927523148964        1.06083423707980       -1.37874279740497
C            0.52434117792316        0.34650087068588       -2.70919632196834
C            0.71578401036301        2.58862121765742       -1.54028237327414
C           -0.26446065866141        0.66599187269353       -0.35890344657611
N           -1.38142934873113        0.15302498448795       -0.74522746616501
C           -2.34339487010220       -0.18074863075562        0.18406510226097
C           -3.54480938550832       -0.69214728565448       -0.43827559331412
O           -3.88001178678697       -0.70692700901694       -1.57050233985922
O           -4.53874208407605       -1.22089040347445        0.56244224460986
C           -5.90778275238567       -1.19257073804307        0.06187621809857
C           -4.17401154445814       -2.49058884324470        1.18280987574387
C           -2.13362393606342        0.05237273851805        1.52321770449671
O           -3.00147687269219       -0.22919853735993        2.47959414810647
C           -0.87163010235163        0.66411826308471        1.97071788527144
O           -0.65100562367151        0.89777790997392        3.14244227906723
N            0.00554998718744        0.93395409288463        0.95590841376427
O            4.22261052299614       -0.46946400414745        0.30865784949396
H            5.26772696134356       -1.29106752889927        2.68670080227294
H            5.21365689334404       -2.69583088020196        1.62548786927489
H            6.76903168780450       -1.88722948546610        1.93425902017154
H            2.08620255180455       -0.04944997159902       -0.12393116617699
H            0.57273081025023       -0.73133286892853       -2.56529089641887
H           -0.46519506290297        0.60971369794983       -3.07903915647802
H            1.27447412208503        0.64774958973519       -3.43875002856827
H            1.00623614347047        3.07184855480335       -0.60945096781347
H           -0.30240710221752        2.88183064974359       -1.79114737147069
H            1.38608687718556        2.90980736064438       -2.33543707139930
H           -6.54436996698465       -1.47046290891580        0.89745854341860
H           -6.10220706659602       -0.17083526990468       -0.25556686888279
H           -6.00940605330064       -1.89230141406622       -0.76747671141349
H           -4.74442734681886       -2.55737108678899        2.10639909174581
H           -3.10909673942644       -2.45578725007729        1.39171922119869
H           -4.41411638812904       -3.30629670689740        0.50091269680197
H           -2.63781789199159        0.04937124289570        3.34641774453417
H            0.89569863408898        1.33552944985898        1.21926067462639

          :  Hamiltonian                  GFN1-xTB          :
         :: total energy             -83.128143817857 Eh    ::
         :: gradient norm              0.000757211170 Eh/a0 ::
         :: HOMO-LUMO gap              1.982249428704 eV    ::
         :: SCC energy               -83.934479283501 Eh    ::
         :: -> Gsolv                  -0.128048238302 Eh    ::
         :: repulsion energy           0.832603115983 Eh    ::

    * Orbital Energies and Occupations

         #    Occupation            Energy/Eh            Energy/eV
      -------------------------------------------------------------
         1        2.0000           -0.9301996             -25.3120
       ...           ...                  ...                  ...
        55        2.0000           -0.5252626             -14.2931
        56        2.0000           -0.5224731             -14.2172
        57        2.0000           -0.5164578             -14.0535
        58        2.0000           -0.5101375             -13.8815
        59        2.0000           -0.5080859             -13.8257
        60        2.0000           -0.4930811             -13.4174
        61        2.0000           -0.4841423             -13.1742
        62        2.0000           -0.4821960             -13.1212
        63        2.0000           -0.4708594             -12.8127
        64        2.0000           -0.4678757             -12.7315
        65        2.0000           -0.4636394             -12.6163
        66        2.0000           -0.4555258             -12.3955
        67        2.0000           -0.4536078             -12.3433 (HOMO)
        68                         -0.3807614             -10.3610 (LUMO)
        69                         -0.3165882              -8.6148
        70                         -0.3146240              -8.5614
        71                         -0.2909487              -7.9171
        72                         -0.2591586              -7.0521
        73                         -0.2039463              -5.5497
        74                         -0.1989497              -5.4137
        75                         -0.1810099              -4.9255
        76                         -0.1723021              -4.6886
        77                         -0.1428068              -3.8860
        78                         -0.1378639              -3.7515
       ...                                ...                  ...
       136                          0.7485152              20.3681
      -------------------------------------------------------------
                  HL-Gap            0.0728463 Eh            1.9822 eV

Wiberg/Mayer (AO) data.
largest (>0.10) Wiberg bond orders for each atom

     #   Z sym  total        # sym  WBO       # sym  WBO       # sym  WBO
 ---------------------------------------------------------------------------
     1   6 C    3.986 --     2 C    1.032    28 H    0.982    26 H    0.964
                            27 H    0.961
     2   6 C    3.867 --     3 N    1.609    25 O    1.071     1 C    1.032
     3   7 N    2.982 --     2 C    1.609     4 N    1.201
     4   7 N    3.002 --     5 C    1.621     3 N    1.201
     5   6 C    3.873 --     4 N    1.621    25 O    1.045     6 C    0.996
     6   6 C    3.913 --     7 O    1.603     8 N    1.229     5 C    0.996
     7   8 O    1.916 --     6 C    1.603     8 N    0.170
     8   7 N    3.322 --     6 C    1.229     9 C    0.928    29 H    0.892
                             7 O    0.170
     9   6 C    3.934 --    10 C    0.989    12 C    0.983    11 C    0.971
                             8 N    0.928
    10   6 C    3.987 --     9 C    0.989    30 H    0.985    31 H    0.983
                            32 H    0.981
    11   6 C    3.984 --    34 H    0.985    33 H    0.984    35 H    0.975
                             9 C    0.971
    12   6 C    3.921 --    13 N    1.600    24 N    1.160     9 C    0.983
    13   7 N    3.023 --    12 C    1.600    14 C    1.150
    14   6 C    3.960 --    20 C    1.446    13 N    1.150    15 C    1.099
    15   6 C    3.801 --    16 O    1.825    14 C    1.099    17 O    0.739
    16   8 O    2.086 --    15 C    1.825
    17   8 O    2.482 --    18 C    0.815    19 C    0.808    15 C    0.739
    18   6 C    3.786 --    38 H    0.979    36 H    0.977    37 H    0.976
                            17 O    0.815
    19   6 C    3.784 --    41 H    0.980    39 H    0.976    40 H    0.976
                            17 O    0.808
    20   6 C    3.911 --    14 C    1.446    21 O    1.156    22 C    1.029
    21   8 O    2.132 --    20 C    1.156    42 H    0.778
    22   6 C    3.915 --    23 O    1.611    24 N    1.153    20 C    1.029
    23   8 O    1.936 --    22 C    1.611    24 N    0.142
    24   7 N    3.477 --    12 C    1.160    22 C    1.153    43 H    0.871
                            23 O    0.142
    25   8 O    2.315 --     2 C    1.071     5 C    1.045
    26   1 H    0.996 --     1 C    0.964
    27   1 H    0.996 --     1 C    0.961
    28   1 H    0.998 --     1 C    0.982
    29   1 H    0.935 --     8 N    0.892
    30   1 H    1.002 --    10 C    0.985
    31   1 H    1.007 --    10 C    0.983
    32   1 H    1.005 --    10 C    0.981
    33   1 H    1.000 --    11 C    0.984
    34   1 H    1.000 --    11 C    0.985
    35   1 H    1.009 --    11 C    0.975
    36   1 H    0.993 --    18 C    0.977
    37   1 H    0.995 --    18 C    0.976
    38   1 H    0.996 --    18 C    0.979
    39   1 H    0.996 --    19 C    0.976
    40   1 H    1.000 --    19 C    0.976
    41   1 H    0.991 --    19 C    0.980
    42   1 H    0.819 --    21 O    0.778
    43   1 H    0.915 --    24 N    0.871
 ---------------------------------------------------------------------------

           -------------------------------------------------
          | TOTAL ENERGY              -83.128143817857 Eh   |
          | GRADIENT NORM               0.000757211170 Eh/α |
          | HOMO-LUMO GAP               1.982249428704 eV   |
           -------------------------------------------------

 * finished run on 2023/06/20 at 15:43:05.851
