   * xtb version 6.5.1 (579679a) compiled by 'ehlert@majestix' on 2022-07-11
          program call               : /lustre/hpc/kemi/ree/PhD/git/ReactivityQM/dep/xtb-6.5.1/bin/xtb --gfn 1 /lustre/hpc/kemi/ree/PhD/git/ReactivityQM/calculations/R02oxygendeprot/reac01prodN18/conf03/R02oxygendeprot_reac01prodN18_conf03_gfn1.xyz --opt --vfukui --chrg 0 --uhf 0 --alpb DMSO

   ID    Z sym.   atoms
    1    6 C      1, 3, 5, 6, 8, 11-15, 17, 19, 22, 23
    2    8 O      2, 4, 7, 9, 18, 24
    3    7 N      10, 16, 20, 21, 25
    4    1 H      26-42

      * Solvation model:               ALPB
        Solvent                        DMSO
        Solvent mass                       7.8130E+01 g/mol
          :  Hamiltonian                  GFN1-xTB          :
 * total energy  :   -82.9254389 Eh     change       -0.6906475E-11 Eh
 * total energy  :   -82.9413600 Eh     change       -0.1592108E-01 Eh
 * total energy  :   -82.9481256 Eh     change       -0.6765596E-02 Eh
 * total energy  :   -82.9494908 Eh     change       -0.1365163E-02 Eh
 * total energy  :   -82.9503090 Eh     change       -0.8182451E-03 Eh
 * total energy  :   -82.9508190 Eh     change       -0.5099699E-03 Eh
 * total energy  :   -82.9512040 Eh     change       -0.3850500E-03 Eh
 * total energy  :   -82.9515427 Eh     change       -0.3386323E-03 Eh
 * total energy  :   -82.9517532 Eh     change       -0.2105455E-03 Eh
 * total energy  :   -82.9518604 Eh     change       -0.1072319E-03 Eh
 * total energy  :   -82.9522327 Eh     change       -0.3377876E-04 Eh
 * total energy  :   -82.9522604 Eh     change       -0.2769429E-04 Eh
 * total energy  :   -82.9522835 Eh     change       -0.2316661E-04 Eh
 * total energy  :   -82.9522992 Eh     change       -0.1564406E-04 Eh
 * total energy  :   -82.9523109 Eh     change       -0.1168555E-04 Eh
 * total energy  :   -82.9523334 Eh     change       -0.2252423E-04 Eh
 * total energy  :   -82.9523403 Eh     change       -0.6869994E-05 Eh
 * total energy  :   -82.9523479 Eh     change       -0.7653171E-05 Eh
 * total energy  :   -82.9523520 Eh     change       -0.4058114E-05 Eh
   *** GEOMETRY OPTIMIZATION CONVERGED AFTER 28 ITERATIONS ***

 final structure:
================
42
 xtb: 6.5.1 (579679a)
C           -6.57433495287919        1.22211875801661       -0.16014713733093
O           -5.42706487984466        0.38835790233485       -0.00994191811667
C           -4.24798509921583        0.93603499044827       -0.34907581087057
O           -4.15867718943302        2.08181955544959       -0.75287769635618
C           -3.10292095493400        0.03806035345031       -0.16535355947383
C           -3.20241235277705       -1.32397887416698        0.17982569540594
O           -4.21126530672443       -1.99258860678680        0.41593074885245
C           -1.87228387712980       -2.07229852122985        0.18256117257528
O           -1.65857297638949       -3.23559297638796        0.07700562611108
N           -0.68015493891829       -1.18229127260772        0.45612682548740
C           -0.70277869363877       -0.96638744298632        1.93467328607801
C           -0.76760208380912        0.10677176377683       -0.28577552969646
C            0.50191316701472        0.65781757136103       -0.89477536343618
C            0.52176261863805        2.18499461828886       -0.76060667953451
C            0.50311511435987        0.26197813943716       -2.38040267710645
N            1.69435515321411        0.04787349696515       -0.30175461027876
C            2.22675128766982        0.40715457830726        0.89103006719194
O            1.66985317802139        1.09864522709324        1.72820905638149
C            3.56783265302478       -0.17670019074936        1.11653397304381
N            4.33705935250871       -0.02688697942869        2.14987464998899
N            5.46588178645640       -0.74729108661746        1.90764339392550
C            5.31851721898813       -1.29398623481356        0.74019318498796
C            6.26510971598359       -2.17253429209214        0.02043680337048
O            4.13900457332806       -0.97139725608171        0.18533185908320
N           -1.89458647266264        0.61629619716019       -0.52063896692724
H           -6.47184321535337        2.12412093371973        0.44955650617594
H           -7.43203927346103        0.64021204397036        0.17371884354666
H           -6.70088637778610        1.51111546110977       -1.20719519946699
H            0.17041870545342       -1.68397932874783        0.20542473559980
H           -0.60739503115618       -1.93699440456637        2.41460076557124
H            0.12996004777382       -0.32212361893857        2.19986491488620
H           -1.64419137697436       -0.49340465026431        2.20557346859500
H            1.44072023493075        2.57781968581395       -1.19034382189417
H            0.45436078378016        2.48399044561369        0.28348999489010
H           -0.33274344197102        2.59327884841670       -1.29912309464351
H           -0.38525600978090        0.66449823462159       -2.86511027507588
H            0.50041298560921       -0.82185233176352       -2.48019842307651
H            1.38949081178367        0.66259222105998       -2.86821728761921
H            2.28572093871966       -0.47581066252488       -0.92675646216570
H            5.75995185337271       -3.08801168262954       -0.28514437381995
H            7.10789303371842       -2.41236000183317        0.66439024546833
H            6.62491229049842       -1.67160261118564       -0.87855993033358

          :  Hamiltonian                  GFN1-xTB          :
         :: total energy             -82.952351980322 Eh    ::
         :: gradient norm              0.000511100162 Eh/a0 ::
         :: HOMO-LUMO gap              1.620000023837 eV    ::
         :: SCC energy               -83.733556231904 Eh    ::
         :: -> Gsolv                  -0.074919384199 Eh    ::
         :: repulsion energy           0.808430144998 Eh    ::

    * Orbital Energies and Occupations

         #    Occupation            Energy/Eh            Energy/eV
      -------------------------------------------------------------
         1        2.0000           -0.8748499             -23.8059
       ...           ...                  ...                  ...
        55        2.0000           -0.5074024             -13.8071
        56        2.0000           -0.5040332             -13.7154
        57        2.0000           -0.5039146             -13.7122
        58        2.0000           -0.4842242             -13.1764
        59        2.0000           -0.4827415             -13.1361
        60        2.0000           -0.4753640             -12.9353
        61        2.0000           -0.4706505             -12.8071
        62        2.0000           -0.4678121             -12.7298
        63        2.0000           -0.4622228             -12.5777
        64        2.0000           -0.4565740             -12.4240
        65        2.0000           -0.4545254             -12.3683
        66        2.0000           -0.4296283             -11.6908
        67        2.0000           -0.4092850             -11.1372 (HOMO)
        68                         -0.3497511              -9.5172 (LUMO)
        69                         -0.3190301              -8.6813
        70                         -0.2880214              -7.8375
        71                         -0.2599840              -7.0745
        72                         -0.2504620              -6.8154
        73                         -0.2064245              -5.6171
        74                         -0.1647732              -4.4837
        75                         -0.1493347              -4.0636
        76                         -0.1426161              -3.8808
        77                         -0.1420767              -3.8661
        78                         -0.1328251              -3.6144
       ...                                ...                  ...
       134                          0.7725893              21.0232
      -------------------------------------------------------------
                  HL-Gap            0.0595339 Eh            1.6200 eV

Wiberg/Mayer (AO) data.
largest (>0.10) Wiberg bond orders for each atom

     #   Z sym  total        # sym  WBO       # sym  WBO       # sym  WBO
 ---------------------------------------------------------------------------
     1   6 C    3.884 --    27 H    0.986    28 H    0.980    26 H    0.980
                             2 O    0.910
     2   8 O    2.181 --     3 C    1.081     1 C    0.910     4 O    0.120
     3   6 C    3.860 --     4 O    1.607     2 O    1.081     5 C    1.075
     4   8 O    1.881 --     3 C    1.607     2 O    0.120
     5   6 C    3.904 --     6 C    1.297    25 N    1.116     3 C    1.075
                             7 O    0.152
     6   6 C    3.942 --     7 O    1.549     5 C    1.297     8 C    0.918
     7   8 O    1.891 --     6 C    1.549     5 C    0.152
     8   6 C    3.782 --     9 O    1.854     6 C    0.918    10 N    0.838
     9   8 O    2.068 --     8 C    1.854
    10   7 N    3.604 --    11 C    0.881    29 H    0.880    12 C    0.850
                             8 C    0.838
    11   6 C    3.884 --    32 H    0.984    30 H    0.982    31 H    0.967
                            10 N    0.881
    12   6 C    3.888 --    25 N    1.783    13 C    0.980    10 N    0.850
    13   6 C    3.933 --    14 C    0.984    12 C    0.980    15 C    0.976
                            16 N    0.928
    14   6 C    3.986 --    33 H    0.985    13 C    0.984    35 H    0.983
                            34 H    0.979
    15   6 C    3.986 --    37 H    0.984    36 H    0.983    38 H    0.981
                            13 C    0.976
    16   7 N    3.332 --    17 C    1.239    13 C    0.928    39 H    0.890
                            18 O    0.168
    17   6 C    3.913 --    18 O    1.581    16 N    1.239    19 C    1.001
    18   8 O    1.912 --    17 C    1.581    16 N    0.168
    19   6 C    3.875 --    20 N    1.617    24 O    1.046    17 C    1.001
    20   7 N    3.004 --    19 C    1.617    21 N    1.204
    21   7 N    2.982 --    22 C    1.605    20 N    1.204
    22   6 C    3.866 --    21 N    1.605    24 O    1.073    23 C    1.033
    23   6 C    3.985 --    22 C    1.033    41 H    0.982    40 H    0.965
                            42 H    0.959
    24   8 O    2.318 --    22 C    1.073    19 C    1.046
    25   7 N    3.083 --    12 C    1.783     5 C    1.116
    26   1 H    1.010 --     1 C    0.980
    27   1 H    1.013 --     1 C    0.986
    28   1 H    1.010 --     1 C    0.980
    29   1 H    0.937 --    10 N    0.880
    30   1 H    0.992 --    11 C    0.982
    31   1 H    1.007 --    11 C    0.967
    32   1 H    0.997 --    11 C    0.984
    33   1 H    0.999 --    14 C    0.985
    34   1 H    1.012 --    14 C    0.979
    35   1 H    1.007 --    14 C    0.983
    36   1 H    1.002 --    15 C    0.983
    37   1 H    0.997 --    15 C    0.984
    38   1 H    0.996 --    15 C    0.981
    39   1 H    0.933 --    16 N    0.890
    40   1 H    0.996 --    23 C    0.965
    41   1 H    0.998 --    23 C    0.982
    42   1 H    0.996 --    23 C    0.959
 ---------------------------------------------------------------------------

           -------------------------------------------------
          | TOTAL ENERGY              -82.952351980322 Eh   |
          | GRADIENT NORM               0.000511100162 Eh/α |
          | HOMO-LUMO GAP               1.620000023837 eV   |
           -------------------------------------------------

 * finished run on 2023/06/21 at 17:38:11.464
