   * xtb version 6.5.1 (579679a) compiled by 'ehlert@majestix' on 2022-07-11
          program call               : /lustre/hpc/kemi/ree/PhD/git/ReactivityQM/dep/xtb-6.5.1/bin/xtb --gfn 1 /lustre/hpc/kemi/ree/PhD/git/ReactivityQM/calculations/RaltegravirCLI/reac02prodN14/conf16/RaltegravirCLI_reac02prodN14_conf16_gfn1.xyz --opt --vfukui --chrg 1 --uhf 0 --alpb DMSO

   ID    Z sym.   atoms
    1    6 C      1-3, 5, 7, 8, 11-15, 17-19, 21, 24, 25
    2    7 N      4, 6, 10, 23
    3    8 O      9, 20, 22
    4    9 F      16
    5    1 H      26-47

      * Solvation model:               ALPB
        Solvent                        DMSO
        Solvent mass                       7.8130E+01 g/mol
          :  Hamiltonian                  GFN1-xTB          :
 * total energy  :   -79.4630227 Eh     change       -0.7987921E-10 Eh
 * total energy  :   -79.4755526 Eh     change       -0.1252988E-01 Eh
 * total energy  :   -79.4800168 Eh     change       -0.4464261E-02 Eh
 * total energy  :   -79.4809369 Eh     change       -0.9201169E-03 Eh
 * total energy  :   -79.4813967 Eh     change       -0.4597877E-03 Eh
 * total energy  :   -79.4816039 Eh     change       -0.2071679E-03 Eh
 * total energy  :   -79.4817643 Eh     change       -0.1604123E-03 Eh
 * total energy  :   -79.4818819 Eh     change       -0.1175545E-03 Eh
 * total energy  :   -79.4819599 Eh     change       -0.7800859E-04 Eh
 * total energy  :   -79.4820174 Eh     change       -0.5750398E-04 Eh
 * total energy  :   -79.4824461 Eh     change       -0.9951552E-05 Eh
 * total energy  :   -79.4824571 Eh     change       -0.1096671E-04 Eh
 * total energy  :   -79.4824671 Eh     change       -0.9975308E-05 Eh
 * total energy  :   -79.4824774 Eh     change       -0.1034736E-04 Eh
 * total energy  :   -79.4824907 Eh     change       -0.1328198E-04 Eh
 * total energy  :   -79.4825057 Eh     change       -0.1498235E-04 Eh
 * total energy  :   -79.4825175 Eh     change       -0.1178997E-04 Eh
 * total energy  :   -79.4825249 Eh     change       -0.7402397E-05 Eh
 * total energy  :   -79.4825291 Eh     change       -0.4209825E-05 Eh
   *** GEOMETRY OPTIMIZATION CONVERGED AFTER 33 ITERATIONS ***

 final structure:
================
47
 xtb: 6.5.1 (579679a)
C           -2.93451473053483       -2.49276203237908       -0.31794420279730
C           -3.10357418089827       -1.31296751570221        0.65566363174837
C           -2.59072865998364       -1.71152708977251        2.05056941568018
N           -4.50670266486635       -0.94233852124171        0.75168350946695
C           -2.22340656240730       -0.17500212191053        0.16840013945276
N           -1.05997267756626       -0.46351419348215       -0.22765087784783
C           -0.09565801944294        0.43050031088857       -0.64579638600541
C            1.15946365900109       -0.26015338387851       -1.12388612303296
O            1.20207660351963       -1.47914528618726       -1.18762650099000
N            2.17693101341374        0.54017012898585       -1.47155711082367
C            3.43247656783852       -0.02050559504230       -1.97080865433657
C            4.42706463713501       -0.20825349399308       -0.84480582737545
C            5.54447865971485        0.61661508595331       -0.74786405293955
C            6.45697358653371        0.45192819009430        0.28571369238193
C            6.22317551790085       -0.54680247365181        1.21308857088654
F            7.09789836531715       -0.71154459623056        2.21710314091601
C            5.12313886118751       -1.38379936259207        1.14658923366485
C            4.22335112377817       -1.20742574710272        0.10594678644757
C           -0.35369986139429        1.76517386206476       -0.58042007815513
O            0.53525263488543        2.71087588953578       -0.90975125077107
C           -1.63968093195549        2.26390072003484       -0.13316416655105
O           -1.92833200085656        3.42302241988395       -0.04106026499340
N           -2.70304830669830        1.24382244974027        0.18380193615184
C           -3.72444920077412        1.42127763801633       -0.89833054911032
C           -3.27784996379955        1.62216001616307        1.51030968413995
H           -3.53461373808851       -3.33048819822167        0.03229234455467
H           -3.27209371755254       -2.20469118576706       -1.31202773046154
H           -1.88865521037929       -2.79328519252526       -0.37130097421121
H           -2.75217193530655       -0.90372308966093        2.76149686226197
H           -1.52671094370874       -1.94042601833437        2.00743680611061
H           -3.13235089261205       -2.59262478582212        2.39078727768741
H           -4.99765610828343       -1.21311055966794       -0.09003340736965
H           -4.93988193474473       -1.43090497093579        1.52317578749121
H            2.11482681456529        1.53909897152759       -1.38208562685622
H            3.82583559920663        0.66713522471839       -2.72228611669352
H            3.20362212712218       -0.98172828793302       -2.44215355979524
H            5.70833141030084        1.39417934262442       -1.48419426778941
H            7.32866905042480        1.08747648592449        0.37204187226456
H            4.97631458900991       -2.15377772713722        1.89294243927840
H            3.35559679864234       -1.85207338211818        0.03173054652329
H            0.16379919939574        3.60438459468264       -0.81228014672463
H           -3.29919220398568        1.06818406181896       -1.83421622559203
H           -4.60298889634861        0.84664211006678       -0.62766984626244
H           -3.96513161619518        2.48023646738791       -0.95709793945336
H           -3.57708124908730        2.66614651042988        1.45396104368096
H           -2.51128516034600        1.48363205570723        2.26832884823374
H           -4.13784745108190        0.98601527503538        1.69738731791326

          :  Hamiltonian                  GFN1-xTB          :
         :: total energy             -79.482529105960 Eh    ::
         :: gradient norm              0.000441280934 Eh/a0 ::
         :: HOMO-LUMO gap              1.281544878257 eV    ::
         :: SCC energy               -80.381515654066 Eh    ::
         :: -> Gsolv                  -0.113990896224 Eh    ::
         :: repulsion energy           0.930321901358 Eh    ::

    * Orbital Energies and Occupations

         #    Occupation            Energy/Eh            Energy/eV
      -------------------------------------------------------------
         1        2.0000           -0.8926460             -24.2901
       ...           ...                  ...                  ...
        55        2.0000           -0.5185616             -14.1108
        56        2.0000           -0.5152024             -14.0194
        57        2.0000           -0.5121733             -13.9369
        58        2.0000           -0.5087262             -13.8431
        59        2.0000           -0.5071378             -13.7999
        60        2.0000           -0.4870624             -13.2536
        61        2.0000           -0.4784099             -13.0182
        62        2.0000           -0.4753009             -12.9336
        63        2.0000           -0.4706624             -12.8074
        64        2.0000           -0.4563690             -12.4184
        65        2.0000           -0.4545061             -12.3677
        66        2.0000           -0.4423443             -12.0368
        67        2.0000           -0.4377975             -11.9131 (HOMO)
        68                         -0.3907016             -10.6315 (LUMO)
        69                         -0.3192931              -8.6884
        70                         -0.2789634              -7.5910
        71                         -0.2781545              -7.5690
        72                         -0.2718254              -7.3967
        73                         -0.2000477              -5.4436
        74                         -0.1631636              -4.4399
        75                         -0.1580295              -4.3002
        76                         -0.1512556              -4.1159
        77                         -0.1391011              -3.7851
        78                         -0.1344197              -3.6577
       ...                                ...                  ...
       144                          0.7098718              19.3166
      -------------------------------------------------------------
                  HL-Gap            0.0470959 Eh            1.2815 eV

Wiberg/Mayer (AO) data.
largest (>0.10) Wiberg bond orders for each atom

     #   Z sym  total        # sym  WBO       # sym  WBO       # sym  WBO
 ---------------------------------------------------------------------------
     1   6 C    3.988 --    27 H    0.985    26 H    0.983    28 H    0.981
                             2 C    0.974
     2   6 C    3.958 --     4 N    0.994     5 C    0.983     1 C    0.974
                             3 C    0.965
     3   6 C    3.986 --    30 H    0.984    29 H    0.983    31 H    0.978
                             2 C    0.965
     4   7 N    2.996 --     2 C    0.994    32 H    0.931    33 H    0.928
     5   6 C    3.888 --     6 N    1.775     2 C    0.983    23 N    0.869
     6   7 N    3.088 --     5 C    1.775     7 C    1.118
     7   6 C    3.953 --    19 C    1.531     6 N    1.118     8 C    0.976
     8   6 C    3.919 --     9 O    1.579    10 N    1.288     7 C    0.976
     9   8 O    1.898 --     8 C    1.579    10 N    0.187
    10   7 N    3.380 --     8 C    1.288    11 C    0.933    34 H    0.883
                             9 O    0.187
    11   6 C    3.937 --    12 C    0.992    35 H    0.976    36 H    0.967
                            10 N    0.933
    12   6 C    3.987 --    13 C    1.423    18 C    1.414    11 C    0.992
    13   6 C    3.993 --    14 C    1.439    12 C    1.423    37 H    0.970
                            17 C    0.110
    14   6 C    3.991 --    13 C    1.439    15 C    1.403    38 H    0.969
                            18 C    0.111
    15   6 C    3.861 --    14 C    1.403    17 C    1.397    16 F    0.927
    16   9 F    1.056 --    15 C    0.927
    17   6 C    3.992 --    18 C    1.448    15 C    1.397    39 H    0.969
                            13 C    0.110
    18   6 C    3.992 --    17 C    1.448    12 C    1.414    40 H    0.969
                            14 C    0.111
    19   6 C    3.924 --     7 C    1.531    20 O    1.096    21 C    1.076
    20   8 O    2.089 --    19 C    1.096    41 H    0.789
    21   6 C    3.870 --    22 O    1.753    19 C    1.076    23 N    0.861
    22   8 O    2.047 --    21 C    1.753
    23   7 N    3.622 --    25 C    0.878    24 C    0.870     5 C    0.869
                            21 C    0.861
    24   6 C    3.877 --    42 H    0.982    44 H    0.976    43 H    0.971
                            23 N    0.870
    25   6 C    3.875 --    46 H    0.983    45 H    0.976    47 H    0.968
                            23 N    0.878
    26   1 H    0.999 --     1 C    0.983
    27   1 H    1.000 --     1 C    0.985
    28   1 H    1.009 --     1 C    0.981
    29   1 H    1.000 --     3 C    0.983
    30   1 H    1.002 --     3 C    0.984
    31   1 H    0.996 --     3 C    0.978
    32   1 H    0.949 --     4 N    0.931
    33   1 H    0.943 --     4 N    0.928
    34   1 H    0.937 --    10 N    0.883
    35   1 H    1.001 --    11 C    0.976
    36   1 H    1.007 --    11 C    0.967
    37   1 H    0.999 --    13 C    0.970
    38   1 H    0.997 --    14 C    0.969
    39   1 H    0.998 --    17 C    0.969
    40   1 H    1.008 --    18 C    0.969
    41   1 H    0.818 --    20 O    0.789
    42   1 H    0.992 --    24 C    0.982
    43   1 H    1.007 --    24 C    0.971
    44   1 H    0.994 --    24 C    0.976
    45   1 H    0.997 --    25 C    0.976
    46   1 H    0.995 --    25 C    0.983
    47   1 H    1.016 --    25 C    0.968
 ---------------------------------------------------------------------------

           -------------------------------------------------
          | TOTAL ENERGY              -79.482529105960 Eh   |
          | GRADIENT NORM               0.000441280934 Eh/α |
          | HOMO-LUMO GAP               1.281544878257 eV   |
           -------------------------------------------------

 * finished run on 2023/06/20 at 15:36:04.192
