   * xtb version 6.5.1 (579679a) compiled by 'ehlert@majestix' on 2022-07-11
          program call               : /lustre/hpc/kemi/ree/PhD/git/ReactivityQM/dep/xtb-6.5.1/bin/xtb --gfn 1 /lustre/hpc/kemi/ree/PhD/git/ReactivityQM/calculations/R01/reac01prodN07/conf10/R01_reac01prodN07_conf10_gfn1.xyz --opt --vfukui --chrg 1 --uhf 0 --alpb DMSO

   ID    Z sym.   atoms
    1    6 C      1, 3, 5, 8-10
    2    8 O      2, 4, 11
    3    7 N      6, 7
    4    1 H      12-20

      * Solvation model:               ALPB
        Solvent                        DMSO
        Solvent mass                       7.8130E+01 g/mol
          :  Hamiltonian                  GFN1-xTB          :
 * total energy  :   -37.5580346 Eh     change       -0.3602452E-11 Eh
 * total energy  :   -37.5689987 Eh     change       -0.1096411E-01 Eh
 * total energy  :   -37.5735319 Eh     change       -0.4533208E-02 Eh
 * total energy  :   -37.5743004 Eh     change       -0.7684942E-03 Eh
 * total energy  :   -37.5748120 Eh     change       -0.5116689E-03 Eh
 * total energy  :   -37.5749305 Eh     change       -0.1184344E-03 Eh
 * total energy  :   -37.5750452 Eh     change       -0.1147304E-03 Eh
 * total energy  :   -37.5751192 Eh     change       -0.7399474E-04 Eh
 * total energy  :   -37.5751601 Eh     change       -0.4087379E-04 Eh
 * total energy  :   -37.5751784 Eh     change       -0.1835711E-04 Eh
 * total energy  :   -37.5751909 Eh     change       -0.1242820E-04 Eh
 * total energy  :   -37.5751963 Eh     change       -0.5462912E-05 Eh
 * total energy  :   -37.5752006 Eh     change       -0.4298939E-05 Eh
   *** GEOMETRY OPTIMIZATION CONVERGED AFTER 13 ITERATIONS ***

 final structure:
================
20
 xtb: 6.5.1 (579679a)
C            3.83647704317570       -0.47028124841565       -0.25124579149355
O            2.40458990083480       -0.30017950647782       -0.19765746476711
C            1.85931654953693       -0.10448457161123        0.96548634331881
O            2.38461048334641       -0.04640708931571        2.03698842750618
C            0.33956520102036        0.05627539590021        0.81794867496558
N           -0.52026706768897        0.26970024944974        1.86959433496620
N           -1.68267966644104        0.35002171471191        1.39056758235914
C           -1.65088693210220        0.19077559577629       -0.01698083515001
C           -2.15411613993798        1.45484850708403       -0.73239556835953
C           -2.43174007159634       -1.06207178093635       -0.44765635140138
O           -0.26705430246092        0.00481557202935       -0.28909264361574
H            4.31948430793894        0.45887462874001        0.05442317974162
H            4.06830390832172       -0.70909357510833       -1.28591841557360
H            4.13101815078788       -1.27990068461063        0.41731668865110
H           -1.56043030128046        2.30770981830265       -0.41083459924340
H           -3.19933361932643        1.60647183165288       -0.47408709378441
H           -2.04818611992482        1.31060910775054       -1.80499989531672
H           -2.02103500437882       -1.93113122460627        0.06190167238819
H           -2.33091926564423       -1.17900085088318       -1.52397631962008
H           -3.47671805418057       -0.92754988943246       -0.17938592557123

          :  Hamiltonian                  GFN1-xTB          :
         :: total energy             -37.575200629884 Eh    ::
         :: gradient norm              0.000903237296 Eh/a0 ::
         :: HOMO-LUMO gap              1.782085052952 eV    ::
         :: SCC energy               -37.911011972618 Eh    ::
         :: -> Gsolv                  -0.082816680047 Eh    ::
         :: repulsion energy           0.344237663759 Eh    ::

    * Orbital Energies and Occupations

         #    Occupation            Energy/Eh            Energy/eV
      -------------------------------------------------------------
         1        2.0000           -0.9573359             -26.0504
       ...           ...                  ...                  ...
        18        2.0000           -0.6147545             -16.7283
        19        2.0000           -0.6116753             -16.6445
        20        2.0000           -0.6108588             -16.6223
        21        2.0000           -0.5874699             -15.9859
        22        2.0000           -0.5856927             -15.9375
        23        2.0000           -0.5791424             -15.7593
        24        2.0000           -0.5749235             -15.6445
        25        2.0000           -0.5685883             -15.4721
        26        2.0000           -0.5557510             -15.1228
        27        2.0000           -0.5517793             -15.0147
        28        2.0000           -0.5425279             -14.7629
        29        2.0000           -0.5355388             -14.5728
        30        2.0000           -0.5253046             -14.2943 (HOMO)
        31                         -0.4598142             -12.5122 (LUMO)
        32                         -0.3770224             -10.2593
        33                         -0.2803160              -7.6278
        34                         -0.1702065              -4.6316
        35                         -0.1643924              -4.4733
        36                         -0.1599550              -4.3526
        37                         -0.1204638              -3.2780
        38                         -0.1124701              -3.0605
        39                         -0.0976353              -2.6568
        40                         -0.0950823              -2.5873
        41                         -0.0921994              -2.5089
       ...                                ...                  ...
        62                          0.7364886              20.0409
      -------------------------------------------------------------
                  HL-Gap            0.0654904 Eh            1.7821 eV

Wiberg/Mayer (AO) data.
largest (>0.10) Wiberg bond orders for each atom

     #   Z sym  total        # sym  WBO       # sym  WBO       # sym  WBO
 ---------------------------------------------------------------------------
     1   6 C    3.819 --    13 H    0.982    14 H    0.973    12 H    0.971
                             2 O    0.853
     2   8 O    2.272 --     3 C    1.203     1 C    0.853     4 O    0.174
     3   6 C    3.882 --     4 O    1.711     2 O    1.203     5 C    0.898
     4   8 O    1.998 --     3 C    1.711     2 O    0.174
     5   6 C    3.790 --    11 O    1.390     6 N    1.203     3 C    0.898
     6   7 N    3.022 --     7 N    1.675     5 C    1.203
     7   7 N    2.995 --     6 N    1.675     8 C    1.075
     8   6 C    3.814 --     7 N    1.075     9 C    0.885    10 C    0.882
                            11 O    0.868
     9   6 C    3.941 --    15 H    0.978    16 H    0.975    17 H    0.974
                             8 C    0.885
    10   6 C    3.941 --    18 H    0.978    20 H    0.975    19 H    0.974
                             8 C    0.882
    11   8 O    2.439 --     5 C    1.390     8 C    0.868
    12   1 H    0.996 --     1 C    0.971
    13   1 H    1.002 --     1 C    0.982
    14   1 H    0.996 --     1 C    0.973
    15   1 H    0.989 --     9 C    0.978
    16   1 H    0.989 --     9 C    0.975
    17   1 H    0.989 --     9 C    0.974
    18   1 H    0.989 --    10 C    0.978
    19   1 H    0.989 --    10 C    0.974
    20   1 H    0.989 --    10 C    0.975
 ---------------------------------------------------------------------------

           -------------------------------------------------
          | TOTAL ENERGY              -37.575200629884 Eh   |
          | GRADIENT NORM               0.000903237296 Eh/α |
          | HOMO-LUMO GAP               1.782085052952 eV   |
           -------------------------------------------------

 * finished run on 2023/06/20 at 14:56:45.260
