   * xtb version 6.5.1 (579679a) compiled by 'ehlert@majestix' on 2022-07-11
          program call               : /lustre/hpc/kemi/ree/PhD/git/ReactivityQM/dep/xtb-6.5.1/bin/xtb --gfn 1 /lustre/hpc/kemi/ree/PhD/git/ReactivityQM/calculations/R02oxygendeprot/reac01prodN16/conf16/R02oxygendeprot_reac01prodN16_conf16_gfn1.xyz --opt --vfukui --chrg 0 --uhf 0 --alpb DMSO

   ID    Z sym.   atoms
    1    6 C      1, 2, 5, 6, 9-12, 14, 15, 18-20, 22
    2    7 N      3, 4, 8, 13, 24
    3    8 O      7, 16, 17, 21, 23, 25
    4    1 H      26-42

      * Solvation model:               ALPB
        Solvent                        DMSO
        Solvent mass                       7.8130E+01 g/mol
          :  Hamiltonian                  GFN1-xTB          :
 * total energy  :   -82.9251149 Eh     change       -0.2742695E-11 Eh
 * total energy  :   -82.9406116 Eh     change       -0.1549671E-01 Eh
 * total energy  :   -82.9475569 Eh     change       -0.6945230E-02 Eh
 * total energy  :   -82.9490755 Eh     change       -0.1518625E-02 Eh
 * total energy  :   -82.9505848 Eh     change       -0.1509326E-02 Eh
 * total energy  :   -82.9515857 Eh     change       -0.1000882E-02 Eh
 * total energy  :   -82.9523536 Eh     change       -0.7678789E-03 Eh
 * total energy  :   -82.9529205 Eh     change       -0.5669555E-03 Eh
 * total energy  :   -82.9533237 Eh     change       -0.4032209E-03 Eh
 * total energy  :   -82.9537006 Eh     change       -0.3768395E-03 Eh
 * total energy  :   -82.9567025 Eh     change       -0.1318229E-04 Eh
 * total energy  :   -82.9567129 Eh     change       -0.1045074E-04 Eh
 * total energy  :   -82.9567207 Eh     change       -0.7804409E-05 Eh
 * total energy  :   -82.9567329 Eh     change       -0.1215558E-04 Eh
 * total energy  :   -82.9567396 Eh     change       -0.6743533E-05 Eh
 * total energy  :   -82.9567441 Eh     change       -0.4453430E-05 Eh
 * total energy  :   -82.9567384 Eh     change        0.5656805E-05 Eh
 * total energy  :   -82.9567486 Eh     change       -0.1017463E-04 Eh
 * total energy  :   -82.9567506 Eh     change       -0.2047151E-05 Eh
   *** GEOMETRY OPTIMIZATION CONVERGED AFTER 58 ITERATIONS ***

 final structure:
================
42
 xtb: 6.5.1 (579679a)
C            5.27897111977307       -2.70664244738133        1.84326627308695
C            5.22889869914889       -1.61549412654524        0.84622208201696
N            6.22583966068021       -0.99933566039660        0.29195884968170
N            5.69355091268888       -0.08037129670726       -0.56235819425109
C            4.40466688363041       -0.19166002380457       -0.47686699872817
C            3.37757173455263        0.59354014385350       -1.20819133675086
O            3.68197055149721        1.44982600895098       -2.02190760801223
N            2.11933569936413        0.23880445116592       -0.87378791081780
C            0.92853823087036        0.92488800287782       -1.39249133482720
C            0.94426309107463        2.39365695161373       -0.95843292969110
C            0.87736142877546        0.79806675559327       -2.92269162537702
C           -0.28363973861099        0.22778475151103       -0.81130435453542
N           -1.25056742968489        0.91048501656922       -0.33337387801743
C           -2.38494100388214        0.27014379105324        0.16700035861365
C           -3.33130240211170        1.19941894113835        0.60064130830585
O           -3.39828254412793        2.38989888092164        0.63848846509934
O           -4.66760945754846        0.48540975197513        1.12962778349041
C           -5.82286257057447        1.29646149895816        0.83649517288543
C           -4.56211266043343        0.12262983419964        2.52403580277245
C           -2.50598763576939       -1.15777344758160        0.19219626189407
O           -3.44622480519994       -1.79040975258363        0.67380601948460
C           -1.34817399478731       -1.92143589373587       -0.42995657258064
O           -1.31622739793097       -3.13429443749833       -0.53209398526873
N           -0.30980758424523       -1.15033548779079       -0.88285911315147
O            4.04776537436635       -1.15145637986493        0.40457398326293
H            4.84236934560608       -3.61298208537416        1.42331673390475
H            4.70054300414955       -2.43218802429209        2.72476418585855
H            6.31158056477871       -2.89806764682852        2.12566638428632
H            1.99555002740384       -0.42128985734904       -0.12416632754943
H            1.00718470848267        2.45762797688630        0.12674883538851
H            1.79584518547990        2.90742009205532       -1.40032886384375
H            0.02455830507058        2.87580972795454       -1.28634544260518
H           -0.05460233057542        1.22750682188974       -3.28711363017161
H            1.71345846602548        1.32844376841484       -3.37464405199455
H            0.92216358041006       -0.25036324090694       -3.21215894382600
H           -5.84502816578533        1.44095935268495       -0.24175449740023
H           -6.69984310838306        0.74518957293069        1.16792337229917
H           -5.75138905534088        2.25487625364887        1.35349470511995
H           -3.66660171738296       -0.48503546912137        2.63120699930088
H           -4.50544902079033        1.02030209324838        3.14124129507245
H           -5.44426707301326       -0.46398173699857        2.77334782015663
H            0.47293312235495       -1.64371542533151       -1.28319509256222

          :  Hamiltonian                  GFN1-xTB          :
         :: total energy             -82.956750636412 Eh    ::
         :: gradient norm              0.000432240281 Eh/a0 ::
         :: HOMO-LUMO gap              2.428868287955 eV    ::
         :: SCC energy               -83.750145081345 Eh    ::
         :: -> Gsolv                  -0.066507258283 Eh    ::
         :: repulsion energy           0.819047660162 Eh    ::

    * Orbital Energies and Occupations

         #    Occupation            Energy/Eh            Energy/eV
      -------------------------------------------------------------
         1        2.0000           -0.8812252             -23.9794
       ...           ...                  ...                  ...
        55        2.0000           -0.5037858             -13.7087
        56        2.0000           -0.5015688             -13.6484
        57        2.0000           -0.4978040             -13.5459
        58        2.0000           -0.4918161             -13.3830
        59        2.0000           -0.4784754             -13.0200
        60        2.0000           -0.4736092             -12.8876
        61        2.0000           -0.4637577             -12.6195
        62        2.0000           -0.4587996             -12.4846
        63        2.0000           -0.4513245             -12.2812
        64        2.0000           -0.4477020             -12.1826
        65        2.0000           -0.4454527             -12.1214
        66        2.0000           -0.4191773             -11.4064
        67        2.0000           -0.4108689             -11.1803 (HOMO)
        68                         -0.3216096              -8.7514 (LUMO)
        69                         -0.3091963              -8.4137
        70                         -0.2693319              -7.3289
        71                         -0.2555039              -6.9526
        72                         -0.2419515              -6.5838
        73                         -0.1970562              -5.3622
        74                         -0.1668507              -4.5402
        75                         -0.1529116              -4.1609
        76                         -0.1473676              -4.0101
        77                         -0.1423927              -3.8747
        78                         -0.1411308              -3.8404
       ...                                ...                  ...
       134                          0.7873248              21.4242
      -------------------------------------------------------------
                  HL-Gap            0.0892593 Eh            2.4289 eV

Wiberg/Mayer (AO) data.
largest (>0.10) Wiberg bond orders for each atom

     #   Z sym  total        # sym  WBO       # sym  WBO       # sym  WBO
 ---------------------------------------------------------------------------
     1   6 C    3.986 --     2 C    1.032    28 H    0.982    27 H    0.965
                            26 H    0.961
     2   6 C    3.869 --     3 N    1.612    25 O    1.072     1 C    1.032
     3   7 N    2.981 --     2 C    1.612     4 N    1.197
     4   7 N    2.999 --     5 C    1.624     3 N    1.197
     5   6 C    3.871 --     4 N    1.624    25 O    1.047     6 C    0.991
     6   6 C    3.917 --     7 O    1.586     8 N    1.256     5 C    0.991
     7   8 O    1.903 --     6 C    1.586     8 N    0.176
     8   7 N    3.344 --     6 C    1.256     9 C    0.919    29 H    0.894
                             7 O    0.176
     9   6 C    3.933 --    10 C    0.992    12 C    0.979    11 C    0.979
                             8 N    0.919
    10   6 C    3.989 --     9 C    0.992    30 H    0.985    32 H    0.984
                            31 H    0.982
    11   6 C    3.987 --    33 H    0.985    35 H    0.984     9 C    0.979
                            34 H    0.979
    12   6 C    3.933 --    13 N    1.667    24 N    1.098     9 C    0.979
    13   7 N    3.026 --    12 C    1.667    14 C    1.098
    14   6 C    3.919 --    15 C    1.298    20 C    1.194    13 N    1.098
                            16 O    0.110    21 O    0.101
    15   6 C    3.809 --    16 O    1.721    14 C    1.298    17 O    0.605
    16   8 O    2.044 --    15 C    1.721    14 C    0.110
    17   8 O    2.444 --    18 C    0.860    19 C    0.851    15 C    0.605
    18   6 C    3.831 --    36 H    0.979    38 H    0.979    37 H    0.979
                            17 O    0.860
    19   6 C    3.825 --    40 H    0.983    41 H    0.978    39 H    0.973
                            17 O    0.851
    20   6 C    3.923 --    21 O    1.596    14 C    1.194    22 C    0.944
    21   8 O    1.909 --    20 C    1.596    14 C    0.101
    22   6 C    3.885 --    23 O    1.633    24 N    1.161    20 C    0.944
    23   8 O    1.909 --    22 C    1.633    24 N    0.139
    24   7 N    3.432 --    22 C    1.161    12 C    1.098    42 H    0.887
                            23 O    0.139
    25   8 O    2.315 --     2 C    1.072     5 C    1.047
    26   1 H    0.997 --     1 C    0.961
    27   1 H    0.997 --     1 C    0.965
    28   1 H    0.998 --     1 C    0.982
    29   1 H    0.939 --     8 N    0.894
    30   1 H    1.006 --    10 C    0.985
    31   1 H    1.008 --    10 C    0.982
    32   1 H    1.011 --    10 C    0.984
    33   1 H    1.002 --    11 C    0.985
    34   1 H    1.010 --    11 C    0.979
    35   1 H    1.002 --    11 C    0.984
    36   1 H    1.001 --    18 C    0.979
    37   1 H    1.000 --    18 C    0.979
    38   1 H    1.004 --    18 C    0.979
    39   1 H    1.013 --    19 C    0.973
    40   1 H    0.998 --    19 C    0.983
    41   1 H    1.001 --    19 C    0.978
    42   1 H    0.933 --    24 N    0.887
 ---------------------------------------------------------------------------

           -------------------------------------------------
          | TOTAL ENERGY              -82.956750636412 Eh   |
          | GRADIENT NORM               0.000432240281 Eh/α |
          | HOMO-LUMO GAP               2.428868287955 eV   |
           -------------------------------------------------

 * finished run on 2023/06/21 at 17:36:26.731
