   * xtb version 6.5.1 (579679a) compiled by 'ehlert@majestix' on 2022-07-11
          program call               : /lustre/hpc/kemi/ree/PhD/git/ReactivityQM/dep/xtb-6.5.1/bin/xtb --gfn 1 /lustre/hpc/kemi/ree/PhD/git/ReactivityQM/calculations/R02deprot/reac01prodE08/conf10/R02deprot_reac01prodE08_conf10_gfn1.xyz --opt --vfukui --chrg -2 --uhf 0 --alpb DMSO

   ID    Z sym.   atoms
    1    6 C      1, 3, 5, 7-10, 12, 14, 15, 18, 19, 22, 24
    2    8 O      2, 4, 13, 20, 23, 25
    3    7 N      6, 11, 16, 17, 21
    4    1 H      26-42

      * Solvation model:               ALPB
        Solvent                        DMSO
        Solvent mass                       7.8130E+01 g/mol
          :  Hamiltonian                  GFN1-xTB          :
 * total energy  :   -83.6072905 Eh     change       -0.4040146E-10 Eh
 * total energy  :   -83.6221502 Eh     change       -0.1485978E-01 Eh
 * total energy  :   -83.6278328 Eh     change       -0.5682562E-02 Eh
 * total energy  :   -83.6286758 Eh     change       -0.8429560E-03 Eh
 * total energy  :   -83.6292435 Eh     change       -0.5677661E-03 Eh
 * total energy  :   -83.6294834 Eh     change       -0.2398684E-03 Eh
 * total energy  :   -83.6297439 Eh     change       -0.2605072E-03 Eh
 * total energy  :   -83.6299754 Eh     change       -0.2314970E-03 Eh
 * total energy  :   -83.6301606 Eh     change       -0.1852396E-03 Eh
 * total energy  :   -83.6302958 Eh     change       -0.1352031E-03 Eh
 * total energy  :   -83.6314031 Eh     change       -0.2380915E-04 Eh
 * total energy  :   -83.6314106 Eh     change       -0.7423975E-05 Eh
 * total energy  :   -83.6314259 Eh     change       -0.1533249E-04 Eh
 * total energy  :   -83.6314396 Eh     change       -0.1372321E-04 Eh
 * total energy  :   -83.6314513 Eh     change       -0.1169910E-04 Eh
 * total energy  :   -83.6314661 Eh     change       -0.1477306E-04 Eh
 * total energy  :   -83.6314765 Eh     change       -0.1036936E-04 Eh
 * total energy  :   -83.6314885 Eh     change       -0.1206436E-04 Eh
 * total energy  :   -83.6314934 Eh     change       -0.4895413E-05 Eh
   *** GEOMETRY OPTIMIZATION CONVERGED AFTER 44 ITERATIONS ***

 final structure:
================
42
 xtb: 6.5.1 (579679a)
C            6.53127173940834       -0.40154367691140       -1.73607217417076
O            5.32048094843769        0.32966164191324       -1.54908264373246
C            4.40807934496819       -0.25227573803572       -0.72572972387774
O            4.64246459017187       -1.32109027505414       -0.19187352494978
C            3.16150568964176        0.51481637930794       -0.56666307789336
N            2.23913096370404       -0.11806671577983        0.22459986307613
C            1.08218111316981        0.48044217002005        0.40487856882558
C            0.05869731727847       -0.21963912052041        1.29744797045631
C            0.57562907115026       -1.58882652539282        1.75242613509936
C           -0.22562860067614        0.68159014394444        2.50986207401105
N           -1.15980013294334       -0.37996730954018        0.50883393004252
C           -2.29163412568327       -0.95864300740247        0.91005345254554
O           -2.50559080668590       -1.39273938006189        2.04363065837307
C           -3.34228177773021       -1.05402532976703       -0.25694529856331
C           -3.75020352734157       -2.53543112033088       -0.38219146045211
N           -2.77261057076832       -0.53411051288397       -1.49011539299917
N           -3.55508356568833        0.53847562875530       -1.83746976813510
C           -4.49909701793724        0.68877549077383       -0.98600138352825
C           -5.57935044647058        1.71411430909116       -0.99249778087407
O           -4.48150050009156       -0.25245947360220        0.05239085115269
N            0.69507168155477        1.64636399333117       -0.10225729979750
C            1.55152472917528        2.35497950172817       -0.88805197257808
O            1.23948227905118        3.45664510080385       -1.37699236415324
C            2.86687175620786        1.73936958057944       -1.12782719576804
O            3.70845746127618        2.46524690128232       -1.91309253447507
H            7.14718667904636        0.17180337109500       -2.42484314000415
H            7.05208289908265       -0.52469579392935       -0.78286460841415
H            6.31812295701640       -1.38789468665252       -2.15724865509225
H            1.51775603794521       -1.46272180584267        2.28427307982892
H           -0.14420699437777       -2.06789395506796        2.41462744782951
H            0.74953955158932       -2.22938045452503        0.88797872268000
H            0.68736838087358        0.81408446359934        3.08916495854401
H           -0.98603113763517        0.23583649650829        3.14985123660307
H           -0.56923265100298        1.65837481234958        2.16735482909874
H           -1.15289268581764       -0.11773554173940       -0.48768565798361
H           -4.12131163352247       -2.90496248235561        0.57284858077011
H           -4.53026541863599       -2.63096074529267       -1.13467430940440
H           -2.88661731853333       -3.12272959827384       -0.68858958273898
H           -5.44283629892314        2.37339495774426       -1.84851154376283
H           -6.56332731996357        1.24519182966681       -1.06435575743858
H           -5.56267431384421        2.31196279062368       -0.07809617620342
H            4.56926765352664        2.03666468584134       -2.02223033196573

          :  Hamiltonian                  GFN1-xTB          :
         :: total energy             -83.631493412285 Eh    ::
         :: gradient norm              0.000899848589 Eh/a0 ::
         :: HOMO-LUMO gap              0.181187921162 eV    ::
         :: SCC energy               -84.363587543559 Eh    ::
         :: -> Gsolv                  -0.275940229582 Eh    ::
         :: repulsion energy           0.758103649296 Eh    ::

    * Orbital Energies and Occupations

         #    Occupation            Energy/Eh            Energy/eV
      -------------------------------------------------------------
         1        2.0000           -0.8123133             -22.1042
       ...           ...                  ...                  ...
        56        2.0000           -0.4461242             -12.1397
        57        2.0000           -0.4442212             -12.0879
        58        2.0000           -0.4217645             -11.4768
        59        2.0000           -0.4102578             -11.1637
        60        2.0000           -0.4021323             -10.9426
        61        2.0000           -0.3981919             -10.8354
        62        2.0000           -0.3965053             -10.7895
        63        2.0000           -0.3879220             -10.5559
        64        2.0000           -0.3784685             -10.2987
        65        2.0000           -0.3609901              -9.8230
        66        2.0000           -0.3595007              -9.7825
        67        2.0000           -0.3515840              -9.5671
        68        1.9416           -0.2779378              -7.5631 (HOMO)
        69        0.0584           -0.2712792              -7.3819 (LUMO)
        70                         -0.2161292              -5.8812
        71                         -0.2026458              -5.5143
        72                         -0.1815428              -4.9400
        73                         -0.1647536              -4.4832
        74                         -0.1245622              -3.3895
        75                         -0.1088981              -2.9633
        76                         -0.0989949              -2.6938
        77                         -0.0946293              -2.5750
        78                         -0.0934511              -2.5429
        79                         -0.0888668              -2.4182
       ...                                ...                  ...
       134                          0.7357475              20.0207
      -------------------------------------------------------------
                  HL-Gap            0.0066585 Eh            0.1812 eV

Wiberg/Mayer (AO) data.
largest (>0.10) Wiberg bond orders for each atom

     #   Z sym  total        # sym  WBO       # sym  WBO       # sym  WBO
 ---------------------------------------------------------------------------
     1   6 C    3.884 --    26 H    0.987    27 H    0.981    28 H    0.981
                             2 O    0.907
     2   8 O    2.168 --     3 C    1.040     1 C    0.907     4 O    0.114
     3   6 C    3.804 --     4 O    1.625     5 C    1.049     2 O    1.040
     4   8 O    1.879 --     3 C    1.625     2 O    0.114
     5   6 C    3.952 --    24 C    1.457     6 N    1.199     3 C    1.049
     6   7 N    2.987 --     7 C    1.461     5 C    1.199
     7   6 C    3.956 --     6 N    1.461    21 N    1.372     8 C    0.967
     8   6 C    3.944 --     9 C    0.995    10 C    0.984     7 C    0.967
                            11 N    0.926
     9   6 C    3.996 --     8 C    0.995    29 H    0.986    31 H    0.986
                            30 H    0.984
    10   6 C    3.995 --    32 H    0.988    34 H    0.985     8 C    0.984
                            33 H    0.984
    11   7 N    3.370 --    12 C    1.320     8 C    0.926    35 H    0.864
                            13 O    0.169
    12   6 C    3.868 --    13 O    1.556    11 N    1.320    14 C    0.886
    13   8 O    1.854 --    12 C    1.556    11 N    0.169
    14   6 C    3.895 --    16 N    1.019    15 C    0.967    20 O    0.916
                            12 C    0.886
    15   6 C    3.992 --    38 H    0.988    36 H    0.986    37 H    0.986
                            14 C    0.967
    16   7 N    2.608 --    17 N    1.168    14 C    1.019    18 C    0.188
    17   7 N    3.004 --    18 C    1.674    16 N    1.168
    18   6 C    3.849 --    17 N    1.674    19 C    1.015    20 O    0.941
                            16 N    0.188
    19   6 C    3.996 --    18 C    1.015    39 H    0.987    41 H    0.977
                            40 H    0.977
    20   8 O    2.059 --    18 C    0.941    14 C    0.916
    21   7 N    2.967 --     7 C    1.372    22 C    1.231    23 O    0.123
    22   6 C    3.927 --    23 O    1.486    21 N    1.231    24 C    1.078
    23   8 O    1.770 --    22 C    1.486    21 N    0.123
    24   6 C    3.875 --     5 C    1.457    22 C    1.078    25 O    1.050
    25   8 O    2.033 --    24 C    1.050    42 H    0.828
    26   1 H    1.013 --     1 C    0.987
    27   1 H    1.011 --     1 C    0.981
    28   1 H    1.011 --     1 C    0.981
    29   1 H    1.018 --     9 C    0.986
    30   1 H    1.017 --     9 C    0.984
    31   1 H    1.015 --     9 C    0.986
    32   1 H    1.007 --    10 C    0.988
    33   1 H    1.017 --    10 C    0.984
    34   1 H    1.019 --    10 C    0.985
    35   1 H    0.999 --    11 N    0.864
    36   1 H    1.014 --    15 C    0.986
    37   1 H    1.019 --    15 C    0.986
    38   1 H    1.015 --    15 C    0.988
    39   1 H    1.010 --    19 C    0.987
    40   1 H    1.009 --    19 C    0.977
    41   1 H    1.009 --    19 C    0.977
    42   1 H    0.879 --    25 O    0.828
 ---------------------------------------------------------------------------

           -------------------------------------------------
          | TOTAL ENERGY              -83.631493412285 Eh   |
          | GRADIENT NORM               0.000899848589 Eh/α |
          | HOMO-LUMO GAP               0.181187921162 eV   |
           -------------------------------------------------

 * finished run on 2023/06/20 at 17:52:05.694
