   * xtb version 6.5.1 (579679a) compiled by 'ehlert@majestix' on 2022-07-11
          program call               : /lustre/hpc/kemi/ree/PhD/git/ReactivityQM/dep/xtb-6.5.1/bin/xtb --gfn 1 /lustre/hpc/kemi/ree/PhD/git/ReactivityQM/calculations/R02deprot/reac01prodN05/conf15/R02deprot_reac01prodN05_conf15_gfn1.xyz --opt --vfukui --chrg 0 --uhf 0 --alpb DMSO

   ID    Z sym.   atoms
    1    6 C      1, 3, 5, 7-10, 12, 14, 17, 18, 21, 23, 25
    2    8 O      2, 4, 13, 19, 22, 24
    3    7 N      6, 11, 15, 16, 20
    4    1 H      26-42

      * Solvation model:               ALPB
        Solvent                        DMSO
        Solvent mass                       7.8130E+01 g/mol
          :  Hamiltonian                  GFN1-xTB          :
 * total energy  :   -82.9286792 Eh     change       -0.1409717E-10 Eh
 * total energy  :   -82.9432704 Eh     change       -0.1459122E-01 Eh
 * total energy  :   -82.9496908 Eh     change       -0.6420458E-02 Eh
 * total energy  :   -82.9518229 Eh     change       -0.2132066E-02 Eh
 * total energy  :   -82.9540579 Eh     change       -0.2235010E-02 Eh
 * total energy  :   -82.9556364 Eh     change       -0.1578515E-02 Eh
 * total energy  :   -82.9572200 Eh     change       -0.1583566E-02 Eh
 * total energy  :   -82.9596349 Eh     change       -0.2414944E-02 Eh
 * total energy  :   -82.9609264 Eh     change       -0.1291448E-02 Eh
 * total energy  :   -82.9617833 Eh     change       -0.8569364E-03 Eh
 * total energy  :   -82.9745784 Eh     change       -0.6535680E-05 Eh
 * total energy  :   -82.9745848 Eh     change       -0.6357882E-05 Eh
 * total energy  :   -82.9745910 Eh     change       -0.6253599E-05 Eh
 * total energy  :   -82.9745971 Eh     change       -0.6088355E-05 Eh
 * total energy  :   -82.9746031 Eh     change       -0.5988719E-05 Eh
 * total energy  :   -82.9746088 Eh     change       -0.5663754E-05 Eh
 * total energy  :   -82.9746142 Eh     change       -0.5458158E-05 Eh
 * total energy  :   -82.9746195 Eh     change       -0.5265149E-05 Eh
 * total energy  :   -82.9746245 Eh     change       -0.4994013E-05 Eh
   *** GEOMETRY OPTIMIZATION CONVERGED AFTER 149 ITERATIONS ***

 final structure:
================
42
 xtb: 6.5.1 (579679a)
C           -5.28042111578028       -2.03302928135611       -1.50428874029900
O           -3.99716624111029       -1.46453547193050       -1.20617953829829
C           -3.84793074756811       -0.76158037782868       -0.13165138876548
O           -4.89493752120740       -0.60191768478628        0.62143994682608
C           -2.55512228154380       -0.22157227263618        0.15899291456847
N           -1.58546785078397       -0.50759426146198       -0.75959414883246
C           -0.37824050648731       -0.05205715018825       -0.49925932087087
C            0.68267983711239       -0.35299721201470       -1.54743956793715
C            0.62457519159282       -1.83453585718972       -1.93886980621477
C            0.42278911049962        0.54704411471718       -2.76542978289320
N            1.98059957245347       -0.04042744951651       -0.95670261067317
C            3.15238275885789       -0.17892567783863       -1.58877443423563
O            3.30254976323500       -0.56447705052286       -2.74105134748564
C            4.31740995588596        0.17753813556125       -0.73176666144973
N            5.57069321994424        0.18399988927745       -1.06576939349804
N            6.27272807994362        0.55449823367319        0.04434798817001
C            5.40383425620399        0.74940488580988        0.98636786887477
C            5.66024461237228        1.15315943562721        2.38632954717326
O            4.14881011067351        0.52997223420817        0.56121933984686
N           -0.00821883300885        0.65911092902266        0.55699321666413
C           -0.89867339615254        1.01220265882394        1.51807265406852
O           -0.57436175062690        1.68266188417776        2.50299045997596
C           -2.28154301407613        0.53521915030921        1.29719174956460
O           -3.29812957149804        0.78228507870471        2.14231933541218
C           -3.12665535269046        1.56530050940182        3.33508641015730
H           -5.56705339118521       -2.72585987071995       -0.71190814361030
H           -6.02548400471833       -1.24067030138583       -1.58641656273387
H           -5.16701667807714       -2.55617682822837       -2.45113385526559
H           -0.38474938393643       -2.07444774594557       -2.26946767980248
H            0.87100354191066       -2.45573009624307       -1.07879625595841
H            1.32524660365288       -2.04503067292800       -2.74533733537765
H           -0.58587424016102        0.36327139632096       -3.13233604546885
H            0.51001128558711        1.59429680141833       -2.47864260082147
H            1.13772109314507        0.33101165846749       -3.55796744485824
H            1.94869803986434        0.32542330843238       -0.01038195464124
H            5.13382744922782        2.08057230283269        2.61053911108795
H            6.72776930495375        1.29300247638202        2.53724225904656
H            5.29342248633800        0.38505926535323        3.06695806431999
H           -4.71499105685372       -0.05941452232339        1.42320232026271
H           -2.41578317074201        1.08594635467535        4.01022458474307
H           -4.11103791497525        1.60710795009422        3.79918952835620
H           -2.78813825029708        2.57289013177765        3.08784432086976

          :  Hamiltonian                  GFN1-xTB          :
         :: total energy             -82.974624492122 Eh    ::
         :: gradient norm              0.000145923132 Eh/a0 ::
         :: HOMO-LUMO gap              1.517987897351 eV    ::
         :: SCC energy               -83.742269123070 Eh    ::
         :: -> Gsolv                  -0.063062214082 Eh    ::
         :: repulsion energy           0.792566780368 Eh    ::

    * Orbital Energies and Occupations

         #    Occupation            Energy/Eh            Energy/eV
      -------------------------------------------------------------
         1        2.0000           -0.8839964             -24.0548
       ...           ...                  ...                  ...
        55        2.0000           -0.4986646             -13.5694
        56        2.0000           -0.4902593             -13.3406
        57        2.0000           -0.4896683             -13.3246
        58        2.0000           -0.4745832             -12.9141
        59        2.0000           -0.4638862             -12.6230
        60        2.0000           -0.4584444             -12.4749
        61        2.0000           -0.4566205             -12.4253
        62        2.0000           -0.4526283             -12.3166
        63        2.0000           -0.4453084             -12.1175
        64        2.0000           -0.4360009             -11.8642
        65        2.0000           -0.4302638             -11.7081
        66        2.0000           -0.4036742             -10.9845
        67        2.0000           -0.4031247             -10.9696 (HOMO)
        68                         -0.3473396              -9.4516 (LUMO)
        69                         -0.3019054              -8.2153
        70                         -0.2594208              -7.0592
        71                         -0.2524817              -6.8704
        72                         -0.2370514              -6.4505
        73                         -0.1903509              -5.1797
        74                         -0.1544347              -4.2024
        75                         -0.1449983              -3.9456
        76                         -0.1404545              -3.8220
        77                         -0.1283854              -3.4935
        78                         -0.1148560              -3.1254
       ...                                ...                  ...
       134                          0.7285529              19.8249
      -------------------------------------------------------------
                  HL-Gap            0.0557850 Eh            1.5180 eV

Wiberg/Mayer (AO) data.
largest (>0.10) Wiberg bond orders for each atom

     #   Z sym  total        # sym  WBO       # sym  WBO       # sym  WBO
 ---------------------------------------------------------------------------
     1   6 C    3.841 --    28 H    0.984    27 H    0.975    26 H    0.975
                             2 O    0.870
     2   8 O    2.291 --     3 C    1.239     1 C    0.870
     3   6 C    3.806 --     2 O    1.239     4 O    1.220     5 C    1.168
     4   8 O    2.170 --     3 C    1.220    39 H    0.749
     5   6 C    3.957 --    23 C    1.361     6 N    1.192     3 C    1.168
     6   7 N    2.990 --     7 C    1.450     5 C    1.192
     7   6 C    3.951 --     6 N    1.450    20 N    1.373     8 C    0.976
     8   6 C    3.935 --     9 C    0.986    10 C    0.977     7 C    0.976
                            11 N    0.928
     9   6 C    3.991 --     8 C    0.986    30 H    0.986    29 H    0.984
                            31 H    0.983
    10   6 C    3.991 --    33 H    0.986    32 H    0.986    34 H    0.982
                             8 C    0.977
    11   7 N    3.380 --    12 C    1.294     8 C    0.928    35 H    0.874
                            13 O    0.184
    12   6 C    3.922 --    13 O    1.561    11 N    1.294    14 C    0.986
    13   8 O    1.882 --    12 C    1.561    11 N    0.184
    14   6 C    3.869 --    15 N    1.626    19 O    1.049    12 C    0.986
    15   7 N    2.996 --    14 C    1.626    16 N    1.193
    16   7 N    2.980 --    17 C    1.615    15 N    1.193
    17   6 C    3.871 --    16 N    1.615    19 O    1.073    18 C    1.031
    18   6 C    3.987 --    17 C    1.031    37 H    0.983    36 H    0.964
                            38 H    0.963
    19   8 O    2.317 --    17 C    1.073    14 C    1.049
    20   7 N    3.023 --     7 C    1.373    21 C    1.233    22 O    0.131
    21   6 C    3.930 --    22 O    1.519    20 N    1.233    23 C    1.048
    22   8 O    1.854 --    21 C    1.519    20 N    0.131
    23   6 C    3.883 --     5 C    1.361    24 O    1.088    21 C    1.048
    24   8 O    2.222 --    23 C    1.088    25 C    0.874
    25   6 C    3.852 --    41 H    0.985    42 H    0.977    40 H    0.977
                            24 O    0.874
    26   1 H    1.000 --     1 C    0.975
    27   1 H    1.000 --     1 C    0.975
    28   1 H    1.005 --     1 C    0.984
    29   1 H    1.015 --     9 C    0.984
    30   1 H    1.004 --     9 C    0.986
    31   1 H    1.011 --     9 C    0.983
    32   1 H    1.008 --    10 C    0.986
    33   1 H    1.004 --    10 C    0.986
    34   1 H    1.011 --    10 C    0.982
    35   1 H    0.963 --    11 N    0.874
    36   1 H    0.997 --    18 C    0.964
    37   1 H    0.999 --    18 C    0.983
    38   1 H    0.997 --    18 C    0.963
    39   1 H    0.821 --     4 O    0.749
    40   1 H    1.017 --    25 C    0.977
    41   1 H    1.010 --    25 C    0.985
    42   1 H    1.016 --    25 C    0.977
 ---------------------------------------------------------------------------

           -------------------------------------------------
          | TOTAL ENERGY              -82.974624492122 Eh   |
          | GRADIENT NORM               0.000145923132 Eh/α |
          | HOMO-LUMO GAP               1.517987897351 eV   |
           -------------------------------------------------

 * finished run on 2023/06/20 at 18:10:36.918
