   * xtb version 6.5.1 (579679a) compiled by 'ehlert@majestix' on 2022-07-11
          program call               : /lustre/hpc/kemi/ree/PhD/git/ReactivityQM/dep/xtb-6.5.1/bin/xtb --gfn 1 /lustre/hpc/kemi/ree/PhD/git/ReactivityQM/calculations/R02methylcation/reac01prodN03/conf03/R02methylcation_reac01prodN03_conf03_gfn1.xyz --opt --vfukui --chrg 0 --uhf 0 --alpb DMSO

   ID    Z sym.   atoms
    1    6 C      1, 3, 5, 6, 8-11, 13, 15, 18, 19, 22, 24
    2    8 O      2, 4, 14, 20, 23, 25
    3    7 N      7, 12, 16, 17, 21
    4    1 H      26-42

      * Solvation model:               ALPB
        Solvent                        DMSO
        Solvent mass                       7.8130E+01 g/mol
          :  Hamiltonian                  GFN1-xTB          :
 * total energy  :   -82.9835876 Eh     change       -0.9436008E-11 Eh
 * total energy  :   -82.9946794 Eh     change       -0.1109183E-01 Eh
 * total energy  :   -82.9991157 Eh     change       -0.4436337E-02 Eh
 * total energy  :   -83.0003705 Eh     change       -0.1254783E-02 Eh
 * total energy  :   -83.0014923 Eh     change       -0.1121800E-02 Eh
 * total energy  :   -83.0022949 Eh     change       -0.8026330E-03 Eh
 * total energy  :   -83.0028854 Eh     change       -0.5904832E-03 Eh
 * total energy  :   -83.0032609 Eh     change       -0.3755148E-03 Eh
 * total energy  :   -83.0034971 Eh     change       -0.2362137E-03 Eh
 * total energy  :   -83.0036783 Eh     change       -0.1811829E-03 Eh
 * total energy  :   -83.0087847 Eh     change       -0.1255497E-04 Eh
 * total energy  :   -83.0088009 Eh     change       -0.1621751E-04 Eh
 * total energy  :   -83.0088176 Eh     change       -0.1666107E-04 Eh
 * total energy  :   -83.0088256 Eh     change       -0.8072027E-05 Eh
 * total energy  :   -83.0088370 Eh     change       -0.1140925E-04 Eh
 * total energy  :   -83.0088444 Eh     change       -0.7410371E-05 Eh
 * total energy  :   -83.0088529 Eh     change       -0.8403296E-05 Eh
 * total energy  :   -83.0088592 Eh     change       -0.6397751E-05 Eh
 * total energy  :   -83.0088631 Eh     change       -0.3874376E-05 Eh
   *** GEOMETRY OPTIMIZATION CONVERGED AFTER 94 ITERATIONS ***

 final structure:
================
42
 xtb: 6.5.1 (579679a)
C           -2.52322060497674       -2.34082335202575       -1.72991552020305
O           -2.51438594046496       -1.53643959608398       -0.53986303486651
C           -3.39680167353943       -0.57242279695611       -0.40567538122069
O           -4.31520127090465       -0.33905383856323       -1.14299087225183
C           -3.08432367382940        0.28676547570321        0.85862433994023
C           -4.24380988023474        1.24766099205010        1.11894396083242
N           -1.90246236341517        1.03730445068838        0.48508182007382
C           -0.74775560193284        0.62764883733350        0.80496634506739
C            0.48206456848837        1.41307863339994        0.39637395070644
C            1.00073700754676        2.18081265219188        1.61586086174154
C            0.15290522781861        2.36357182025862       -0.75718536993207
N            1.52360442103854        0.46830483440832       -0.01113972714546
C            1.30540632545208       -0.44909740457794       -0.98143722174100
O            0.21744613037719       -0.67531709848678       -1.48409585070183
C            2.53100067844400       -1.19084727380014       -1.35807075496464
N            2.64612797135391       -2.15698363830075       -2.21548920982001
N            3.95909966476575       -2.51832329164032       -2.22674749658754
C            4.56636472582326       -1.74977400355169       -1.37654985367032
C            6.00191007006805       -1.73939223146747       -1.02302169877858
O            3.71895040751580       -0.88735866627209       -0.79152610374493
N           -0.50184705929522       -0.49153838281423        1.58751989251693
C           -1.46557787039855       -1.21820179939054        2.21667824324459
O           -1.21247057990210       -2.17611796703580        2.91258470181251
C           -2.88979000641109       -0.68971125858145        1.99840058018848
O           -3.80260402201514       -1.06801580408262        2.68720192495707
H           -2.98002657890040       -3.30485979424623       -1.50164952037086
H           -1.48213435347761       -2.47523592970320       -2.02275407350093
H           -3.08178074799723       -1.83967844975779       -2.52225058115424
H           -4.41687476671928        1.85238678748205        0.23123827020488
H           -5.14440430969250        0.68294145924005        1.35419169682024
H           -3.99684073373811        1.89881449576996        1.95430743248404
H            1.89545924219966        2.73843660111485        1.34680554244828
H            1.24345906713292        1.49012065903787        2.42147640836962
H            0.24016401584118        2.87842944482316        1.96291050661941
H            1.05258385929867        2.89171063268826       -1.06524986211447
H           -0.59429616840662        3.08446822577745       -0.42952426697556
H           -0.24437944890589        1.80284983151318       -1.60245206081977
H            2.46745157504907        0.66011476650877        0.27731519574217
H            6.12066649615238       -1.90130544109355        0.04797897600259
H            6.52289477594078       -2.51960235350595       -1.57284114043405
H            6.43516138789939       -0.76901481001789       -1.26512987016407
H            0.45753103695277       -0.75883041803108        1.74709882140560

          :  Hamiltonian                  GFN1-xTB          :
         :: total energy             -83.008863123095 Eh    ::
         :: gradient norm              0.000394850234 Eh/a0 ::
         :: HOMO-LUMO gap              2.433587395244 eV    ::
         :: SCC energy               -83.796365565243 Eh    ::
         :: -> Gsolv                  -0.060734517522 Eh    ::
         :: repulsion energy           0.815578866177 Eh    ::

    * Orbital Energies and Occupations

         #    Occupation            Energy/Eh            Energy/eV
      -------------------------------------------------------------
         1        2.0000           -0.8671990             -23.5977
       ...           ...                  ...                  ...
        55        2.0000           -0.5102368             -13.8843
        56        2.0000           -0.5069577             -13.7950
        57        2.0000           -0.5061830             -13.7739
        58        2.0000           -0.5022139             -13.6659
        59        2.0000           -0.4947986             -13.4642
        60        2.0000           -0.4825543             -13.1310
        61        2.0000           -0.4729957             -12.8709
        62        2.0000           -0.4686023             -12.7513
        63        2.0000           -0.4622344             -12.5780
        64        2.0000           -0.4569461             -12.4341
        65        2.0000           -0.4542838             -12.3617
        66        2.0000           -0.4497506             -12.2383
        67        2.0000           -0.4390038             -11.9459 (HOMO)
        68                         -0.3495711              -9.5123 (LUMO)
        69                         -0.3150002              -8.5716
        70                         -0.2954201              -8.0388
        71                         -0.2664795              -7.2513
        72                         -0.2580465              -7.0218
        73                         -0.2248741              -6.1191
        74                         -0.2021941              -5.5020
        75                         -0.1418520              -3.8600
        76                         -0.1408873              -3.8337
        77                         -0.1357073              -3.6928
        78                         -0.1259779              -3.4280
       ...                                ...                  ...
       134                          0.7607308              20.7005
      -------------------------------------------------------------
                  HL-Gap            0.0894327 Eh            2.4336 eV

Wiberg/Mayer (AO) data.
largest (>0.10) Wiberg bond orders for each atom

     #   Z sym  total        # sym  WBO       # sym  WBO       # sym  WBO
 ---------------------------------------------------------------------------
     1   6 C    3.853 --    28 H    0.981    26 H    0.980    27 H    0.979
                             2 O    0.874
     2   8 O    2.226 --     3 C    1.161     1 C    0.874     4 O    0.141
     3   6 C    3.842 --     4 O    1.699     2 O    1.161     5 C    0.858
     4   8 O    1.982 --     3 C    1.699     2 O    0.141
     5   6 C    3.964 --     6 C    0.983     7 N    0.972    24 C    0.964
                             3 C    0.858
     6   6 C    3.985 --    31 H    0.985    30 H    0.983    29 H    0.983
                             5 C    0.983
     7   7 N    3.023 --     8 C    1.754     5 C    0.972
     8   6 C    3.928 --     7 N    1.754    21 N    1.069     9 C    0.973
     9   6 C    3.936 --    11 C    0.990    10 C    0.983     8 C    0.973
                            12 N    0.926
    10   6 C    3.988 --    33 H    0.984    34 H    0.983     9 C    0.983
                            32 H    0.981
    11   6 C    3.988 --     9 C    0.990    35 H    0.985    36 H    0.983
                            37 H    0.981
    12   7 N    3.338 --    13 C    1.244     9 C    0.926    38 H    0.889
                            14 O    0.172
    13   6 C    3.915 --    14 O    1.587    12 N    1.244    15 C    0.997
    14   8 O    1.904 --    13 C    1.587    12 N    0.172
    15   6 C    3.874 --    16 N    1.619    20 O    1.047    13 C    0.997
    16   7 N    3.001 --    15 C    1.619    17 N    1.201
    17   7 N    2.982 --    18 C    1.607    16 N    1.201
    18   6 C    3.867 --    17 N    1.607    20 O    1.073    19 C    1.032
    19   6 C    3.986 --    18 C    1.032    40 H    0.982    39 H    0.963
                            41 H    0.962
    20   8 O    2.317 --    18 C    1.073    15 C    1.047
    21   7 N    3.434 --    22 C    1.189     8 C    1.069    42 H    0.880
                            23 O    0.149
    22   6 C    3.892 --    23 O    1.668    21 N    1.189    24 C    0.907
    23   8 O    1.950 --    22 C    1.668    21 N    0.149
    24   6 C    3.846 --    25 O    1.805     5 C    0.964    22 C    0.907
    25   8 O    2.015 --    24 C    1.805
    26   1 H    1.006 --     1 C    0.980
    27   1 H    1.022 --     1 C    0.979
    28   1 H    1.006 --     1 C    0.981
    29   1 H    1.006 --     6 C    0.983
    30   1 H    1.004 --     6 C    0.983
    31   1 H    1.001 --     6 C    0.985
    32   1 H    0.996 --    10 C    0.981
    33   1 H    0.998 --    10 C    0.984
    34   1 H    0.999 --    10 C    0.983
    35   1 H    1.000 --    11 C    0.985
    36   1 H    1.008 --    11 C    0.983
    37   1 H    1.009 --    11 C    0.981
    38   1 H    0.931 --    12 N    0.889
    39   1 H    0.996 --    19 C    0.963
    40   1 H    0.998 --    19 C    0.982
    41   1 H    0.996 --    19 C    0.962
    42   1 H    0.931 --    21 N    0.880
 ---------------------------------------------------------------------------

           -------------------------------------------------
          | TOTAL ENERGY              -83.008863123095 Eh   |
          | GRADIENT NORM               0.000394850234 Eh/α |
          | HOMO-LUMO GAP               2.433587395244 eV   |
           -------------------------------------------------

 * finished run on 2023/06/21 at 17:32:29.679
