   * xtb version 6.5.1 (579679a) compiled by 'ehlert@majestix' on 2022-07-11
          program call               : /lustre/hpc/kemi/ree/PhD/git/ReactivityQM/dep/xtb-6.5.1/bin/xtb --gfn 1 /lustre/hpc/kemi/ree/PhD/git/ReactivityQM/calculations/RaltegravirCLI/reac01prodN08/conf12/RaltegravirCLI_reac01prodN08_conf12_gfn1.xyz --opt --vfukui --chrg 1 --uhf 0 --alpb DMSO

   ID    Z sym.   atoms
    1    6 C      1, 3, 5, 8, 9
    2   17 Cl     2
    3    8 O      4, 10
    4    7 N      6, 7
    5    1 H      11-16

      * Solvation model:               ALPB
        Solvent                        DMSO
        Solvent mass                       7.8130E+01 g/mol
          :  Hamiltonian                  GFN1-xTB          :
 * total energy  :   -33.3860904 Eh     change       -0.2458478E-11 Eh
 * total energy  :   -33.3920889 Eh     change       -0.5998556E-02 Eh
 * total energy  :   -33.3944933 Eh     change       -0.2404405E-02 Eh
 * total energy  :   -33.3947677 Eh     change       -0.2743191E-03 Eh
 * total energy  :   -33.3948769 Eh     change       -0.1091826E-03 Eh
 * total energy  :   -33.3949308 Eh     change       -0.5391163E-04 Eh
 * total energy  :   -33.3949579 Eh     change       -0.2714577E-04 Eh
 * total energy  :   -33.3949747 Eh     change       -0.1683460E-04 Eh
 * total energy  :   -33.3949861 Eh     change       -0.1140600E-04 Eh
 * total energy  :   -33.3949917 Eh     change       -0.5540022E-05 Eh
 * total energy  :   -33.3949959 Eh     change       -0.4191128E-05 Eh
   *** GEOMETRY OPTIMIZATION CONVERGED AFTER 11 ITERATIONS ***

 final structure:
================
16
 xtb: 6.5.1 (579679a)
C            3.90719603087511       -0.34972882695623        0.48012122590598
Cl           2.30978242312864       -0.22172949021013        1.26876586746224
C            1.17630016888326       -0.05275159747393       -0.17261907065926
O            1.65511563282710       -0.01972577643306       -1.24919552556638
C           -0.17199450774376        0.01629290494698        0.29522244028499
N           -0.59695223216702       -0.03341363486792        1.53663489882006
N           -1.92381614673272        0.06757224595859        1.49729287726700
C           -2.26751164704447        0.17556907133830        0.22988429848773
C           -3.62636074218200        0.31541719336973       -0.31942690084693
O           -1.20322429675281        0.14863109035499       -0.56314101035488
H            3.82971112309616        0.05779201721709       -0.52658143312714
H            4.19463533080661       -1.39694739811334        0.44833779240334
H            4.60249303726944        0.23127275430861        1.07868131109239
H           -3.80557314912264       -0.46253670177661       -1.06210048804779
H           -4.35889963480656        0.24448096038506        0.48098060376537
H           -3.72090039033236        1.27980618795556       -0.82109388688647

          :  Hamiltonian                  GFN1-xTB          :
         :: total energy             -33.394995879998 Eh    ::
         :: gradient norm              0.000557150595 Eh/a0 ::
         :: HOMO-LUMO gap              2.764128386839 eV    ::
         :: SCC energy               -33.689708446926 Eh    ::
         :: -> Gsolv                  -0.083585427320 Eh    ::
         :: repulsion energy           0.301425912939 Eh    ::

    * Orbital Energies and Occupations

         #    Occupation            Energy/Eh            Energy/eV
      -------------------------------------------------------------
         1        2.0000           -1.0708834             -29.1402
       ...           ...                  ...                  ...
        15        2.0000           -0.6238170             -16.9749
        16        2.0000           -0.6127268             -16.6731
        17        2.0000           -0.6072824             -16.5250
        18        2.0000           -0.5851563             -15.9229
        19        2.0000           -0.5772720             -15.7084
        20        2.0000           -0.5706644             -15.5286
        21        2.0000           -0.5583724             -15.1941
        22        2.0000           -0.5571415             -15.1606
        23        2.0000           -0.5503100             -14.9747
        24        2.0000           -0.5457260             -14.8500
        25        2.0000           -0.5278509             -14.3636
        26        2.0000           -0.5001763             -13.6105
        27        2.0000           -0.4972887             -13.5319 (HOMO)
        28                         -0.3957089             -10.7678 (LUMO)
        29                         -0.3196733              -8.6988
        30                         -0.3004639              -8.1760
        31                         -0.2993568              -8.1459
        32                         -0.2728661              -7.4251
        33                         -0.1885377              -5.1304
        34                         -0.1837423              -4.9999
        35                         -0.1658223              -4.5123
        36                         -0.1613449              -4.3904
        37                         -0.1585272              -4.3137
        38                         -0.1122519              -3.0545
       ...                                ...                  ...
        57                          0.7633034              20.7705
      -------------------------------------------------------------
                  HL-Gap            0.1015798 Eh            2.7641 eV

Wiberg/Mayer (AO) data.
largest (>0.10) Wiberg bond orders for each atom

     #   Z sym  total        # sym  WBO       # sym  WBO       # sym  WBO
 ---------------------------------------------------------------------------
     1   6 C    3.858 --    12 H    0.980    13 H    0.976    11 H    0.969
                             2 Cl   0.910
     2  17 Cl   1.909 --     1 C    0.910     3 C    0.783     4 O    0.146
     3   6 C    3.875 --     4 O    1.846     5 C    1.110     2 Cl   0.783
     4   8 O    2.167 --     3 C    1.846     2 Cl   0.146
     5   6 C    3.889 --     6 N    1.498     3 C    1.110    10 O    1.048
     6   7 N    3.023 --     5 C    1.498     7 N    1.313
     7   7 N    2.993 --     8 C    1.485     6 N    1.313
     8   6 C    3.848 --     7 N    1.485    10 O    1.125     9 C    1.044
     9   6 C    3.973 --     8 C    1.044    15 H    0.979    14 H    0.952
                            16 H    0.947
    10   8 O    2.362 --     8 C    1.125     5 C    1.048
    11   1 H    0.994 --     1 C    0.969
    12   1 H    0.994 --     1 C    0.980
    13   1 H    0.993 --     1 C    0.976
    14   1 H    0.989 --     9 C    0.952
    15   1 H    0.993 --     9 C    0.979
    16   1 H    0.988 --     9 C    0.947
 ---------------------------------------------------------------------------

           -------------------------------------------------
          | TOTAL ENERGY              -33.394995879998 Eh   |
          | GRADIENT NORM               0.000557150595 Eh/α |
          | HOMO-LUMO GAP               2.764128386839 eV   |
           -------------------------------------------------

 * finished run on 2023/06/20 at 14:55:57.125
