   * xtb version 6.5.1 (579679a) compiled by 'ehlert@majestix' on 2022-07-11
          program call               : /lustre/hpc/kemi/ree/PhD/git/ReactivityQM/dep/xtb-6.5.1/bin/xtb --gfn 1 /lustre/hpc/kemi/ree/PhD/git/ReactivityQM/calculations/R02oxygendeprot/reac01prodN05/conf14/R02oxygendeprot_reac01prodN05_conf14_gfn1.xyz --opt --vfukui --chrg 0 --uhf 0 --alpb DMSO

   ID    Z sym.   atoms
    1    6 C      1, 3, 5, 6, 8, 11-14, 16, 18, 21, 22, 25
    2    8 O      2, 4, 7, 9, 17, 23
    3    7 N      10, 15, 19, 20, 24
    4    1 H      26-42

      * Solvation model:               ALPB
        Solvent                        DMSO
        Solvent mass                       7.8130E+01 g/mol
          :  Hamiltonian                  GFN1-xTB          :
 * total energy  :   -82.9713534 Eh     change       -0.2820855E-10 Eh
 * total energy  :   -82.9840573 Eh     change       -0.1270388E-01 Eh
 * total energy  :   -82.9894123 Eh     change       -0.5355049E-02 Eh
 * total energy  :   -82.9906610 Eh     change       -0.1248636E-02 Eh
 * total energy  :   -82.9913591 Eh     change       -0.6981175E-03 Eh
 * total energy  :   -82.9916534 Eh     change       -0.2942901E-03 Eh
 * total energy  :   -82.9918111 Eh     change       -0.1576938E-03 Eh
 * total energy  :   -82.9919259 Eh     change       -0.1148399E-03 Eh
 * total energy  :   -82.9920312 Eh     change       -0.1053436E-03 Eh
 * total energy  :   -82.9921499 Eh     change       -0.1186733E-03 Eh
 * total energy  :   -82.9928203 Eh     change       -0.7940194E-05 Eh
 * total energy  :   -82.9928283 Eh     change       -0.7961993E-05 Eh
 * total energy  :   -82.9928367 Eh     change       -0.8460961E-05 Eh
 * total energy  :   -82.9928486 Eh     change       -0.1180915E-04 Eh
 * total energy  :   -82.9928625 Eh     change       -0.1391191E-04 Eh
 * total energy  :   -82.9928722 Eh     change       -0.9700285E-05 Eh
 * total energy  :   -82.9928797 Eh     change       -0.7520098E-05 Eh
 * total energy  :   -82.9928805 Eh     change       -0.8445155E-06 Eh
 * total energy  :   -82.9928846 Eh     change       -0.4068606E-05 Eh
   *** GEOMETRY OPTIMIZATION CONVERGED AFTER 37 ITERATIONS ***

 final structure:
================
42
 xtb: 6.5.1 (579679a)
C           -5.04833909286288        3.00344111195655        0.25698438581042
O           -4.59974896489545        1.64960886316193        0.19472184223534
C           -3.27673431674801        1.46515282332933        0.20083481251508
O           -2.50245391583235        2.40681152305957        0.26707064082216
C           -2.88572929560343        0.05356128974694        0.07393744184033
C           -3.77507311992089       -0.89975063343179       -0.49656996249940
O           -4.95924437871569       -0.71149588025702       -0.77622540808701
C           -3.17021137486176       -2.24394933621825       -0.81374681463792
O           -3.77088167070706       -3.19587818320793       -1.26587534521370
N           -1.80373529281250       -2.34267542216871       -0.59455180771553
C           -1.01118540128765       -1.42816887368015        0.00956756599093
C            0.43975867131904       -1.84315255588144        0.23525222242079
C            0.58215320221523       -2.43378761252722        1.64752522863030
C            0.89613034834745       -2.88875969888711       -0.79579060730985
N            1.27487394874695       -0.65690474931515        0.03566798547724
C            2.59065245837518       -0.59984959560497        0.37731945769415
O            3.18598468448420       -1.40847439349917        1.05902044962493
C            3.20425578966963        0.63191919714313       -0.17481390261486
N            2.60965584741411        1.50794072070943       -0.92884495755062
N            3.52914246918549        2.47002262474141       -1.21208810232828
C            4.62833070411639        2.11968019129822       -0.61353711864035
C            5.92510420912454        2.83076831755939       -0.61151340001893
O            4.48509933011455        0.96706681059942        0.05649229480282
N           -1.55517291904883       -0.28792538393639        0.38129499267517
C           -0.81571643846141        0.64289251242088        1.24710930138100
H           -4.68874773240431        3.47844288793524        1.17297251927476
H           -4.68145124286468        3.56524274510399       -0.60565019030912
H           -6.13660950557738        2.97265359107760        0.25177340247469
H           -1.40879664917616       -3.23261062948645       -0.85673962692531
H           -0.22358196629740       -3.14752243216995        1.81127288167687
H            1.53393756836438       -2.95257205081370        1.73672321018680
H            0.53383041509987       -1.66342455879746        2.41328851638332
H            1.97415007951977       -3.00976820696833       -0.70043645391704
H            0.43280956865839       -3.85540877665418       -0.60872659685719
H            0.66813574373465       -2.55975314181989       -1.80746478660729
H            0.98352588415044       -0.02719776637660       -0.69975536056474
H            6.21277747783001        3.07587224240935        0.41063099381286
H            5.84412392537570        3.74254056456523       -1.19759863040121
H            6.69935357134416        2.19117592697835       -1.03469003132504
H           -0.36469521132759        1.42997919232888        0.64617069293106
H           -0.04598341286989        0.10732283285330        1.78818198923366
H           -1.50969499491494        1.07693391272888        1.96236627562351

          :  Hamiltonian                  GFN1-xTB          :
         :: total energy             -82.992884599857 Eh    ::
         :: gradient norm              0.000544393439 Eh/a0 ::
         :: HOMO-LUMO gap              2.513599426529 eV    ::
         :: SCC energy               -83.774182918202 Eh    ::
         :: -> Gsolv                  -0.067341985410 Eh    ::
         :: repulsion energy           0.808277114454 Eh    ::

    * Orbital Energies and Occupations

         #    Occupation            Energy/Eh            Energy/eV
      -------------------------------------------------------------
         1        2.0000           -0.8681991             -23.6249
       ...           ...                  ...                  ...
        55        2.0000           -0.5109518             -13.9037
        56        2.0000           -0.5106681             -13.8960
        57        2.0000           -0.4960605             -13.4985
        58        2.0000           -0.4928947             -13.4123
        59        2.0000           -0.4901759             -13.3384
        60        2.0000           -0.4876059             -13.2684
        61        2.0000           -0.4745074             -12.9120
        62        2.0000           -0.4735224             -12.8852
        63        2.0000           -0.4671576             -12.7120
        64        2.0000           -0.4578524             -12.4588
        65        2.0000           -0.4546865             -12.3727
        66        2.0000           -0.4272562             -11.6262
        67        2.0000           -0.4165139             -11.3339 (HOMO)
        68                         -0.3241409              -8.8203 (LUMO)
        69                         -0.3188459              -8.6762
        70                         -0.3056295              -8.3166
        71                         -0.2607615              -7.0957
        72                         -0.2400160              -6.5312
        73                         -0.2065620              -5.6208
        74                         -0.1685051              -4.5853
        75                         -0.1488212              -4.0496
        76                         -0.1435312              -3.9057
        77                         -0.1401019              -3.8124
        78                         -0.1344802              -3.6594
       ...                                ...                  ...
       134                          0.7510637              20.4375
      -------------------------------------------------------------
                  HL-Gap            0.0923731 Eh            2.5136 eV

Wiberg/Mayer (AO) data.
largest (>0.10) Wiberg bond orders for each atom

     #   Z sym  total        # sym  WBO       # sym  WBO       # sym  WBO
 ---------------------------------------------------------------------------
     1   6 C    3.877 --    28 H    0.986    26 H    0.980    27 H    0.980
                             2 O    0.903
     2   8 O    2.201 --     3 C    1.105     1 C    0.903     4 O    0.121
     3   6 C    3.865 --     4 O    1.584     2 O    1.105     5 C    1.080
     4   8 O    1.895 --     3 C    1.584     2 O    0.121
     5   6 C    3.850 --     6 C    1.258     3 C    1.080    24 N    1.056
                             7 O    0.139
     6   6 C    3.944 --     7 O    1.573     5 C    1.258     8 C    0.954
     7   8 O    1.883 --     6 C    1.573     5 C    0.139
     8   6 C    3.867 --     9 O    1.661    10 N    1.089     6 C    0.954
     9   8 O    1.932 --     8 C    1.661    10 N    0.117
    10   7 N    3.453 --    11 C    1.207     8 C    1.089    29 H    0.877
                             9 O    0.117
    11   6 C    3.914 --    24 N    1.434    10 N    1.207    12 C    0.978
    12   6 C    3.934 --    14 C    0.986    11 C    0.978    13 C    0.976
                            15 N    0.933
    13   6 C    3.981 --    30 H    0.984    12 C    0.976    32 H    0.976
                            31 H    0.975
    14   6 C    3.986 --    12 C    0.986    35 H    0.984    34 H    0.978
                            33 H    0.977
    15   7 N    3.313 --    16 C    1.211    12 C    0.933    36 H    0.893
                            17 O    0.168
    16   6 C    3.912 --    17 O    1.620    15 N    1.211    18 C    0.993
    17   8 O    1.931 --    16 C    1.620    15 N    0.168
    18   6 C    3.878 --    19 N    1.604    23 O    1.066    16 C    0.993
    19   7 N    3.022 --    18 C    1.604    20 N    1.205
    20   7 N    2.981 --    21 C    1.599    19 N    1.205
    21   6 C    3.869 --    20 N    1.599    23 O    1.084    22 C    1.032
    22   6 C    3.985 --    21 C    1.032    38 H    0.982    37 H    0.963
                            39 H    0.962
    23   8 O    2.334 --    21 C    1.084    18 C    1.066
    24   7 N    3.589 --    11 C    1.434     5 C    1.056    25 C    0.917
    25   6 C    3.910 --    41 H    0.976    42 H    0.976    40 H    0.970
                            24 N    0.917
    26   1 H    1.009 --     1 C    0.980
    27   1 H    1.009 --     1 C    0.980
    28   1 H    1.012 --     1 C    0.986
    29   1 H    0.932 --    10 N    0.877
    30   1 H    1.000 --    13 C    0.984
    31   1 H    1.009 --    13 C    0.975
    32   1 H    1.001 --    13 C    0.976
    33   1 H    0.999 --    14 C    0.977
    34   1 H    0.996 --    14 C    0.978
    35   1 H    0.997 --    14 C    0.984
    36   1 H    0.952 --    15 N    0.893
    37   1 H    0.996 --    22 C    0.963
    38   1 H    0.998 --    22 C    0.982
    39   1 H    0.996 --    22 C    0.962
    40   1 H    1.015 --    25 C    0.970
    41   1 H    1.010 --    25 C    0.976
    42   1 H    1.004 --    25 C    0.976
 ---------------------------------------------------------------------------

           -------------------------------------------------
          | TOTAL ENERGY              -82.992884599857 Eh   |
          | GRADIENT NORM               0.000544393439 Eh/α |
          | HOMO-LUMO GAP               2.513599426529 eV   |
           -------------------------------------------------

 * finished run on 2023/06/21 at 17:21:04.547
