   * xtb version 6.5.1 (579679a) compiled by 'ehlert@majestix' on 2022-07-11
          program call               : /lustre/hpc/kemi/ree/PhD/git/ReactivityQM/dep/xtb-6.5.1/bin/xtb --gfn 1 /lustre/hpc/kemi/ree/PhD/git/ReactivityQM/calculations/R02/reac01/conf20/R02_reac01_conf20_gfn1.xyz --opt --vfukui --chrg 0 --uhf 0 --alpb DMSO

   ID    Z sym.   atoms
    1    6 C      1, 3, 5, 7-10, 12, 14, 17, 18, 21, 23
    2    8 O      2, 4, 13, 19, 22, 24
    3    7 N      6, 11, 15, 16, 20
    4    1 H      25-39

      * Solvation model:               ALPB
        Solvent                        DMSO
        Solvent mass                       7.8130E+01 g/mol
          :  Hamiltonian                  GFN1-xTB          :
 * total energy  :   -79.8132554 Eh     change       -0.1043077E-10 Eh
 * total energy  :   -79.8237152 Eh     change       -0.1045972E-01 Eh
 * total energy  :   -79.8277052 Eh     change       -0.3990023E-02 Eh
 * total energy  :   -79.8284254 Eh     change       -0.7201858E-03 Eh
 * total energy  :   -79.8289397 Eh     change       -0.5143446E-03 Eh
 * total energy  :   -79.8291956 Eh     change       -0.2559131E-03 Eh
 * total energy  :   -79.8293926 Eh     change       -0.1969308E-03 Eh
 * total energy  :   -79.8295349 Eh     change       -0.1423280E-03 Eh
 * total energy  :   -79.8296298 Eh     change       -0.9492100E-04 Eh
 * total energy  :   -79.8296967 Eh     change       -0.6687032E-04 Eh
 * total energy  :   -79.8301291 Eh     change       -0.2571976E-04 Eh
 * total energy  :   -79.8301398 Eh     change       -0.1069283E-04 Eh
 * total energy  :   -79.8301530 Eh     change       -0.1314001E-04 Eh
 * total energy  :   -79.8301551 Eh     change       -0.2161323E-05 Eh
 * total energy  :   -79.8301645 Eh     change       -0.9363343E-05 Eh
 * total energy  :   -79.8301733 Eh     change       -0.8824356E-05 Eh
 * total energy  :   -79.8301815 Eh     change       -0.8154517E-05 Eh
 * total energy  :   -79.8301932 Eh     change       -0.1171991E-04 Eh
 * total energy  :   -79.8301964 Eh     change       -0.3186655E-05 Eh
   *** GEOMETRY OPTIMIZATION CONVERGED AFTER 35 ITERATIONS ***

 final structure:
================
39
 xtb: 6.5.1 (579679a)
C           -6.16819398417987        1.68717642776805        0.41392859433259
O           -4.97393562077680        1.20206840274549       -0.21928564817432
C           -3.98209447881661        0.83551227405340        0.60458999595506
O           -4.06902549521386        0.91087614133853        1.80640263272694
C           -2.77936230505949        0.32313059016031       -0.10983165482117
N           -1.79985152748216       -0.11073411251787        0.75195185992795
C           -0.69829278504313       -0.58166170254219        0.28216455297547
C            0.35592542504890       -1.12172857333849        1.22352973222562
C            0.25754318614889       -2.65521034003018        1.19968411376204
C            0.13594736968337       -0.57048961841373        2.63546616787774
N            1.66464887259105       -0.69027458060617        0.71812535110614
C            2.83020863971077       -1.06395906673850        1.29343287454676
O            2.94673715945208       -1.87228828757067        2.19801051150076
C            4.00669618010796       -0.39127320038075        0.68789503845955
N            5.25473195734349       -0.54981663289222        1.00259822886980
N            5.97345218670953        0.27450032066609        0.19063283798433
C            5.12037238621477        0.88677487300555       -0.57020478315913
C            5.39820935911693        1.89206368296969       -1.61855487416044
O            3.85755221700231        0.51093111127831       -0.30658970797159
N           -0.46671184331844       -0.68309830146193       -1.05882960752608
C           -1.36370680284887       -0.28078229245953       -2.02948907435460
O           -1.10064489421442       -0.39471960486018       -3.21274403495297
C           -2.60906252214449        0.26451849387666       -1.46986283664547
O           -3.49115763550679        0.66611643051169       -2.39028091463492
H           -6.85663707899461        1.95553513497151       -0.38331639855944
H           -5.93487357717675        2.55986741420726        1.02744805137355
H           -6.59804803907600        0.90384331060717        1.04202679495318
H            0.49012249393655       -3.02613130960882        0.20298704994633
H            0.95201295603055       -3.09143040945363        1.91477334143993
H           -0.75651283038719       -2.95318993005626        1.46249953650769
H            0.87283091469701       -0.98959600849344        3.31808642283311
H            0.22748114711272        0.51445402704835        2.62702099900721
H           -0.86339011061513       -0.83748610456508        2.97557067964732
H            1.68605373368345        0.08224249276380        0.07329396974318
H            6.47187426400549        2.03312780283541       -1.71596871966537
H            4.92771806147926        2.83979324876871       -1.35623386633101
H            4.98204684267838        1.56245590011959       -2.57009240573601
H            0.40536079280626       -1.06707775039355       -1.39084064862882
H           -4.30602461470308        1.02595974667952       -1.99882616238286

          :  Hamiltonian                  GFN1-xTB          :
         :: total energy             -79.830196392502 Eh    ::
         :: gradient norm              0.000524664323 Eh/a0 ::
         :: HOMO-LUMO gap              2.884774740940 eV    ::
         :: SCC energy               -80.578528490623 Eh    ::
         :: -> Gsolv                  -0.061276563501 Eh    ::
         :: repulsion energy           0.771678346175 Eh    ::

    * Orbital Energies and Occupations

         #    Occupation            Energy/Eh            Energy/eV
      -------------------------------------------------------------
         1        2.0000           -0.8660852             -23.5674
       ...           ...                  ...                  ...
        52        2.0000           -0.5055841             -13.7576
        53        2.0000           -0.5013805             -13.6433
        54        2.0000           -0.4999871             -13.6053
        55        2.0000           -0.4882972             -13.2872
        56        2.0000           -0.4869150             -13.2496
        57        2.0000           -0.4805558             -13.0766
        58        2.0000           -0.4678689             -12.7314
        59        2.0000           -0.4618693             -12.5681
        60        2.0000           -0.4596495             -12.5077
        61        2.0000           -0.4522067             -12.3052
        62        2.0000           -0.4518414             -12.2952
        63        2.0000           -0.4481960             -12.1960
        64        2.0000           -0.4316249             -11.7451 (HOMO)
        65                         -0.3256114              -8.8603 (LUMO)
        66                         -0.3121033              -8.4928
        67                         -0.2842080              -7.7337
        68                         -0.2571708              -6.9980
        69                         -0.2423106              -6.5936
        70                         -0.1998884              -5.4392
        71                         -0.1604510              -4.3661
        72                         -0.1422448              -3.8707
        73                         -0.1373135              -3.7365
        74                         -0.1276903              -3.4746
        75                         -0.1234581              -3.3595
       ...                                ...                  ...
       126                          0.7332918              19.9539
      -------------------------------------------------------------
                  HL-Gap            0.1060135 Eh            2.8848 eV

Wiberg/Mayer (AO) data.
largest (>0.10) Wiberg bond orders for each atom

     #   Z sym  total        # sym  WBO       # sym  WBO       # sym  WBO
 ---------------------------------------------------------------------------
     1   6 C    3.860 --    25 H    0.986    27 H    0.980    26 H    0.980
                             2 O    0.884
     2   8 O    2.203 --     3 C    1.089     1 C    0.884     4 O    0.130
     3   6 C    3.847 --     4 O    1.672     2 O    1.089     5 C    1.005
     4   8 O    1.933 --     3 C    1.672     2 O    0.130
     5   6 C    3.963 --    23 C    1.503     6 N    1.171     3 C    1.005
     6   7 N    3.028 --     7 C    1.597     5 C    1.171
     7   6 C    3.931 --     6 N    1.597    20 N    1.166     8 C    0.981
     8   6 C    3.934 --    10 C    0.990     7 C    0.981     9 C    0.976
                            11 N    0.923
     9   6 C    3.987 --    30 H    0.985    28 H    0.985    29 H    0.977
                             8 C    0.976
    10   6 C    3.988 --     8 C    0.990    32 H    0.985    33 H    0.983
                            31 H    0.983
    11   7 N    3.335 --    12 C    1.246     8 C    0.923    34 H    0.894
                            13 O    0.173
    12   6 C    3.915 --    13 O    1.593    11 N    1.246    14 C    0.993
    13   8 O    1.909 --    12 C    1.593    11 N    0.173
    14   6 C    3.872 --    15 N    1.622    19 O    1.047    12 C    0.993
    15   7 N    3.000 --    14 C    1.622    16 N    1.199
    16   7 N    2.982 --    17 C    1.610    15 N    1.199
    17   6 C    3.868 --    16 N    1.610    19 O    1.072    18 C    1.032
    18   6 C    3.986 --    17 C    1.032    35 H    0.982    37 H    0.964
                            36 H    0.962
    19   8 O    2.316 --    17 C    1.072    14 C    1.047
    20   7 N    3.459 --     7 C    1.166    21 C    1.121    38 H    0.883
                            22 O    0.135
    21   6 C    3.908 --    22 O    1.605    20 N    1.121    23 C    1.053
    22   8 O    1.901 --    21 C    1.605    20 N    0.135
    23   6 C    3.919 --     5 C    1.503    24 O    1.112    21 C    1.053
    24   8 O    2.091 --    23 C    1.112    39 H    0.799
    25   1 H    1.009 --     1 C    0.986
    26   1 H    1.006 --     1 C    0.980
    27   1 H    1.006 --     1 C    0.980
    28   1 H    1.001 --     9 C    0.985
    29   1 H    1.010 --     9 C    0.977
    30   1 H    1.001 --     9 C    0.985
    31   1 H    1.006 --    10 C    0.983
    32   1 H    1.004 --    10 C    0.985
    33   1 H    1.010 --    10 C    0.983
    34   1 H    0.938 --    11 N    0.894
    35   1 H    0.998 --    18 C    0.982
    36   1 H    0.997 --    18 C    0.962
    37   1 H    0.996 --    18 C    0.964
    38   1 H    0.928 --    20 N    0.883
    39   1 H    0.851 --    24 O    0.799
 ---------------------------------------------------------------------------

           -------------------------------------------------
          | TOTAL ENERGY              -79.830196392502 Eh   |
          | GRADIENT NORM               0.000524664323 Eh/α |
          | HOMO-LUMO GAP               2.884774740940 eV   |
           -------------------------------------------------

 * finished run on 2023/06/20 at 14:52:06.804
