   * xtb version 6.5.1 (579679a) compiled by 'ehlert@majestix' on 2022-07-11
          program call               : /lustre/hpc/kemi/ree/PhD/git/ReactivityQM/dep/xtb-6.5.1/bin/xtb --gfn 1 /lustre/hpc/kemi/ree/PhD/git/ReactivityQM/calculations/R01/reac01prodN08/conf05/R01_reac01prodN08_conf05_gfn1.xyz --opt --vfukui --chrg 1 --uhf 0 --alpb DMSO

   ID    Z sym.   atoms
    1    6 C      1, 2, 5, 6, 9, 10
    2    7 N      3, 4
    3    8 O      7, 8, 11
    4    1 H      12-20

      * Solvation model:               ALPB
        Solvent                        DMSO
        Solvent mass                       7.8130E+01 g/mol
          :  Hamiltonian                  GFN1-xTB          :
 * total energy  :   -37.5753907 Eh     change       -0.8455459E-11 Eh
 * total energy  :   -37.5832401 Eh     change       -0.7849418E-02 Eh
 * total energy  :   -37.5855797 Eh     change       -0.2339611E-02 Eh
 * total energy  :   -37.5859912 Eh     change       -0.4114480E-03 Eh
 * total energy  :   -37.5862210 Eh     change       -0.2297692E-03 Eh
 * total energy  :   -37.5864021 Eh     change       -0.1811825E-03 Eh
 * total energy  :   -37.5865773 Eh     change       -0.1751334E-03 Eh
 * total energy  :   -37.5867100 Eh     change       -0.1327687E-03 Eh
 * total energy  :   -37.5868227 Eh     change       -0.1126686E-03 Eh
 * total energy  :   -37.5868924 Eh     change       -0.6967345E-04 Eh
 * total energy  :   -37.5871913 Eh     change       -0.5319417E-05 Eh
 * total energy  :   -37.5871965 Eh     change       -0.5242472E-05 Eh
 * total energy  :   -37.5872047 Eh     change       -0.8184783E-05 Eh
 * total energy  :   -37.5872152 Eh     change       -0.1044519E-04 Eh
 * total energy  :   -37.5872269 Eh     change       -0.1170758E-04 Eh
 * total energy  :   -37.5872351 Eh     change       -0.8270967E-05 Eh
 * total energy  :   -37.5872349 Eh     change        0.2299321E-06 Eh
 * total energy  :   -37.5872428 Eh     change       -0.7846942E-05 Eh
 * total energy  :   -37.5872449 Eh     change       -0.2170535E-05 Eh
   *** GEOMETRY OPTIMIZATION CONVERGED AFTER 34 ITERATIONS ***

 final structure:
================
20
 xtb: 6.5.1 (579679a)
C            3.42507474931943       -0.37051640591461       -1.07478516547638
C            2.42366137575252        0.19614749335071       -0.15530625017757
N            2.63601103411823        0.90850030560976        0.92268744950852
N            1.44172818343500        1.21183198691802        1.43798376144302
C            0.53811873491290        0.67267341565428        0.65856241414197
C           -0.88052533877169        0.80845432782791        0.87154103037700
O           -1.41976049066468        1.43615378876544        1.72094562582758
O           -1.71858159582356        0.14486997200722       -0.10747293869883
C           -3.15978294006316        0.35559415532025        0.05314667478907
C           -1.30581481584280       -1.06264834817938       -0.82963075685925
O            1.11722922829253        0.01604442659589       -0.36817671463435
H            4.42696436262864       -0.17387181274160       -0.69835623337435
H            3.26727431156231       -1.44476051235822       -1.17486618603205
H            3.30868697332920        0.07484102991328       -2.06415170829153
H           -3.29292462180758        1.38356833261502        0.38348756306991
H           -3.54083283770299       -0.35097681892325        0.78889019586010
H           -3.60336507890509        0.20008664640209       -0.92582566725575
H           -0.67801665117764       -1.66149268507568       -0.17512356372058
H           -0.77070636853124       -0.74557171869743       -1.72188276025047
H           -2.21443521406071       -1.59892857909006       -1.08709877024609

          :  Hamiltonian                  GFN1-xTB          :
         :: total energy             -37.587244937079 Eh    ::
         :: gradient norm              0.000714469312 Eh/a0 ::
         :: HOMO-LUMO gap              2.943507662846 eV    ::
         :: SCC energy               -37.934091098469 Eh    ::
         :: -> Gsolv                  -0.093840522323 Eh    ::
         :: repulsion energy           0.355465829282 Eh    ::

    * Orbital Energies and Occupations

         #    Occupation            Energy/Eh            Energy/eV
      -------------------------------------------------------------
         1        2.0000           -0.9470366             -25.7702
       ...           ...                  ...                  ...
        18        2.0000           -0.6231580             -16.9570
        19        2.0000           -0.5924853             -16.1223
        20        2.0000           -0.5870840             -15.9754
        21        2.0000           -0.5768959             -15.6981
        22        2.0000           -0.5743269             -15.6282
        23        2.0000           -0.5693890             -15.4939
        24        2.0000           -0.5619724             -15.2920
        25        2.0000           -0.5528801             -15.0446
        26        2.0000           -0.5514791             -15.0065
        27        2.0000           -0.5481076             -14.9148
        28        2.0000           -0.5222145             -14.2102
        29        2.0000           -0.4971173             -13.5273
        30        2.0000           -0.4933018             -13.4234 (HOMO)
        31                         -0.3851299             -10.4799 (LUMO)
        32                         -0.2955793              -8.0431
        33                         -0.2608938              -7.0993
        34                         -0.1942649              -5.2862
        35                         -0.1735630              -4.7229
        36                         -0.1581939              -4.3047
        37                         -0.1385106              -3.7691
        38                         -0.1209284              -3.2906
        39                         -0.1113158              -3.0291
        40                         -0.1064730              -2.8973
        41                         -0.0929846              -2.5302
       ...                                ...                  ...
        62                          0.7246474              19.7187
      -------------------------------------------------------------
                  HL-Gap            0.1081719 Eh            2.9435 eV

Wiberg/Mayer (AO) data.
largest (>0.10) Wiberg bond orders for each atom

     #   Z sym  total        # sym  WBO       # sym  WBO       # sym  WBO
 ---------------------------------------------------------------------------
     1   6 C    3.976 --     2 C    1.043    12 H    0.979    13 H    0.954
                            14 H    0.949
     2   6 C    3.847 --     3 N    1.521    11 O    1.096     1 C    1.043
     3   7 N    2.994 --     2 C    1.521     4 N    1.288
     4   7 N    3.020 --     5 C    1.526     3 N    1.288
     5   6 C    3.887 --     4 N    1.526     6 C    1.082    11 O    1.044
     6   6 C    3.826 --     7 O    1.777     5 C    1.082     8 O    0.826
     7   8 O    2.060 --     6 C    1.777
     8   8 O    2.524 --     6 C    0.826     9 C    0.784    10 C    0.780
     9   6 C    3.757 --    16 H    0.978    17 H    0.977    15 H    0.970
                             8 O    0.784
    10   6 C    3.757 --    18 H    0.977    19 H    0.975    20 H    0.974
                             8 O    0.780
    11   8 O    2.341 --     2 C    1.096     5 C    1.044
    12   1 H    0.993 --     1 C    0.979
    13   1 H    0.990 --     1 C    0.954
    14   1 H    0.990 --     1 C    0.949
    15   1 H    0.994 --     9 C    0.970
    16   1 H    0.989 --     9 C    0.978
    17   1 H    0.992 --     9 C    0.977
    18   1 H    0.995 --    10 C    0.977
    19   1 H    0.999 --    10 C    0.975
    20   1 H    0.990 --    10 C    0.974
 ---------------------------------------------------------------------------

           -------------------------------------------------
          | TOTAL ENERGY              -37.587244937079 Eh   |
          | GRADIENT NORM               0.000714469312 Eh/α |
          | HOMO-LUMO GAP               2.943507662846 eV   |
           -------------------------------------------------

 * finished run on 2023/06/20 at 14:56:49.460
