                         Program Version 5.0.1 -  RELEASE  -
|  1> # ORCA input file
|  2> ! SP r2SCAN-3c CPCM
|  3>
|  4> %maxcore 1875.0
|  5> %pal nprocs 4 end
|  6> %cpcm smd true SMDsolvent "DMSO" end
|  7>
|  8> *xyz 0 1
|  9> N       2.523295    0.400111   -0.715144
| 10> C       1.803686   -0.114920    0.449545
| 11> C       0.310096   -0.066288    0.228962
| 12> C      -0.526616   -0.971782    0.877680
| 13> C      -1.903242   -0.914612    0.705341
| 14> C      -2.419170    0.062095   -0.126571
| 15> F      -3.752338    0.124671   -0.300522
| 16> C      -1.619972    0.975958   -0.789013
| 17> C      -0.247205    0.903946   -0.601834
| 18> H       3.492287    0.526526   -0.461560
| 19> H       2.493169   -0.290720   -1.452943
| 20> H       2.051906    0.521825    1.306966
| 21> H       2.116066   -1.141297    0.694544
| 22> H      -0.102027   -1.732174    1.523203
| 23> H      -2.562244   -1.612898    1.204195
| 24> H      -2.063900    1.724239   -1.433002
| 25> H       0.406211    1.605322   -1.109850
| 26> **                         ****END OF INPUT****

CARTESIAN COORDINATES (ANGSTROEM)
---------------------------------
  N      2.523295    0.400111   -0.715144
  C      1.803686   -0.114920    0.449545
  C      0.310096   -0.066288    0.228962
  C     -0.526616   -0.971782    0.877680
  C     -1.903242   -0.914612    0.705341
  C     -2.419170    0.062095   -0.126571
  F     -3.752338    0.124671   -0.300522
  C     -1.619972    0.975958   -0.789013
  C     -0.247205    0.903946   -0.601834
  H      3.492287    0.526526   -0.461560
  H      2.493169   -0.290720   -1.452943
  H      2.051906    0.521825    1.306966
  H      2.116066   -1.141297    0.694544
  H     -0.102027   -1.732174    1.523203
  H     -2.562244   -1.612898    1.204195
  H     -2.063900    1.724239   -1.433002
  H      0.406211    1.605322   -1.109850

 Total Charge           Charge          ....    0
 Multiplicity           Mult            ....    1
 Number of Electrons    NEL             ....   66
 Basis Dimension        Dim             ....  221

ORBITAL ENERGIES
----------------

  NO   OCC          E(Eh)            E(eV)
   0   2.0000     -24.500097      -666.6815
   1   2.0000     -14.133502      -384.5921
   2   2.0000     -10.115450      -275.2554
   3   2.0000     -10.052467      -273.5415
   4   2.0000     -10.039997      -273.2022
   5   2.0000     -10.039112      -273.1781
   6   2.0000     -10.038516      -273.1619
   7   2.0000     -10.038323      -273.1567
   8   2.0000     -10.035472      -273.0791
   9   2.0000      -1.190564       -32.3969
  10   2.0000      -0.852865       -23.2076
  11   2.0000      -0.824791       -22.4437
  12   2.0000      -0.726256       -19.7624
  13   2.0000      -0.722954       -19.6726
  14   2.0000      -0.627696       -17.0805
  15   2.0000      -0.590624       -16.0717
  16   2.0000      -0.556583       -15.1454
  17   2.0000      -0.512246       -13.9389
  18   2.0000      -0.465243       -12.6599
  19   2.0000      -0.461398       -12.5553
  20   2.0000      -0.433590       -11.7986
  21   2.0000      -0.428923       -11.6716
  22   2.0000      -0.406115       -11.0510
  23   2.0000      -0.401815       -10.9339
  24   2.0000      -0.391497       -10.6532
  25   2.0000      -0.369359       -10.0508
  26   2.0000      -0.355359        -9.6698
  27   2.0000      -0.329614        -8.9693
  28   2.0000      -0.317784        -8.6474
  29   2.0000      -0.309924        -8.4335
  30   2.0000      -0.245002        -6.6669
  31   2.0000      -0.225964        -6.1488
  32   2.0000      -0.207500        -5.6464
  33   0.0000      -0.040499        -1.1020
  34   0.0000      -0.025341        -0.6896
  35   0.0000       0.074553         2.0287
  36   0.0000       0.083352         2.2681
  37   0.0000       0.108994         2.9659

MULLIKEN ATOMIC CHARGES
-----------------------
   0 N :   -0.647718
   1 C :   -0.277231
   2 C :    0.164671
   3 C :   -0.233036
   4 C :   -0.285944
   5 C :    0.350340
   6 F :   -0.240407
   7 C :   -0.302248
   8 C :   -0.214719
   9 H :    0.285307
  10 H :    0.286578
  11 H :    0.176378
  12 H :    0.158279
  13 H :    0.186799
  14 H :    0.195185
  15 H :    0.194558
  16 H :    0.203207
Sum of atomic charges:   -0.0000000

LOEWDIN ATOMIC CHARGES
----------------------
   0 N :   -0.747370
   1 C :   -0.044063
   2 C :   -0.083886
   3 C :   -0.152851
   4 C :   -0.163435
   5 C :    0.193921
   6 F :   -0.301930
   7 C :   -0.163542
   8 C :   -0.148936
   9 H :    0.245776
  10 H :    0.245022
  11 H :    0.189761
  12 H :    0.169787
  13 H :    0.184649
  14 H :    0.192694
  15 H :    0.192363
  16 H :    0.192041

  Mayer bond orders larger than 0.100000
B(  0-N ,  1-C ) :   1.0204 B(  0-N ,  2-C ) :  -0.1418 B(  0-N ,  9-H ) :   0.9015
B(  0-N , 10-H ) :   0.9062 B(  1-C ,  2-C ) :   0.8071 B(  1-C , 11-H ) :   0.9699
B(  1-C , 12-H ) :   1.0139 B(  2-C ,  3-C ) :   1.3933 B(  2-C ,  8-C ) :   1.3905
B(  3-C ,  4-C ) :   1.3693 B(  3-C , 13-H ) :   0.9443 B(  4-C ,  5-C ) :   1.4014
B(  4-C , 14-H ) :   0.9382 B(  5-C ,  6-F ) :   0.8801 B(  5-C ,  7-C ) :   1.3941
B(  7-C ,  8-C ) :   1.3553 B(  7-C , 15-H ) :   0.9402 B(  8-C , 16-H ) :   0.9490

Dispersion correction           -0.005382477
FINAL SINGLE POINT ENERGY      -426.076613348492

DIPOLE MOMENT
-------------
                                X             Y             Z
Electronic contribution:    -12.13145       0.20613      -0.56721
Nuclear contribution   :     13.45180      -0.80674       0.87205
                        -----------------------------------------
Total Dipole Moment    :      1.32035      -0.60061       0.30484
                        -----------------------------------------
Magnitude (a.u.)       :      1.48222
Magnitude (Debye)      :      3.76752

Rotational constants in cm-1:     0.155277     0.031626     0.026797
Rotational constants in MHz :  4655.097238   948.136981   803.340506

                             ****ORCA TERMINATED NORMALLY****
TOTAL RUN TIME: 0 days 0 hours 0 minutes 15 seconds 616 msec
