   * xtb version 6.5.1 (579679a) compiled by 'ehlert@majestix' on 2022-07-11
          program call               : /lustre/hpc/kemi/ree/PhD/git/ReactivityQM/dep/xtb-6.5.1/bin/xtb --gfn 1 /lustre/hpc/kemi/ree/PhD/git/ReactivityQM/calculations/R03/reac01/conf02/R03_reac01_conf02_gfn1.xyz --opt --vfukui --chrg 0 --uhf 0 --alpb DMSO

   ID    Z sym.   atoms
    1    7 N      1
    2    6 C      2-6, 8, 9
    3    9 F      7
    4    1 H      10-17

      * Solvation model:               ALPB
        Solvent                        DMSO
        Solvent mass                       7.8130E+01 g/mol
          :  Hamiltonian                  GFN1-xTB          :
 * total energy  :   -27.4590471 Eh     change       -0.8345324E-11 Eh
 * total energy  :   -27.4615268 Eh     change       -0.2479666E-02 Eh
 * total energy  :   -27.4619344 Eh     change       -0.4076302E-03 Eh
 * total energy  :   -27.4619744 Eh     change       -0.4000678E-04 Eh
 * total energy  :   -27.4619982 Eh     change       -0.2378884E-04 Eh
 * total energy  :   -27.4620156 Eh     change       -0.1737947E-04 Eh
 * total energy  :   -27.4620304 Eh     change       -0.1477755E-04 Eh
 * total energy  :   -27.4620529 Eh     change       -0.2247469E-04 Eh
 * total energy  :   -27.4620715 Eh     change       -0.1868038E-04 Eh
 * total energy  :   -27.4620806 Eh     change       -0.9070916E-05 Eh
 * total energy  :   -27.4632989 Eh     change       -0.4517390E-04 Eh
 * total energy  :   -27.4633379 Eh     change       -0.3898281E-04 Eh
 * total energy  :   -27.4633494 Eh     change       -0.1153112E-04 Eh
 * total energy  :   -27.4633540 Eh     change       -0.4595425E-05 Eh
 * total energy  :   -27.4633586 Eh     change       -0.4643296E-05 Eh
 * total energy  :   -27.4633631 Eh     change       -0.4480134E-05 Eh
 * total energy  :   -27.4633709 Eh     change       -0.7788722E-05 Eh
 * total energy  :   -27.4633781 Eh     change       -0.7214587E-05 Eh
 * total energy  :   -27.4633820 Eh     change       -0.3863911E-05 Eh
   *** GEOMETRY OPTIMIZATION CONVERGED AFTER 43 ITERATIONS ***

 final structure:
================
17
 xtb: 6.5.1 (579679a)
N            2.52329482732362        0.40011064305645       -0.71514408811360
C            1.80368608516301       -0.11492035756370        0.44954525313082
C            0.31009585872334       -0.06628849216119        0.22896185690952
C           -0.52661614986520       -0.97178240845893        0.87768035483229
C           -1.90324234742497       -0.91461193076587        0.70534079705540
C           -2.41916962486634        0.06209506099978       -0.12657114697061
F           -3.75233801015458        0.12467146092342       -0.30052165277593
C           -1.61997192060283        0.97595842117569       -0.78901288102937
C           -0.24720536830402        0.90394551173796       -0.60183398216953
H            3.49228666243469        0.52652571729281       -0.46156006869564
H            2.49316893998285       -0.29072002921438       -1.45294258550118
H            2.05190633814484        0.52182524877226        1.30696576876742
H            2.11606580541981       -1.14129734187760        0.69454412133474
H           -0.10202683316797       -1.73217404946532        1.52320313205998
H           -2.56224434214587       -1.61289828619098        1.20419537854559
H           -2.06390019885021        1.72423929243288       -1.43300180804551
H            0.40621127818996        1.60532153930666       -1.10985044933450

          :  Hamiltonian                  GFN1-xTB          :
         :: total energy             -27.463381993084 Eh    ::
         :: gradient norm              0.000739426274 Eh/a0 ::
         :: HOMO-LUMO gap              3.683162425804 eV    ::
         :: SCC energy               -27.819437422118 Eh    ::
         :: -> Gsolv                  -0.017013225281 Eh    ::
         :: repulsion energy           0.363651082958 Eh    ::

    * Orbital Energies and Occupations

         #    Occupation            Energy/Eh            Energy/eV
      -------------------------------------------------------------
         1        2.0000           -0.8590883             -23.3770
       ...           ...                  ...                  ...
        12        2.0000           -0.5630311             -15.3209
        13        2.0000           -0.5477516             -14.9051
        14        2.0000           -0.5377904             -14.6340
        15        2.0000           -0.5319266             -14.4745
        16        2.0000           -0.5278640             -14.3639
        17        2.0000           -0.5139415             -13.9851
        18        2.0000           -0.5084462             -13.8355
        19        2.0000           -0.4947026             -13.4615
        20        2.0000           -0.4763653             -12.9626
        21        2.0000           -0.4688881             -12.7591
        22        2.0000           -0.4458400             -12.1319
        23        2.0000           -0.4287858             -11.6679
        24        2.0000           -0.4031445             -10.9701 (HOMO)
        25                         -0.2677907              -7.2870 (LUMO)
        26                         -0.2582511              -7.0274
        27                         -0.1383953              -3.7659
        28                         -0.1140695              -3.1040
        29                         -0.0988457              -2.6897
        30                         -0.0941340              -2.5615
        31                         -0.0896424              -2.4393
        32                         -0.0801279              -2.1804
        33                         -0.0729929              -1.9862
        34                         -0.0542243              -1.4755
        35                         -0.0236709              -0.6441
       ...                                ...                  ...
        52                          0.6510557              17.7161
      -------------------------------------------------------------
                  HL-Gap            0.1353537 Eh            3.6832 eV

Wiberg/Mayer (AO) data.
largest (>0.10) Wiberg bond orders for each atom

     #   Z sym  total        # sym  WBO       # sym  WBO       # sym  WBO
 ---------------------------------------------------------------------------
     1   7 N    2.950 --     2 C    0.996    11 H    0.949    10 H    0.944
     2   6 C    3.980 --     3 C    1.006     1 N    0.996    13 H    0.971
                            12 H    0.965
     3   6 C    3.988 --     4 C    1.416     9 C    1.414     2 C    1.006
     4   6 C    3.994 --     5 C    1.442     3 C    1.416    14 H    0.972
                             8 C    0.110
     5   6 C    3.992 --     4 C    1.442     6 C    1.402    15 H    0.970
                             9 C    0.110
     6   6 C    3.859 --     5 C    1.402     8 C    1.401     7 F    0.918
     7   9 F    1.044 --     6 C    0.918
     8   6 C    3.992 --     9 C    1.445     6 C    1.401    16 H    0.970
                             4 C    0.110
     9   6 C    3.994 --     8 C    1.445     3 C    1.414    17 H    0.970
                             5 C    0.110
    10   1 H    0.958 --     1 N    0.944
    11   1 H    0.961 --     1 N    0.949
    12   1 H    1.012 --     2 C    0.965
    13   1 H    1.004 --     2 C    0.971
    14   1 H    1.000 --     4 C    0.972
    15   1 H    0.999 --     5 C    0.970
    16   1 H    0.999 --     8 C    0.970
    17   1 H    1.016 --     9 C    0.970
 ---------------------------------------------------------------------------

           -------------------------------------------------
          | TOTAL ENERGY              -27.463381993084 Eh   |
          | GRADIENT NORM               0.000739426274 Eh/α |
          | HOMO-LUMO GAP               3.683162425804 eV   |
           -------------------------------------------------

 * finished run on 2023/06/20 at 15:12:17.316
