   * xtb version 6.5.1 (579679a) compiled by 'ehlert@majestix' on 2022-07-11
          program call               : /lustre/hpc/kemi/ree/PhD/git/ReactivityQM/dep/xtb-6.5.1/bin/xtb --gfn 1 /lustre/hpc/kemi/ree/PhD/git/ReactivityQM/calculations/RaltegravirCLI/reac02prodE10/conf16/RaltegravirCLI_reac02prodE10_conf16_gfn1.xyz --opt --vfukui --chrg -1 --uhf 0 --alpb DMSO

   ID    Z sym.   atoms
    1    6 C      1, 3, 5, 6, 8, 9, 12-16, 18, 19, 21-24
    2    7 N      2, 11, 20, 25
    3    8 O      4, 7, 10
    4    9 F      17
    5    1 H      26-47

      * Solvation model:               ALPB
        Solvent                        DMSO
        Solvent mass                       7.8130E+01 g/mol
          :  Hamiltonian                  GFN1-xTB          :
 * total energy  :   -80.2113300 Eh     change       -0.1431033E-10 Eh
 * total energy  :   -80.2219877 Eh     change       -0.1065773E-01 Eh
 * total energy  :   -80.2247614 Eh     change       -0.2773730E-02 Eh
 * total energy  :   -80.2253075 Eh     change       -0.5460763E-03 Eh
 * total energy  :   -80.2257101 Eh     change       -0.4025959E-03 Eh
 * total energy  :   -80.2259211 Eh     change       -0.2110249E-03 Eh
 * total energy  :   -80.2261294 Eh     change       -0.2082796E-03 Eh
 * total energy  :   -80.2262973 Eh     change       -0.1679400E-03 Eh
 * total energy  :   -80.2264257 Eh     change       -0.1283442E-03 Eh
 * total energy  :   -80.2265441 Eh     change       -0.1184122E-03 Eh
 * total energy  :   -80.2301054 Eh     change       -0.3465703E-04 Eh
 * total energy  :   -80.2301321 Eh     change       -0.2667586E-04 Eh
 * total energy  :   -80.2301726 Eh     change       -0.4053418E-04 Eh
 * total energy  :   -80.2301894 Eh     change       -0.1679889E-04 Eh
 * total energy  :   -80.2302158 Eh     change       -0.2637352E-04 Eh
 * total energy  :   -80.2302243 Eh     change       -0.8443380E-05 Eh
 * total energy  :   -80.2302341 Eh     change       -0.9799277E-05 Eh
 * total energy  :   -80.2302427 Eh     change       -0.8615401E-05 Eh
 * total energy  :   -80.2302474 Eh     change       -0.4733940E-05 Eh
   *** GEOMETRY OPTIMIZATION CONVERGED AFTER 51 ITERATIONS ***

 final structure:
================
47
 xtb: 6.5.1 (579679a)
C           -3.48353890267038       -0.82200619902379        1.34009607240999
N           -2.49646157776480       -0.95939335920457        0.27037424283128
C           -1.87321522046309       -2.16767767348383        0.20322459163249
O           -2.07711411705644       -3.05118055887143        1.04572477308368
C           -0.91290855103898       -2.35356066846859       -0.97314852636111
C           -0.12061450196647       -3.65056937293007       -0.78509316913513
O           -1.75692450551323       -2.48641482068088       -2.14734080162137
C           -0.08726216126298       -1.09159296358809       -1.05464045550719
C            1.27396531438219       -1.04535142109909       -1.42260165735132
O            2.04713577139437       -2.02076650337487       -1.55416963026085
N            1.76405455125271        0.25509804586012       -1.69825291674138
C            3.19705218163835        0.46685705357687       -1.54721614612601
C            3.57428603796672        0.55336541238548       -0.08291984918579
C            3.85647283912189       -0.60325255908012        0.64271646520021
C            4.15551277998428       -0.53618162255309        1.99621912476094
C            4.16302776844940        0.70580599827335        2.60490905396320
F            4.45261102019026        0.78031051153128        3.91955326526129
C            3.88942226523910        1.87477506946621        1.91941624443880
C            3.59139282994965        1.78659162748606        0.56594051279482
N           -0.75307426878969        0.09674983437185       -0.89665603905414
C           -1.92095433930940        0.17624087869257       -0.35934380865420
C           -2.59866552066302        1.53860649683693       -0.32392224687069
C           -1.99632216538842        2.41443139425012       -1.43727173846749
C           -2.36430265619323        2.23909295205447        1.02479716071143
N           -4.04336704543132        1.40656117639620       -0.54086753602186
H           -4.23430077499098       -0.08488807877442        1.06409778286420
H           -3.97133370243855       -1.78685169422119        1.48939975905773
H           -3.00125688885913       -0.52640428558176        2.27562674121954
H           -0.81368291699222       -4.47436083923721       -0.60879512587098
H            0.46259352820323       -3.86857659901423       -1.67683987227871
H            0.55205125872815       -3.56233280264674        0.06670279126775
H           -1.22554247173241       -2.33888545433843       -2.93752139933297
H            1.20856163373885        0.99123206260789       -1.27288409072740
H            3.46281090268833        1.39579009320104       -2.06095950198342
H            3.72244717102217       -0.36464255672412       -2.02928936990606
H            3.84061465083024       -1.56639149334677        0.14323585394404
H            4.38238996432785       -1.42529535037916        2.57041662579421
H            3.90936318825207        2.82754660179833        2.43197582761882
H            3.37562476793927        2.69219980069734        0.01054510934926
H           -2.49401862458277        3.38282138231367       -1.45616316610913
H           -0.93166239642525        2.56511952051499       -1.26134602621496
H           -2.12366968679659        1.93336916853590       -2.40629136057011
H           -2.86347730309847        1.71337793827927        1.83658832782907
H           -2.75201640875611        3.25688413787933        0.98773829481283
H           -1.29630268333128        2.27979126347234        1.23618053599105
H           -4.47456232899892        2.30833953077604       -0.39766005562263
H           -4.21484170480051        1.14561892535628       -1.50402466686949

          :  Hamiltonian                  GFN1-xTB          :
         :: total energy             -80.230247401824 Eh    ::
         :: gradient norm              0.000572517293 Eh/a0 ::
         :: HOMO-LUMO gap              1.711170617350 eV    ::
         :: SCC energy               -81.086644877458 Eh    ::
         :: -> Gsolv                  -0.107182737541 Eh    ::
         :: repulsion energy           0.887906350302 Eh    ::

    * Orbital Energies and Occupations

         #    Occupation            Energy/Eh            Energy/eV
      -------------------------------------------------------------
         1        2.0000           -0.8523678             -23.1941
       ...           ...                  ...                  ...
        56        2.0000           -0.4618629             -12.5679
        57        2.0000           -0.4575318             -12.4501
        58        2.0000           -0.4509754             -12.2717
        59        2.0000           -0.4403193             -11.9817
        60        2.0000           -0.4370560             -11.8929
        61        2.0000           -0.4233375             -11.5196
        62        2.0000           -0.4118598             -11.2073
        63        2.0000           -0.4073627             -11.0849
        64        2.0000           -0.3992985             -10.8655
        65        2.0000           -0.3938439             -10.7170
        66        2.0000           -0.3857520             -10.4968
        67        2.0000           -0.3742474             -10.1838
        68        2.0000           -0.3219809              -8.7615 (HOMO)
        69                         -0.2590965              -7.0504 (LUMO)
        70                         -0.2512229              -6.8361
        71                         -0.2354794              -6.4077
        72                         -0.1973663              -5.3706
        73                         -0.1425773              -3.8797
        74                         -0.1300780              -3.5396
        75                         -0.1170227              -3.1844
        76                         -0.1080490              -2.9402
        77                         -0.1023971              -2.7864
        78                         -0.1002268              -2.7273
        79                         -0.0907218              -2.4687
       ...                                ...                  ...
       144                          0.6820317              18.5590
      -------------------------------------------------------------
                  HL-Gap            0.0628844 Eh            1.7112 eV

Wiberg/Mayer (AO) data.
largest (>0.10) Wiberg bond orders for each atom

     #   Z sym  total        # sym  WBO       # sym  WBO       # sym  WBO
 ---------------------------------------------------------------------------
     1   6 C    3.953 --    27 H    0.982    28 H    0.981    26 H    0.976
                             2 N    0.947
     2   7 N    3.426 --     3 C    1.226    21 C    0.999     1 C    0.947
                             4 O    0.138
     3   6 C    3.895 --     4 O    1.533     2 N    1.226     5 C    0.939
     4   8 O    1.843 --     3 C    1.533     2 N    0.138
     5   6 C    3.905 --     6 C    0.995     8 C    0.973     3 C    0.939
                             7 O    0.897
     6   6 C    3.997 --     5 C    0.995    31 H    0.986    29 H    0.985
                            30 H    0.984
     7   8 O    1.866 --     5 C    0.897    32 H    0.871
     8   6 C    3.861 --     9 C    1.288    20 N    1.194     5 C    0.973
                            21 C    0.104
     9   6 C    3.913 --    10 O    1.442     8 C    1.288    11 N    1.049
    10   8 O    1.798 --     9 C    1.442
    11   7 N    3.155 --     9 C    1.049    12 C    0.964    33 H    0.923
    12   6 C    3.972 --    13 C    0.995    34 H    0.979    35 H    0.973
                            11 N    0.964
    13   6 C    3.986 --    19 C    1.418    14 C    1.412    12 C    0.995
    14   6 C    3.992 --    15 C    1.445    13 C    1.412    36 H    0.968
                            18 C    0.111
    15   6 C    3.992 --    14 C    1.445    16 C    1.401    37 H    0.971
                            19 C    0.109
    16   6 C    3.856 --    18 C    1.404    15 C    1.401    17 F    0.914
    17   9 F    1.038 --    16 C    0.914
    18   6 C    3.992 --    19 C    1.440    16 C    1.404    38 H    0.971
                            14 C    0.111
    19   6 C    3.994 --    18 C    1.440    13 C    1.418    39 H    0.972
                            15 C    0.109
    20   7 N    3.084 --    21 C    1.610     8 C    1.194
    21   6 C    3.907 --    20 N    1.610     2 N    0.999    22 C    0.981
                             8 C    0.104
    22   6 C    3.964 --    23 C    0.990    24 C    0.987    21 C    0.981
                            25 N    0.975
    23   6 C    3.996 --    22 C    0.990    40 H    0.987    42 H    0.985
                            41 H    0.983
    24   6 C    3.992 --    22 C    0.987    45 H    0.986    44 H    0.985
                            43 H    0.982
    25   7 N    2.989 --    22 C    0.975    46 H    0.949    47 H    0.947
    26   1 H    1.037 --     1 C    0.976
    27   1 H    1.017 --     1 C    0.982
    28   1 H    1.009 --     1 C    0.981
    29   1 H    1.018 --     6 C    0.985
    30   1 H    1.027 --     6 C    0.984
    31   1 H    1.018 --     6 C    0.986
    32   1 H    0.899 --     7 O    0.871
    33   1 H    0.992 --    11 N    0.923
    34   1 H    1.011 --    12 C    0.979
    35   1 H    1.022 --    12 C    0.973
    36   1 H    1.018 --    14 C    0.968
    37   1 H    1.000 --    15 C    0.971
    38   1 H    1.000 --    18 C    0.971
    39   1 H    1.001 --    19 C    0.972
    40   1 H    1.006 --    23 C    0.987
    41   1 H    1.020 --    23 C    0.983
    42   1 H    1.012 --    23 C    0.985
    43   1 H    1.009 --    24 C    0.982
    44   1 H    1.003 --    24 C    0.985
    45   1 H    1.009 --    24 C    0.986
    46   1 H    0.963 --    25 N    0.949
    47   1 H    0.965 --    25 N    0.947
 ---------------------------------------------------------------------------

           -------------------------------------------------
          | TOTAL ENERGY              -80.230247401824 Eh   |
          | GRADIENT NORM               0.000572517293 Eh/α |
          | HOMO-LUMO GAP               1.711170617350 eV   |
           -------------------------------------------------

 * finished run on 2023/06/20 at 15:10:27.500
