   * xtb version 6.5.1 (579679a) compiled by 'ehlert@majestix' on 2022-07-11
          program call               : /lustre/hpc/kemi/ree/PhD/git/ReactivityQM/dep/xtb-6.5.1/bin/xtb --gfn 1 /lustre/hpc/kemi/ree/PhD/git/ReactivityQM/calculations/R02methylcation/reac01prodE09/conf15/R02methylcation_reac01prodE09_conf15_gfn1.xyz --opt --vfukui --chrg -2 --uhf 0 --alpb DMSO

   ID    Z sym.   atoms
    1    6 C      1, 3, 5, 7-10, 12, 14, 16, 17, 20, 22, 24
    2    8 O      2, 4, 13, 15, 23, 25
    3    7 N      6, 11, 18, 19, 21
    4    1 H      26-42

      * Solvation model:               ALPB
        Solvent                        DMSO
        Solvent mass                       7.8130E+01 g/mol
          :  Hamiltonian                  GFN1-xTB          :
 * total energy  :   -83.5960828 Eh     change       -0.1044498E-10 Eh
 * total energy  :   -83.6111910 Eh     change       -0.1510823E-01 Eh
 * total energy  :   -83.6165161 Eh     change       -0.5325057E-02 Eh
 * total energy  :   -83.6174992 Eh     change       -0.9831732E-03 Eh
 * total energy  :   -83.6184171 Eh     change       -0.9178075E-03 Eh
 * total energy  :   -83.6195731 Eh     change       -0.1156034E-02 Eh
 * total energy  :   -83.6213510 Eh     change       -0.1777875E-02 Eh
 * total energy  :   -83.6228999 Eh     change       -0.1548975E-02 Eh
 * total energy  :   -83.6251587 Eh     change       -0.2258801E-02 Eh
 * total energy  :   -83.6270675 Eh     change       -0.1908739E-02 Eh
 * total energy  :   -83.6347376 Eh     change       -0.5926704E-04 Eh
 * total energy  :   -83.6348006 Eh     change       -0.6296847E-04 Eh
 * total energy  :   -83.6348364 Eh     change       -0.3574515E-04 Eh
 * total energy  :   -83.6348588 Eh     change       -0.2246641E-04 Eh
 * total energy  :   -83.6348678 Eh     change       -0.9004334E-05 Eh
 * total energy  :   -83.6348810 Eh     change       -0.1318679E-04 Eh
 * total energy  :   -83.6348900 Eh     change       -0.8993816E-05 Eh
 * total energy  :   -83.6348960 Eh     change       -0.6038380E-05 Eh
 * total energy  :   -83.6348998 Eh     change       -0.3790522E-05 Eh
   *** GEOMETRY OPTIMIZATION CONVERGED AFTER 45 ITERATIONS ***

 final structure:
================
42
 xtb: 6.5.1 (579679a)
C            6.85479379718064        1.49069736403877       -1.29251313021591
O            5.63678619802684        1.72638521055857       -0.60552013684396
C            4.69645751408624        0.74672065028915       -0.71468403333929
O            4.92804758517034       -0.25775217295469       -1.38191838092948
C            3.46219504633315        1.00473201754587        0.00467051938675
N            2.54007483003520       -0.02269573566808       -0.12592660276895
C            1.39638306974638        0.05261282316603        0.44772253270395
C            0.40109100315963       -1.09507990064921        0.39448898014902
C            0.65785346399703       -1.95134840015257        1.64904030334641
C            0.63899060724423       -1.91799532269828       -0.88217822418895
N           -0.93628271296501       -0.50573624087361        0.44219247772717
C           -2.08038937224786       -1.40229152386131        0.30308493284884
O           -1.97169633793674       -2.63894973951243        0.57123218282002
C           -3.26029911304081       -0.74530739925946        0.08129446175929
O           -3.33682385223923        0.60500515525003       -0.38431493631245
C           -4.52817872389428        0.68519432359875       -0.98513252723864
C           -4.92702986325520        1.98422562599716       -1.59919118392696
N           -5.25646231695360       -0.36554984626955       -0.99090785850182
N           -4.51348832527575       -1.39760004777726       -0.30946828270201
C           -5.30611038470609       -1.81599088526673        0.85885380361867
N            1.04540234298077        1.13775895264080        1.22429785228726
C            1.85401810193267        2.21479663159482        1.44608760046416
O            1.46379077105559        3.14373303259314        2.15644455430815
C            3.20929894193351        2.16785305685402        0.77709595566621
O            3.98948495509782        3.12798174210675        0.94582128704390
H            6.68067846190321        1.37186269839461       -2.36710115727537
H            7.34693798782919        0.58792334649271       -0.91549726471715
H            7.49422837958072        2.35561796724182       -1.11863749269335
H            1.70774990206883       -2.24390540908723        1.68349438060057
H            0.42351348965959       -1.37237543157495        2.54223197538285
H            0.04215580824815       -2.84893976798103        1.64017622021851
H           -0.00438908489515       -2.79672485998373       -0.89112465894166
H            1.68071707542478       -2.23752260987263       -0.92281287162749
H            0.42617922105414       -1.31148965705169       -1.76260967946230
H           -1.01628574484380        0.23682598194899       -0.24829623029541
H           -4.25254643596581        2.24103196100369       -2.41636432990852
H           -5.94232696561110        1.91243550253894       -1.98143270041555
H           -4.87553665033984        2.77848083823176       -0.85494189525546
H           -4.75634855637309       -2.61151319579108        1.36134284952792
H           -5.47062173536376       -0.98585849895613        1.55396816883699
H           -6.26628226317094       -2.19605958042863        0.51205880900643
H            0.12426888532934        1.14881234358759        1.64151972985342

          :  Hamiltonian                  GFN1-xTB          :
         :: total energy             -83.634899831892 Eh    ::
         :: gradient norm              0.000498152484 Eh/a0 ::
         :: HOMO-LUMO gap              0.794502570597 eV    ::
         :: SCC energy               -84.376433623378 Eh    ::
         :: -> Gsolv                  -0.259540781576 Eh    ::
         :: repulsion energy           0.766778039443 Eh    ::

    * Orbital Energies and Occupations

         #    Occupation            Energy/Eh            Energy/eV
      -------------------------------------------------------------
         1        2.0000           -0.7901716             -21.5017
       ...           ...                  ...                  ...
        56        2.0000           -0.4472648             -12.1707
        57        2.0000           -0.4419710             -12.0266
        58        2.0000           -0.4270077             -11.6195
        59        2.0000           -0.4238839             -11.5345
        60        2.0000           -0.4177227             -11.3668
        61        2.0000           -0.4102196             -11.1626
        62        2.0000           -0.3999074             -10.8820
        63        2.0000           -0.3812052             -10.3731
        64        2.0000           -0.3789732             -10.3124
        65        2.0000           -0.3665224              -9.9736
        66        2.0000           -0.3595344              -9.7834
        67        2.0000           -0.3520206              -9.5790
        68        2.0000           -0.2881683              -7.8415 (HOMO)
        69        0.0000           -0.2589709              -7.0470 (LUMO)
        70                         -0.2203664              -5.9965
        71                         -0.2046678              -5.5693
        72                         -0.1859402              -5.0597
        73                         -0.1329108              -3.6167
        74                         -0.1198701              -3.2618
        75                         -0.1180108              -3.2112
        76                         -0.0971414              -2.6434
        77                         -0.0918922              -2.5005
        78                         -0.0893822              -2.4322
        79                         -0.0883083              -2.4030
       ...                                ...                  ...
       134                          0.7585540              20.6413
      -------------------------------------------------------------
                  HL-Gap            0.0291974 Eh            0.7945 eV

Wiberg/Mayer (AO) data.
largest (>0.10) Wiberg bond orders for each atom

     #   Z sym  total        # sym  WBO       # sym  WBO       # sym  WBO
 ---------------------------------------------------------------------------
     1   6 C    3.903 --    28 H    0.987    27 H    0.980    26 H    0.980
                             2 O    0.930
     2   8 O    2.153 --     3 C    1.036     1 C    0.930     4 O    0.106
     3   6 C    3.848 --     4 O    1.566     5 C    1.127     2 O    1.036
     4   8 O    1.844 --     3 C    1.566     2 O    0.106
     5   6 C    3.918 --    24 C    1.279     6 N    1.144     3 C    1.127
                            25 O    0.130
     6   7 N    3.023 --     7 C    1.635     5 C    1.144
     7   6 C    3.925 --     6 N    1.635    21 N    1.096     8 C    0.975
     8   6 C    3.966 --    10 C    0.987     9 C    0.980     7 C    0.975
                            11 N    0.970
     9   6 C    3.993 --    29 H    0.989    30 H    0.987     8 C    0.980
                            31 H    0.977
    10   6 C    3.996 --     8 C    0.987    34 H    0.987    33 H    0.985
                            32 H    0.983
    11   7 N    3.080 --     8 C    0.970    12 C    0.948    35 H    0.937
    12   6 C    3.927 --    14 C    1.505    13 O    1.347    11 N    0.948
    13   8 O    1.712 --    12 C    1.347    14 C    0.169
    14   6 C    3.644 --    12 C    1.505    19 N    0.948    15 O    0.871
                            13 O    0.169
    15   8 O    2.188 --    16 C    1.090    14 C    0.871    18 N    0.133
    16   6 C    3.907 --    18 N    1.709    15 O    1.090    17 C    1.014
    17   6 C    3.995 --    16 C    1.014    37 H    0.987    38 H    0.974
                            36 H    0.972
    18   7 N    2.946 --    16 C    1.709    19 N    0.985    15 O    0.133
    19   7 N    3.060 --    18 N    0.985    20 C    0.970    14 C    0.948
    20   6 C    3.982 --    41 H    0.989    39 H    0.987    40 H    0.983
                            19 N    0.970
    21   7 N    3.439 --    22 C    1.179     7 C    1.096    42 H    0.892
                            23 O    0.136
    22   6 C    3.884 --    23 O    1.559    21 N    1.179    24 C    0.972
    23   8 O    1.840 --    22 C    1.559    21 N    0.136
    24   6 C    3.944 --    25 O    1.504     5 C    1.279    22 C    0.972
    25   8 O    1.810 --    24 C    1.504     5 C    0.130
    26   1 H    1.015 --     1 C    0.980
    27   1 H    1.015 --     1 C    0.980
    28   1 H    1.016 --     1 C    0.987
    29   1 H    1.009 --     9 C    0.989
    30   1 H    1.011 --     9 C    0.987
    31   1 H    1.031 --     9 C    0.977
    32   1 H    1.023 --    10 C    0.983
    33   1 H    1.020 --    10 C    0.985
    34   1 H    1.009 --    10 C    0.987
    35   1 H    0.978 --    11 N    0.937
    36   1 H    1.004 --    17 C    0.972
    37   1 H    1.006 --    17 C    0.987
    38   1 H    1.003 --    17 C    0.974
    39   1 H    1.031 --    20 C    0.987
    40   1 H    1.022 --    20 C    0.983
    41   1 H    1.025 --    20 C    0.989
    42   1 H    0.963 --    21 N    0.892
 ---------------------------------------------------------------------------

           -------------------------------------------------
          | TOTAL ENERGY              -83.634899831892 Eh   |
          | GRADIENT NORM               0.000498152484 Eh/α |
          | HOMO-LUMO GAP               0.794502570597 eV   |
           -------------------------------------------------

 * finished run on 2023/06/21 at 17:19:00.572
