   * xtb version 6.5.1 (579679a) compiled by 'ehlert@majestix' on 2022-07-11
          program call               : /lustre/hpc/kemi/ree/PhD/git/ReactivityQM/dep/xtb-6.5.1/bin/xtb --gfn 1 /lustre/hpc/kemi/ree/PhD/git/ReactivityQM/calculations/R02oxygendeprot/reac01prodN02/conf08/R02oxygendeprot_reac01prodN02_conf08_gfn1.xyz --opt --vfukui --chrg 0 --uhf 0 --alpb DMSO

   ID    Z sym.   atoms
    1    6 C      1, 3, 5, 7-10, 12, 14, 15, 18, 19, 22, 24
    2    8 O      2, 4, 13, 20, 23, 25
    3    7 N      6, 11, 16, 17, 21
    4    1 H      26-42

      * Solvation model:               ALPB
        Solvent                        DMSO
        Solvent mass                       7.8130E+01 g/mol
          :  Hamiltonian                  GFN1-xTB          :
 * total energy  :   -82.9434590 Eh     change       -0.1411294E-08 Eh
 * total energy  :   -82.9607790 Eh     change       -0.1731997E-01 Eh
 * total energy  :   -82.9684936 Eh     change       -0.7714632E-02 Eh
 * total energy  :   -82.9700116 Eh     change       -0.1518024E-02 Eh
 * total energy  :   -82.9707661 Eh     change       -0.7544968E-03 Eh
 * total energy  :   -82.9709917 Eh     change       -0.2256173E-03 Eh
 * total energy  :   -82.9711742 Eh     change       -0.1824475E-03 Eh
 * total energy  :   -82.9712889 Eh     change       -0.1147188E-03 Eh
 * total energy  :   -82.9713752 Eh     change       -0.8633133E-04 Eh
 * total energy  :   -82.9714389 Eh     change       -0.6368623E-04 Eh
 * total energy  :   -82.9726917 Eh     change       -0.3101074E-04 Eh
 * total energy  :   -82.9727231 Eh     change       -0.3136128E-04 Eh
 * total energy  :   -82.9727493 Eh     change       -0.2629364E-04 Eh
 * total energy  :   -82.9727770 Eh     change       -0.2767768E-04 Eh
 * total energy  :   -82.9727970 Eh     change       -0.1997878E-04 Eh
 * total energy  :   -82.9728290 Eh     change       -0.3198046E-04 Eh
 * total energy  :   -82.9728393 Eh     change       -0.1033021E-04 Eh
 * total energy  :   -82.9728503 Eh     change       -0.1099387E-04 Eh
 * total energy  :   -82.9728549 Eh     change       -0.4547724E-05 Eh
   *** GEOMETRY OPTIMIZATION CONVERGED AFTER 46 ITERATIONS ***

 final structure:
================
42
 xtb: 6.5.1 (579679a)
C            4.27883350895866        2.68826033685576       -2.89771278514623
O            3.00366797884462        2.29308252273695       -2.40615753822797
C            2.15290833883842        1.75984872969043       -3.32898760468933
O            2.48727076719625        1.65478466738373       -4.49600812382527
C            0.87785246194334        1.36347128407235       -2.74321631524692
N            0.75873686015985        1.58523937837725       -1.38809124661207
C           -0.32043251059797        1.27791768023115       -0.77259917260025
C           -0.47661995192607        1.59103335376667        0.69838576740798
C           -1.44814961700666        2.75860306440217        0.89217561935597
C            0.88283376739371        1.89722707535146        1.32852082628532
N           -1.07455940997485        0.42185684618226        1.38023578438078
C           -0.62725414975507       -0.81066719270429        1.31827071813329
O            0.42805061975570       -1.05565535345043        0.59851372836750
C            1.00650660128021       -2.36582518068061        0.48506203494951
C           -1.37840538902421       -1.78780229117626        2.06413698695254
N           -2.43709616835938       -1.50536883129504        2.77940378373959
N           -2.85969460010682       -2.65953682768003        3.32544279875414
C           -2.04329130329775       -3.59513217043277        2.92172893581956
C           -2.09085677214369       -5.03467392769331        3.24065857937726
O           -1.08775293003244       -3.10189662407792        2.12226806603787
N           -1.40238595040913        0.70960994026356       -1.41216383919791
C           -1.41787977128814        0.41429163584404       -2.75615352067905
O           -2.40803678224515       -0.11226025577997       -3.24899929630179
C           -0.16458794482612        0.78609577376915       -3.52202965314837
O           -0.12591152890717        0.56392670156992       -4.74103756446967
H            4.81054886906366        1.83128629453001       -3.32295170440452
H            4.83585170845676        3.08396864230515       -2.04970115994394
H            4.17518984805607        3.46039353810746       -3.66689601677665
H           -1.05039914284360        3.64402929413818        0.39810311257936
H           -1.57391153182104        2.97287799379696        1.95172251813479
H           -2.41790465365818        2.51943829121865        0.45957158077918
H            1.56511835001699        1.06216747589290        1.18436499229300
H            1.30179724049116        2.77730518967877        0.84222697544770
H            0.76697559385157        2.08975837016522        2.39259072541564
H           -1.88547055626055        0.57765390543021        1.96384262407965
H            1.30574917480604       -2.72557768427722        1.46917956930866
H            1.87893100921615       -2.24659658772624       -0.15573205007995
H            0.29182286073399       -3.05616089112926        0.03633923527179
H           -2.35250863896776       -5.60171349428625        2.34635828700236
H           -1.11198753692678       -5.37366671738308        3.57687192509624
H           -2.83437679358936       -5.21617954479580        4.01317708632505
H           -2.21916992509338        0.46458458881463       -0.88071566994323

          :  Hamiltonian                  GFN1-xTB          :
         :: total energy             -82.972854858304 Eh    ::
         :: gradient norm              0.000840353507 Eh/a0 ::
         :: HOMO-LUMO gap              0.280070296386 eV    ::
         :: SCC energy               -83.749282080969 Eh    ::
         :: -> Gsolv                  -0.107071662413 Eh    ::
         :: repulsion energy           0.802748436338 Eh    ::

    * Orbital Energies and Occupations

         #    Occupation            Energy/Eh            Energy/eV
      -------------------------------------------------------------
         1        2.0000           -0.8966216             -24.3983
       ...           ...                  ...                  ...
        55        2.0000           -0.5106153             -13.8945
        56        2.0000           -0.5042356             -13.7209
        57        2.0000           -0.5010467             -13.6342
        58        2.0000           -0.4929402             -13.4136
        59        2.0000           -0.4827583             -13.1365
        60        2.0000           -0.4795667             -13.0497
        61        2.0000           -0.4722936             -12.8518
        62        2.0000           -0.4696466             -12.7797
        63        2.0000           -0.4545588             -12.3692
        64        2.0000           -0.4471751             -12.1683
        65        2.0000           -0.4325848             -11.7712
        66        2.0000           -0.3903927             -10.6231
        67        1.9912           -0.3789857             -10.3127 (HOMO)
        68        0.0088           -0.3686933             -10.0327 (LUMO)
        69                         -0.2837048              -7.7200
        70                         -0.2814827              -7.6595
        71                         -0.2561853              -6.9712
        72                         -0.2481868              -6.7535
        73                         -0.2074222              -5.6442
        74                         -0.1569333              -4.2704
        75                         -0.1525693              -4.1516
        76                         -0.1460342              -3.9738
        77                         -0.1327921              -3.6135
        78                         -0.1260622              -3.4303
       ...                                ...                  ...
       134                          0.7618487              20.7310
      -------------------------------------------------------------
                  HL-Gap            0.0102924 Eh            0.2801 eV

Wiberg/Mayer (AO) data.
largest (>0.10) Wiberg bond orders for each atom

     #   Z sym  total        # sym  WBO       # sym  WBO       # sym  WBO
 ---------------------------------------------------------------------------
     1   6 C    3.894 --    27 H    0.987    26 H    0.980    28 H    0.980
                             2 O    0.921
     2   8 O    2.143 --     3 C    1.037     1 C    0.921     4 O    0.113
     3   6 C    3.849 --     4 O    1.606     5 C    1.101     2 O    1.037
     4   8 O    1.875 --     3 C    1.606     2 O    0.113
     5   6 C    3.902 --    24 C    1.252     6 N    1.170     3 C    1.101
                            25 O    0.122
     6   7 N    3.034 --     7 C    1.621     5 C    1.170
     7   6 C    3.930 --     6 N    1.621    21 N    1.094     8 C    0.970
     8   6 C    3.897 --     9 C    0.989    10 C    0.986     7 C    0.970
                            11 N    0.881
     9   6 C    3.986 --     8 C    0.989    31 H    0.983    30 H    0.982
                            29 H    0.981
    10   6 C    3.985 --     8 C    0.986    34 H    0.986    32 H    0.982
                            33 H    0.980
    11   7 N    3.464 --    12 C    1.432     8 C    0.881    35 H    0.876
                            13 O    0.107
    12   6 C    3.888 --    11 N    1.432    13 O    1.195    15 C    1.094
    13   8 O    2.273 --    12 C    1.195    14 C    0.862    11 N    0.107
    14   6 C    3.830 --    37 H    0.981    36 H    0.975    38 H    0.975
                            13 O    0.862
    15   6 C    3.885 --    16 N    1.534    12 C    1.094    20 O    1.052
    16   7 N    3.012 --    15 C    1.534    17 N    1.253
    17   7 N    2.988 --    18 C    1.553    16 N    1.253
    18   6 C    3.846 --    17 N    1.553    20 O    1.084    19 C    1.039
    19   6 C    3.979 --    18 C    1.039    41 H    0.979    40 H    0.961
                            39 H    0.951
    20   8 O    2.333 --    18 C    1.084    15 C    1.052
    21   7 N    3.415 --    22 C    1.146     7 C    1.094    42 H    0.897
                            23 O    0.134
    22   6 C    3.872 --    23 O    1.597    21 N    1.146    24 C    0.962
    23   8 O    1.872 --    22 C    1.597    21 N    0.134
    24   6 C    3.938 --    25 O    1.544     5 C    1.252    22 C    0.962
    25   8 O    1.834 --    24 C    1.544     5 C    0.122
    26   1 H    1.012 --     1 C    0.980
    27   1 H    1.015 --     1 C    0.987
    28   1 H    1.012 --     1 C    0.980
    29   1 H    0.999 --     9 C    0.981
    30   1 H    0.995 --     9 C    0.982
    31   1 H    0.998 --     9 C    0.983
    32   1 H    1.009 --    10 C    0.982
    33   1 H    1.009 --    10 C    0.980
    34   1 H    0.999 --    10 C    0.986
    35   1 H    0.933 --    11 N    0.876
    36   1 H    1.003 --    14 C    0.975
    37   1 H    1.004 --    14 C    0.981
    38   1 H    1.003 --    14 C    0.975
    39   1 H    0.991 --    19 C    0.951
    40   1 H    0.992 --    19 C    0.961
    41   1 H    0.995 --    19 C    0.979
    42   1 H    0.943 --    21 N    0.897
 ---------------------------------------------------------------------------

           -------------------------------------------------
          | TOTAL ENERGY              -82.972854858304 Eh   |
          | GRADIENT NORM               0.000840353507 Eh/α |
          | HOMO-LUMO GAP               0.280070296386 eV   |
           -------------------------------------------------

 * finished run on 2023/06/21 at 17:18:02.851
