   * xtb version 6.5.1 (579679a) compiled by 'ehlert@majestix' on 2022-07-11
          program call               : /lustre/hpc/kemi/ree/PhD/git/ReactivityQM/dep/xtb-6.5.1/bin/xtb --gfn 1 /lustre/hpc/kemi/ree/PhD/git/ReactivityQM/calculations/R02deprot/reac01prodE08/conf13/R02deprot_reac01prodE08_conf13_gfn1.xyz --opt --vfukui --chrg -2 --uhf 0 --alpb DMSO

   ID    Z sym.   atoms
    1    6 C      1, 3, 5, 7-10, 12, 14, 15, 18, 19, 22, 24
    2    8 O      2, 4, 13, 20, 23, 25
    3    7 N      6, 11, 16, 17, 21
    4    1 H      26-42

      * Solvation model:               ALPB
        Solvent                        DMSO
        Solvent mass                       7.8130E+01 g/mol
          :  Hamiltonian                  GFN1-xTB          :
 * total energy  :   -83.6133799 Eh     change       -0.2984279E-11 Eh
 * total energy  :   -83.6262812 Eh     change       -0.1290124E-01 Eh
 * total energy  :   -83.6308762 Eh     change       -0.4595007E-02 Eh
 * total energy  :   -83.6314981 Eh     change       -0.6219129E-03 Eh
 * total energy  :   -83.6319510 Eh     change       -0.4528953E-03 Eh
 * total energy  :   -83.6321798 Eh     change       -0.2288176E-03 Eh
 * total energy  :   -83.6324761 Eh     change       -0.2962996E-03 Eh
 * total energy  :   -83.6327610 Eh     change       -0.2848602E-03 Eh
 * total energy  :   -83.6330308 Eh     change       -0.2698069E-03 Eh
 * total energy  :   -83.6332332 Eh     change       -0.2024210E-03 Eh
 * total energy  :   -83.6347070 Eh     change       -0.1591099E-04 Eh
 * total energy  :   -83.6347212 Eh     change       -0.1420374E-04 Eh
 * total energy  :   -83.6347368 Eh     change       -0.1566065E-04 Eh
 * total energy  :   -83.6347515 Eh     change       -0.1463386E-04 Eh
 * total energy  :   -83.6347633 Eh     change       -0.1186086E-04 Eh
 * total energy  :   -83.6347684 Eh     change       -0.5054604E-05 Eh
 * total energy  :   -83.6347743 Eh     change       -0.5875725E-05 Eh
 * total energy  :   -83.6347795 Eh     change       -0.5181058E-05 Eh
 * total energy  :   -83.6347827 Eh     change       -0.3213791E-05 Eh
   *** GEOMETRY OPTIMIZATION CONVERGED AFTER 47 ITERATIONS ***

 final structure:
================
42
 xtb: 6.5.1 (579679a)
C            6.59888534261850        1.69989673571092       -0.87192894881648
O            5.31252619483740        1.72504058112555       -0.26721593544693
C            4.42523061556767        0.81109635631222       -0.72044814397457
O            4.72556780827857        0.01891249752010       -1.59907404913428
C            3.10795528646059        0.88259497653625       -0.06477819485885
N            2.20266198339415       -0.05065346718334       -0.50036250190735
C            0.99720704267451       -0.03252709286891        0.02725058234140
C            0.04620319628874       -1.12616420870368       -0.45824261546353
C            0.19288454996575       -1.30376003342710       -1.97584607226891
C            0.42558372817366       -2.42712157218346        0.27354663559400
N           -1.31702871335841       -0.73385890577494       -0.12162720521089
C           -2.40329409033221       -1.49177744945107       -0.35902714790846
O           -2.36561555208086       -2.56434780924436       -0.97290652943482
C           -3.75061222064700       -0.85569842735223        0.05033296222601
C           -4.68280228412870       -1.93889858396045        0.62803940494367
N           -4.30798386278797       -0.26059329047985       -1.17319353052868
N           -4.44775872739666        1.06619482896021       -0.90245048123340
C           -4.05105764297468        1.33083620721617        0.28732348309900
C           -4.06998800898443        2.64456158003912        0.98691824172763
O           -3.57014116689662        0.20437645150524        0.98154042794711
N            0.53718677500389        0.79915933485194        0.96201675094854
C            1.37560771423894        1.74133629109789        1.45496148104344
O            1.06232183748664        2.57021707552752        2.33659886642749
C            2.73020799771535        1.77754287823574        0.90659280223306
O            3.52882805518452        2.74350701892851        1.42705267177444
H            7.19490410771958        2.46884122264131       -0.38365178277430
H            6.52556424004848        1.91041070386062       -1.94303460946252
H            7.06981361988725        0.72202679094432       -0.73531838607105
H            1.24050178429952       -1.48555802339970       -2.21461215621074
H           -0.13132728159331       -0.39937160070138       -2.49187697781350
H           -0.40072690225650       -2.14671436102674       -2.32693806178396
H            1.46992174897207       -2.66305144982814        0.07211981618038
H            0.29478710387186       -2.30032624112044        1.34789560798420
H           -0.19644469911271       -3.25494864278785       -0.06435221261407
H           -1.39264860962788        0.04158674346609        0.53328714109922
H           -4.30812483013080       -2.28492365023511        1.59024557140181
H           -4.73243029969127       -2.77699599019205       -0.06483579526241
H           -5.67920409236825       -1.52238303699894        0.76046513888255
H           -4.63652268081114        2.58059130432081        1.91860273830043
H           -3.06016824242045        2.98320406345158        1.23339964537561
H           -4.53988018858716        3.38441941277296        0.34064623895491
H            2.97941136348475        3.20905578190008        2.09288512967158

          :  Hamiltonian                  GFN1-xTB          :
         :: total energy             -83.634782666209 Eh    ::
         :: gradient norm              0.000609007320 Eh/a0 ::
         :: HOMO-LUMO gap              0.170205507478 eV    ::
         :: SCC energy               -84.365669053093 Eh    ::
         :: -> Gsolv                  -0.262889847356 Eh    ::
         :: repulsion energy           0.757007101980 Eh    ::

    * Orbital Energies and Occupations

         #    Occupation            Energy/Eh            Energy/eV
      -------------------------------------------------------------
         1        2.0000           -0.8063190             -21.9411
       ...           ...                  ...                  ...
        56        2.0000           -0.4463241             -12.1451
        57        2.0000           -0.4420322             -12.0283
        58        2.0000           -0.4265847             -11.6080
        59        2.0000           -0.4104636             -11.1693
        60        2.0000           -0.4035650             -10.9816
        61        2.0000           -0.3977445             -10.8232
        62        2.0000           -0.3957269             -10.7683
        63        2.0000           -0.3901515             -10.6166
        64        2.0000           -0.3783227             -10.2947
        65        2.0000           -0.3637940              -9.8993
        66        2.0000           -0.3611595              -9.8277
        67        2.0000           -0.3495942              -9.5129
        68        1.9283           -0.2753192              -7.4918 (HOMO)
        69        0.0717           -0.2690643              -7.3216 (LUMO)
        70                         -0.2171064              -5.9078
        71                         -0.2014374              -5.4814
        72                         -0.1807969              -4.9197
        73                         -0.1623163              -4.4169
        74                         -0.1247022              -3.3933
        75                         -0.1060874              -2.8868
        76                         -0.0986721              -2.6850
        77                         -0.0940091              -2.5581
        78                         -0.0920985              -2.5061
        79                         -0.0878729              -2.3911
       ...                                ...                  ...
       134                          0.7388374              20.1048
      -------------------------------------------------------------
                  HL-Gap            0.0062549 Eh            0.1702 eV

Wiberg/Mayer (AO) data.
largest (>0.10) Wiberg bond orders for each atom

     #   Z sym  total        # sym  WBO       # sym  WBO       # sym  WBO
 ---------------------------------------------------------------------------
     1   6 C    3.893 --    26 H    0.987    27 H    0.980    28 H    0.980
                             2 O    0.919
     2   8 O    2.163 --     3 C    1.062     1 C    0.919     4 O    0.117
     3   6 C    3.805 --     4 O    1.609     2 O    1.062     5 C    1.045
     4   8 O    1.862 --     3 C    1.609     2 O    0.117
     5   6 C    3.950 --    24 C    1.460     6 N    1.197     3 C    1.045
     6   7 N    2.988 --     7 C    1.466     5 C    1.197
     7   6 C    3.955 --     6 N    1.466    21 N    1.361     8 C    0.971
     8   6 C    3.948 --     9 C    0.991    10 C    0.977     7 C    0.971
                            11 N    0.940
     9   6 C    3.996 --     8 C    0.991    30 H    0.987    29 H    0.984
                            31 H    0.983
    10   6 C    3.995 --    32 H    0.987    33 H    0.987    34 H    0.983
                             8 C    0.977
    11   7 N    3.340 --    12 C    1.272     8 C    0.940    35 H    0.886
                            13 O    0.153
    12   6 C    3.872 --    13 O    1.539    11 N    1.272    14 C    0.920
    13   8 O    1.846 --    12 C    1.539    11 N    0.153
    14   6 C    3.896 --    16 N    0.980    15 C    0.969    20 O    0.922
                            12 C    0.920
    15   6 C    3.991 --    36 H    0.988    38 H    0.987    37 H    0.986
                            14 C    0.969
    16   7 N    2.566 --    17 N    1.197    14 C    0.980    18 C    0.194
    17   7 N    3.014 --    18 C    1.658    16 N    1.197
    18   6 C    3.836 --    17 N    1.658    19 C    1.018    20 O    0.928
                            16 N    0.194
    19   6 C    3.996 --    18 C    1.018    41 H    0.987    39 H    0.977
                            40 H    0.976
    20   8 O    2.063 --    18 C    0.928    14 C    0.922
    21   7 N    2.991 --     7 C    1.361    22 C    1.248    23 O    0.122
    22   6 C    3.925 --    23 O    1.457    21 N    1.248    24 C    1.086
    23   8 O    1.791 --    22 C    1.457    21 N    0.122
    24   6 C    3.877 --     5 C    1.460    22 C    1.086    25 O    1.059
    25   8 O    2.031 --    24 C    1.059    42 H    0.818
    26   1 H    1.015 --     1 C    0.987
    27   1 H    1.012 --     1 C    0.980
    28   1 H    1.012 --     1 C    0.980
    29   1 H    1.024 --     9 C    0.984
    30   1 H    1.009 --     9 C    0.987
    31   1 H    1.020 --     9 C    0.983
    32   1 H    1.011 --    10 C    0.987
    33   1 H    1.008 --    10 C    0.987
    34   1 H    1.017 --    10 C    0.983
    35   1 H    0.984 --    11 N    0.886
    36   1 H    1.011 --    15 C    0.988
    37   1 H    1.020 --    15 C    0.986
    38   1 H    1.020 --    15 C    0.987
    39   1 H    1.008 --    19 C    0.977
    40   1 H    1.008 --    19 C    0.976
    41   1 H    1.010 --    19 C    0.987
    42   1 H    0.881 --    25 O    0.818
 ---------------------------------------------------------------------------

           -------------------------------------------------
          | TOTAL ENERGY              -83.634782666209 Eh   |
          | GRADIENT NORM               0.000609007320 Eh/α |
          | HOMO-LUMO GAP               0.170205507478 eV   |
           -------------------------------------------------

 * finished run on 2023/06/20 at 17:52:06.149
