   * xtb version 6.5.1 (579679a) compiled by 'ehlert@majestix' on 2022-07-11
          program call               : /lustre/hpc/kemi/ree/PhD/git/ReactivityQM/dep/xtb-6.5.1/bin/xtb --gfn 1 /lustre/hpc/kemi/ree/PhD/git/ReactivityQM/calculations/RaltegravirCLI/reac01prodN02/conf09/RaltegravirCLI_reac01prodN02_conf09_gfn1.xyz --opt --vfukui --chrg 1 --uhf 0 --alpb DMSO

   ID    Z sym.   atoms
    1    6 C      1, 2, 4, 5, 10
    2    8 O      3, 6
    3   17 Cl     7
    4    7 N      8, 9
    5    1 H      11-16

      * Solvation model:               ALPB
        Solvent                        DMSO
        Solvent mass                       7.8130E+01 g/mol
          :  Hamiltonian                  GFN1-xTB          :
 * total energy  :   -33.4328339 Eh     change       -0.1335820E-11 Eh
 * total energy  :   -33.4385810 Eh     change       -0.5747061E-02 Eh
 * total energy  :   -33.4402356 Eh     change       -0.1654628E-02 Eh
 * total energy  :   -33.4403732 Eh     change       -0.1375914E-03 Eh
 * total energy  :   -33.4404588 Eh     change       -0.8557740E-04 Eh
 * total energy  :   -33.4404648 Eh     change       -0.5977329E-05 Eh
 * total energy  :   -33.4404698 Eh     change       -0.5064708E-05 Eh
 * total energy  :   -33.4404716 Eh     change       -0.1757789E-05 Eh
   *** GEOMETRY OPTIMIZATION CONVERGED AFTER 8 ITERATIONS ***

 final structure:
================
16
 xtb: 6.5.1 (579679a)
C           -1.70883303386057       -1.38137962390074       -0.10324388089697
C           -0.44670866245339       -0.63079415803646       -0.04645726250201
O            0.73457780831328       -1.20568502761033       -0.04222729312496
C            1.63860025434480       -0.20986461517830        0.02850057751233
C            3.10157312892840       -0.51733402322170        0.04622764616059
O            3.51969299237711       -1.63183705774383        0.02904501360326
Cl           4.07688005579347        0.87871749178704        0.08959796184823
N            1.05138415911633        0.94954544388530        0.06745846955968
N           -0.26031828581502        0.67564724273456        0.02029716247152
C           -1.23170648111600        1.75047920561623        0.05140728921583
H           -2.16728671654742       -1.39821837874201        0.88861373099639
H           -1.51300277168835       -2.40397715683614       -0.42198443863872
H           -2.40522595065152       -0.89494706992250       -0.78572592733071
H           -1.90464860469783        1.64029510015450       -0.79695894953666
H           -1.79526194447023        1.68857616157134        0.98110076424407
H           -0.68971494757305        2.69077746544305       -0.00565086358184

          :  Hamiltonian                  GFN1-xTB          :
         :: total energy             -33.440471578040 Eh    ::
         :: gradient norm              0.000400153452 Eh/a0 ::
         :: HOMO-LUMO gap              3.238931899417 eV    ::
         :: SCC energy               -33.735892593387 Eh    ::
         :: -> Gsolv                  -0.089661665022 Eh    ::
         :: repulsion energy           0.302597791946 Eh    ::

    * Orbital Energies and Occupations

         #    Occupation            Energy/Eh            Energy/eV
      -------------------------------------------------------------
         1        2.0000           -0.9823356             -26.7307
       ...           ...                  ...                  ...
        15        2.0000           -0.6356896             -17.2980
        16        2.0000           -0.6321604             -17.2020
        17        2.0000           -0.6198347             -16.8666
        18        2.0000           -0.6152685             -16.7423
        19        2.0000           -0.5966110             -16.2346
        20        2.0000           -0.5829593             -15.8631
        21        2.0000           -0.5761539             -15.6779
        22        2.0000           -0.5713952             -15.5485
        23        2.0000           -0.5587629             -15.2047
        24        2.0000           -0.5324558             -14.4889
        25        2.0000           -0.5221743             -14.2091
        26        2.0000           -0.5182060             -14.1011
        27        2.0000           -0.5085921             -13.8395 (HOMO)
        28                         -0.3895636             -10.6006 (LUMO)
        29                         -0.3539476              -9.6314
        30                         -0.2839404              -7.7264
        31                         -0.2394023              -6.5145
        32                         -0.1881633              -5.1202
        33                         -0.1757112              -4.7813
        34                         -0.1277447              -3.4761
        35                         -0.1159240              -3.1545
        36                         -0.1090251              -2.9667
        37                         -0.1078868              -2.9357
        38                         -0.1075041              -2.9253
       ...                                ...                  ...
        57                          0.7206600              19.6102
      -------------------------------------------------------------
                  HL-Gap            0.1190286 Eh            3.2389 eV

Wiberg/Mayer (AO) data.
largest (>0.10) Wiberg bond orders for each atom

     #   Z sym  total        # sym  WBO       # sym  WBO       # sym  WBO
 ---------------------------------------------------------------------------
     1   6 C    3.957 --     2 C    1.045    12 H    0.968    13 H    0.954
                            11 H    0.931
     2   6 C    3.837 --     9 N    1.404     3 O    1.163     1 C    1.045
     3   8 O    2.397 --     2 C    1.163     4 C    1.062
     4   6 C    3.859 --     8 N    1.603     3 O    1.062     5 C    0.981
     5   6 C    3.901 --     6 O    1.795     7 Cl   1.083     4 C    0.981
     6   8 O    2.067 --     5 C    1.795     7 Cl   0.174
     7  17 Cl   1.313 --     5 C    1.083     6 O    0.174
     8   7 N    2.994 --     4 C    1.603     9 N    1.171
     9   7 N    3.632 --     2 C    1.404     8 N    1.171    10 C    0.905
    10   6 C    3.877 --    16 H    0.977    14 H    0.968    15 H    0.965
                             9 N    0.905
    11   1 H    0.982 --     1 C    0.931
    12   1 H    0.984 --     1 C    0.968
    13   1 H    0.985 --     1 C    0.954
    14   1 H    0.988 --    10 C    0.968
    15   1 H    0.988 --    10 C    0.965
    16   1 H    0.991 --    10 C    0.977
 ---------------------------------------------------------------------------

           -------------------------------------------------
          | TOTAL ENERGY              -33.440471578040 Eh   |
          | GRADIENT NORM               0.000400153452 Eh/α |
          | HOMO-LUMO GAP               3.238931899417 eV   |
           -------------------------------------------------

 * finished run on 2023/06/20 at 14:54:30.783
