   * xtb version 6.5.1 (579679a) compiled by 'ehlert@majestix' on 2022-07-11
          program call               : /lustre/hpc/kemi/ree/PhD/git/ReactivityQM/dep/xtb-6.5.1/bin/xtb --gfn 1 /lustre/hpc/kemi/ree/PhD/git/ReactivityQM/calculations/R02/reac01prodN13/conf05/R02_reac01prodN13_conf05_gfn1.xyz --opt --vfukui --chrg 1 --uhf 0 --alpb DMSO

   ID    Z sym.   atoms
    1    6 C      1, 3, 5, 7-10, 12, 14, 17-19, 22, 24
    2    8 O      2, 4, 13, 20, 23, 25
    3    7 N      6, 11, 15, 16, 21
    4    1 H      26-43

      * Solvation model:               ALPB
        Solvent                        DMSO
        Solvent mass                       7.8130E+01 g/mol
          :  Hamiltonian                  GFN1-xTB          :
 * total energy  :   -83.0931747 Eh     change       -0.1082086E-08 Eh
 * total energy  :   -83.1087903 Eh     change       -0.1561563E-01 Eh
 * total energy  :   -83.1147322 Eh     change       -0.5941872E-02 Eh
 * total energy  :   -83.1155649 Eh     change       -0.8327638E-03 Eh
 * total energy  :   -83.1159351 Eh     change       -0.3701703E-03 Eh
 * total energy  :   -83.1160365 Eh     change       -0.1014168E-03 Eh
 * total energy  :   -83.1161544 Eh     change       -0.1178744E-03 Eh
 * total energy  :   -83.1162469 Eh     change       -0.9251137E-04 Eh
 * total energy  :   -83.1163208 Eh     change       -0.7393084E-04 Eh
 * total energy  :   -83.1163624 Eh     change       -0.4158370E-04 Eh
 * total energy  :   -83.1164411 Eh     change       -0.1934618E-04 Eh
 * total energy  :   -83.1164569 Eh     change       -0.1581580E-04 Eh
 * total energy  :   -83.1164732 Eh     change       -0.1634741E-04 Eh
 * total energy  :   -83.1164899 Eh     change       -0.1673015E-04 Eh
 * total energy  :   -83.1165056 Eh     change       -0.1563463E-04 Eh
 * total energy  :   -83.1165198 Eh     change       -0.1421465E-04 Eh
 * total energy  :   -83.1165327 Eh     change       -0.1289259E-04 Eh
 * total energy  :   -83.1165417 Eh     change       -0.8979112E-05 Eh
 * total energy  :   -83.1165451 Eh     change       -0.3433437E-05 Eh
   *** GEOMETRY OPTIMIZATION CONVERGED AFTER 22 ITERATIONS ***

 final structure:
================
43
 xtb: 6.5.1 (579679a)
C            6.99954780844943        1.44473746370189        1.15909743996469
O            5.85102959722473        1.18098991390908        0.34370905559462
C            4.79548288798164        0.66144259406416        0.95675613934445
O            4.76148180800804        0.41002819672509        2.13824064029125
C            3.64057609562953        0.40925585668157        0.03580205282392
N            2.57927415018839       -0.20175839707719        0.64916059507472
C            1.51292641937734       -0.48409555029931       -0.01859049688033
C            0.37286779028742       -1.20486723712443        0.66284669282279
C            0.39087454811236       -2.67348998036661        0.20984276811449
C            0.49699783513602       -1.08485937403117        2.18458781836714
N           -0.88243444213414       -0.56841382857372        0.22806282637115
C           -2.09165263159286       -1.03239411036374        0.58508833398544
O           -2.34226218523910       -2.00331749853120        1.25863273591278
C           -3.18506489895479       -0.15705173209643        0.01882042024779
N           -2.97648635006951        0.95474867662932       -0.75941613050778
N           -4.10585020230768        1.43687743163630       -1.05082781839727
C           -5.14126439614573        0.64904389849977       -0.46673377692737
C           -6.01940316580814        0.01543057009871       -1.55499821236270
C           -5.95809966108655        1.47240278141295        0.53744350438629
O           -4.42269865084334       -0.37282714534223        0.21984202582920
N            1.39231878789045       -0.21257934661905       -1.35093562816443
C            2.38196393017764        0.41508848976472       -2.07601648365156
O            2.26767118604508        0.67274327531093       -3.26101302930287
C            3.57923484166105        0.73725958582704       -1.29594598892441
O            4.55299195178787        1.34574708994005       -1.96600871285065
H            6.74073994494050        2.15249312220012        1.94987684136482
H            7.35990472741261        0.51564723237050        1.60672513468062
H            7.75568562814191        1.86843352315378        0.50139051282201
H            1.36772229729334       -3.10109202966328        0.43043862537003
H           -0.37350813475762       -3.24105091140071        0.73588862247989
H            0.20775276002922       -2.73226404459936       -0.86080769685367
H            1.45309826794203       -1.50268293666913        2.49658707738925
H            0.45350278576673       -0.03709804954827        2.47673691467475
H           -0.31083398330932       -1.62926984744641        2.66865765270976
H           -0.83263727217552        0.28794897479475       -0.30016745979380
H           -6.50963469327148        0.80850998433825       -2.11417429591660
H           -5.39391072849704       -0.57702868828018       -2.21903183031949
H           -6.76126173449173       -0.62128884140309       -1.07869957853280
H           -5.28871119559785        1.89366850403970        1.28423256911611
H           -6.68342717676086        0.81893221516462        1.01679420076563
H           -6.46838883051576        2.26986366221137        0.00309410486126
H            0.55874127359674       -0.46848445224596       -1.85452665681330
H            4.27514201047992        1.48462395920631       -2.89053050916459

          :  Hamiltonian                  GFN1-xTB          :
         :: total energy             -83.116545098711 Eh    ::
         :: gradient norm              0.000448461589 Eh/a0 ::
         :: HOMO-LUMO gap              0.154601868044 eV    ::
         :: SCC energy               -83.906235846401 Eh    ::
         :: -> Gsolv                  -0.120112220343 Eh    ::
         :: repulsion energy           0.815428915356 Eh    ::

    * Orbital Energies and Occupations

         #    Occupation            Energy/Eh            Energy/eV
      -------------------------------------------------------------
         1        2.0000           -0.9364872             -25.4831
       ...           ...                  ...                  ...
        55        2.0000           -0.5333147             -14.5122
        56        2.0000           -0.5293075             -14.4032
        57        2.0000           -0.5219933             -14.2042
        58        2.0000           -0.5208874             -14.1741
        59        2.0000           -0.5160201             -14.0416
        60        2.0000           -0.5082062             -13.8290
        61        2.0000           -0.5032008             -13.6928
        62        2.0000           -0.5023679             -13.6701
        63        2.0000           -0.4991603             -13.5828
        64        2.0000           -0.4933900             -13.4258
        65        2.0000           -0.4784472             -13.0192
        66        2.0000           -0.4675430             -12.7225
        67        1.9043           -0.4494477             -12.2301 (HOMO)
        68        0.0957           -0.4437662             -12.0755 (LUMO)
        69                         -0.3626773              -9.8690
        70                         -0.3403219              -9.2606
        71                         -0.3046666              -8.2904
        72                         -0.2606587              -7.0929
        73                         -0.2545880              -6.9277
        74                         -0.1762865              -4.7970
        75                         -0.1625484              -4.4232
        76                         -0.1568629              -4.2685
        77                         -0.1504359              -4.0936
        78                         -0.1422324              -3.8703
       ...                                ...                  ...
       136                          0.7241331              19.7047
      -------------------------------------------------------------
                  HL-Gap            0.0056815 Eh            0.1546 eV

Wiberg/Mayer (AO) data.
largest (>0.10) Wiberg bond orders for each atom

     #   Z sym  total        # sym  WBO       # sym  WBO       # sym  WBO
 ---------------------------------------------------------------------------
     1   6 C    3.865 --    28 H    0.986    26 H    0.979    27 H    0.979
                             2 O    0.891
     2   8 O    2.211 --     3 C    1.128     1 C    0.891     4 O    0.139
     3   6 C    3.855 --     4 O    1.664     2 O    1.128     5 C    0.987
     4   8 O    1.925 --     3 C    1.664     2 O    0.139
     5   6 C    3.930 --    24 C    1.473     6 N    1.196     3 C    0.987
     6   7 N    3.007 --     7 C    1.574     5 C    1.196
     7   6 C    3.909 --     6 N    1.574    21 N    1.173     8 C    0.984
     8   6 C    3.909 --     7 C    0.984    10 C    0.981     9 C    0.966
                            11 N    0.907
     9   6 C    3.974 --    31 H    0.984    29 H    0.982    30 H    0.976
                             8 C    0.966
    10   6 C    3.977 --    33 H    0.984    34 H    0.981     8 C    0.981
                            32 H    0.980
    11   7 N    3.393 --    12 C    1.274     8 C    0.907    35 H    0.884
                            13 O    0.212
    12   6 C    3.924 --    13 O    1.628    11 N    1.274    14 C    0.942
    13   8 O    1.963 --    12 C    1.628    11 N    0.212
    14   6 C    3.748 --    20 O    1.344    15 N    1.204    12 C    0.942
    15   7 N    3.028 --    16 N    1.663    14 C    1.204
    16   7 N    2.924 --    15 N    1.663    17 C    1.054
    17   6 C    3.817 --    16 N    1.054    19 C    0.904    18 C    0.901
                            20 O    0.868
    18   6 C    3.937 --    37 H    0.979    36 H    0.977    38 H    0.976
                            17 C    0.901
    19   6 C    3.939 --    39 H    0.979    41 H    0.977    40 H    0.976
                            17 C    0.904
    20   8 O    2.384 --    14 C    1.344    17 C    0.868
    21   7 N    3.457 --     7 C    1.173    22 C    1.124    42 H    0.879
                            23 O    0.128
    22   6 C    3.900 --    23 O    1.599    21 N    1.124    24 C    1.052
    23   8 O    1.900 --    22 C    1.599    21 N    0.128
    24   6 C    3.877 --     5 C    1.473    25 O    1.133    22 C    1.052
    25   8 O    2.089 --    24 C    1.133    43 H    0.798
    26   1 H    1.006 --     1 C    0.979
    27   1 H    1.006 --     1 C    0.979
    28   1 H    1.010 --     1 C    0.986
    29   1 H    0.997 --     9 C    0.982
    30   1 H    1.003 --     9 C    0.976
    31   1 H    0.997 --     9 C    0.984
    32   1 H    1.006 --    10 C    0.980
    33   1 H    1.001 --    10 C    0.984
    34   1 H    1.002 --    10 C    0.981
    35   1 H    0.934 --    11 N    0.884
    36   1 H    0.991 --    18 C    0.977
    37   1 H    0.991 --    18 C    0.979
    38   1 H    0.991 --    18 C    0.976
    39   1 H    0.991 --    19 C    0.979
    40   1 H    0.991 --    19 C    0.976
    41   1 H    0.991 --    19 C    0.977
    42   1 H    0.919 --    21 N    0.879
    43   1 H    0.836 --    25 O    0.798
 ---------------------------------------------------------------------------

           -------------------------------------------------
          | TOTAL ENERGY              -83.116545098711 Eh   |
          | GRADIENT NORM               0.000448461589 Eh/α |
          | HOMO-LUMO GAP               0.154601868044 eV   |
           -------------------------------------------------

 * finished run on 2023/06/20 at 15:35:51.328
