   * xtb version 6.5.1 (579679a) compiled by 'ehlert@majestix' on 2022-07-11
          program call               : /lustre/hpc/kemi/ree/PhD/git/ReactivityQM/dep/xtb-6.5.1/bin/xtb --gfn 1 /lustre/hpc/kemi/ree/PhD/git/ReactivityQM/calculations/R03/reac01prodN01/conf03/R03_reac01prodN01_conf03_gfn1.xyz --opt --vfukui --chrg 1 --uhf 0 --alpb DMSO

   ID    Z sym.   atoms
    1    6 C      1, 3-7, 9, 10
    2    7 N      2
    3    9 F      8
    4    1 H      11-21

      * Solvation model:               ALPB
        Solvent                        DMSO
        Solvent mass                       7.8130E+01 g/mol
          :  Hamiltonian                  GFN1-xTB          :
 * total energy  :   -30.8260979 Eh     change       -0.2355449E-11 Eh
 * total energy  :   -30.8298936 Eh     change       -0.3795686E-02 Eh
 * total energy  :   -30.8305000 Eh     change       -0.6063476E-03 Eh
 * total energy  :   -30.8305677 Eh     change       -0.6777299E-04 Eh
 * total energy  :   -30.8305988 Eh     change       -0.3109591E-04 Eh
 * total energy  :   -30.8306115 Eh     change       -0.1269856E-04 Eh
 * total energy  :   -30.8306214 Eh     change       -0.9902480E-05 Eh
 * total energy  :   -30.8306261 Eh     change       -0.4679949E-05 Eh
   *** GEOMETRY OPTIMIZATION CONVERGED AFTER 8 ITERATIONS ***

 final structure:
================
21
 xtb: 6.5.1 (579679a)
C           -2.32281516957921       -0.14235877216589        0.89989457529533
N           -2.06437088810882       -0.32434258705630       -0.54806798382121
C           -1.02056320523780        0.60709653217377       -1.08921779683132
C            0.32288376542422        0.29961872295660       -0.48322289855405
C            1.04678029483124       -0.80540152390595       -0.93090037661420
C            2.28540228825858       -1.10174351471346       -0.38317144820354
C            2.77921360839576       -0.27423305797545        0.61109619443879
F            3.97286058791960       -0.55311405930953        1.14194822839440
C            2.08615368170556        0.82962614077858        1.07656354279321
C            0.84679356327541        1.11221363687768        0.52078464646603
H           -2.67355536458337        0.87343197804387        1.06339690626355
H           -3.08241972846952       -0.86101427724655        1.19722228262749
H           -1.39697218354276       -0.31814782634405        1.44226731042846
H           -1.77421641230377       -1.28408102182975       -0.71923454802108
H           -2.92769379465504       -0.16769873472880       -1.05891979333717
H           -1.34932024767715        1.62158468085944       -0.86113186650726
H           -1.01522434379308        0.45586073922521       -2.17024657628871
H            0.63884073090212       -1.43421628563056       -1.71244079267761
H            2.85718030577167       -1.95680283586271       -0.71976987250667
H            2.50557397993637        1.45228546621959        1.85637101150749
H            0.28546753152978        1.97143659963398        0.86678125514802

          :  Hamiltonian                  GFN1-xTB          :
         :: total energy             -30.830626114932 Eh    ::
         :: gradient norm              0.000335740230 Eh/a0 ::
         :: HOMO-LUMO gap              4.524101710131 eV    ::
         :: SCC energy               -31.241734992679 Eh    ::
         :: -> Gsolv                  -0.102419490029 Eh    ::
         :: repulsion energy           0.421359518706 Eh    ::

    * Orbital Energies and Occupations

         #    Occupation            Energy/Eh            Energy/eV
      -------------------------------------------------------------
         1        2.0000           -0.8853404             -24.0913
       ...           ...                  ...                  ...
        15        2.0000           -0.5961484             -16.2220
        16        2.0000           -0.5819585             -15.8359
        17        2.0000           -0.5655624             -15.3897
        18        2.0000           -0.5642990             -15.3554
        19        2.0000           -0.5612175             -15.2715
        20        2.0000           -0.5587052             -15.2031
        21        2.0000           -0.5543590             -15.0849
        22        2.0000           -0.5351381             -14.5618
        23        2.0000           -0.5314648             -14.4619
        24        2.0000           -0.5182050             -14.1011
        25        2.0000           -0.4925420             -13.4028
        26        2.0000           -0.4715208             -12.8307
        27        2.0000           -0.4598626             -12.5135 (HOMO)
        28                         -0.2936050              -7.9894 (LUMO)
        29                         -0.2918947              -7.9429
        30                         -0.1830518              -4.9811
        31                         -0.1729974              -4.7075
        32                         -0.1689365              -4.5970
        33                         -0.1610016              -4.3811
        34                         -0.1379902              -3.7549
        35                         -0.1219784              -3.3192
        36                         -0.1120277              -3.0484
        37                         -0.1060919              -2.8869
        38                         -0.0989202              -2.6918
       ...                                ...                  ...
        62                          0.6264495              17.0466
      -------------------------------------------------------------
                  HL-Gap            0.1662577 Eh            4.5241 eV

Wiberg/Mayer (AO) data.
largest (>0.10) Wiberg bond orders for each atom

     #   Z sym  total        # sym  WBO       # sym  WBO       # sym  WBO
 ---------------------------------------------------------------------------
     1   6 C    3.897 --    11 H    0.984    13 H    0.983    12 H    0.981
                             2 N    0.922
     2   7 N    3.605 --     1 C    0.922     3 C    0.894    14 H    0.893
                            15 H    0.888
     3   6 C    3.902 --     4 C    1.008    16 H    0.975    17 H    0.969
                             2 N    0.894
     4   6 C    3.984 --    10 C    1.414     5 C    1.411     3 C    1.008
     5   6 C    3.993 --     6 C    1.450     4 C    1.411    18 H    0.969
                             9 C    0.109
     6   6 C    3.991 --     5 C    1.450     7 C    1.394    19 H    0.967
                            10 C    0.108
     7   6 C    3.866 --     9 C    1.398     6 C    1.394     8 F    0.941
     8   9 F    1.074 --     7 C    0.941
     9   6 C    3.991 --    10 C    1.444     7 C    1.398    20 H    0.967
                             5 C    0.109
    10   6 C    3.993 --     9 C    1.444     4 C    1.414    21 H    0.969
                             6 C    0.108
    11   1 H    0.991 --     1 C    0.984
    12   1 H    0.989 --     1 C    0.981
    13   1 H    0.999 --     1 C    0.983
    14   1 H    0.921 --     2 N    0.893
    15   1 H    0.909 --     2 N    0.888
    16   1 H    0.994 --     3 C    0.975
    17   1 H    0.993 --     3 C    0.969
    18   1 H    0.995 --     5 C    0.969
    19   1 H    0.995 --     6 C    0.967
    20   1 H    0.995 --     9 C    0.967
    21   1 H    0.997 --    10 C    0.969
 ---------------------------------------------------------------------------

           -------------------------------------------------
          | TOTAL ENERGY              -30.830626114932 Eh   |
          | GRADIENT NORM               0.000335740230 Eh/α |
          | HOMO-LUMO GAP               4.524101710131 eV   |
           -------------------------------------------------

 * finished run on 2023/06/20 at 15:13:50.692
