   * xtb version 6.5.1 (579679a) compiled by 'ehlert@majestix' on 2022-07-11
          program call               : /lustre/hpc/kemi/ree/PhD/git/ReactivityQM/dep/xtb-6.5.1/bin/xtb --gfn 1 /lustre/hpc/kemi/ree/PhD/git/ReactivityQM/calculations/R03/reac01prodN06/conf03/R03_reac01prodN06_conf03_gfn1.xyz --opt --vfukui --chrg 1 --uhf 0 --alpb DMSO

   ID    Z sym.   atoms
    1    6 C      1, 3-7, 9, 10
    2    9 F      2
    3    7 N      8
    4    1 H      11-21

      * Solvation model:               ALPB
        Solvent                        DMSO
        Solvent mass                       7.8130E+01 g/mol
          :  Hamiltonian                  GFN1-xTB          :
 * total energy  :   -30.7197565 Eh     change       -0.2057021E-11 Eh
 * total energy  :   -30.7306602 Eh     change       -0.1090368E-01 Eh
 * total energy  :   -30.7338778 Eh     change       -0.3217581E-02 Eh
 * total energy  :   -30.7342824 Eh     change       -0.4046392E-03 Eh
 * total energy  :   -30.7344824 Eh     change       -0.1999525E-03 Eh
 * total energy  :   -30.7346137 Eh     change       -0.1313662E-03 Eh
 * total energy  :   -30.7347279 Eh     change       -0.1141671E-03 Eh
 * total energy  :   -30.7348232 Eh     change       -0.9531470E-04 Eh
 * total energy  :   -30.7348991 Eh     change       -0.7585530E-04 Eh
 * total energy  :   -30.7349652 Eh     change       -0.6610962E-04 Eh
 * total energy  :   -30.7350218 Eh     change       -0.5664400E-04 Eh
 * total energy  :   -30.7350822 Eh     change       -0.6037276E-04 Eh
 * total energy  :   -30.7351201 Eh     change       -0.3786122E-04 Eh
 * total energy  :   -30.7351455 Eh     change       -0.2549940E-04 Eh
 * total energy  :   -30.7351558 Eh     change       -0.1026414E-04 Eh
 * total energy  :   -30.7351569 Eh     change       -0.1128513E-05 Eh
 * total energy  :   -30.7351604 Eh     change       -0.3434598E-05 Eh
   *** GEOMETRY OPTIMIZATION CONVERGED AFTER 17 ITERATIONS ***

 final structure:
================
21
 xtb: 6.5.1 (579679a)
C            3.87811418803083       -0.01848471449511        0.08211260139257
F            2.68061583486495        0.02940094352858       -0.71835949443956
C            1.27995064083307        0.01274597209288       -0.27564018862517
C            0.69751860807836        1.22731485786535       -0.02080101007181
C           -0.64090880237267        1.18883183575966        0.35344880514406
C           -1.32285957796261       -0.02452427961322        0.46112994176374
C           -2.80038556545762       -0.03901208697618        0.78067962718214
N           -3.56321426955032        0.08416440676218       -0.45854337084580
C           -0.65276441902558       -1.21909722384706        0.19204294514800
C            0.68550554554898       -1.21916479037521       -0.18430926879756
H            4.53869794349561       -0.68241188455986       -0.46814295551649
H            4.23496869545347        1.00606206839830        0.13006751082379
H            3.58281497469895       -0.41547469210257        1.04866307238581
H            1.24319293545133        2.15578518148734       -0.10942666741109
H           -1.15131309007300        2.12032432497245        0.56559872696329
H           -3.07651692779357       -0.97651551343218        1.27006719024058
H           -3.05833906060622        0.79697707751797        1.43564995990391
H           -3.30003903836454        0.94604294236882       -0.91780314484773
H           -3.30617650677388       -0.67586306038762       -1.07433625777513
H           -1.17255823626844       -2.16563032288739        0.27695477453397
H            1.22369512779426       -2.13147104207753       -0.39783379715093

          :  Hamiltonian                  GFN1-xTB          :
         :: total energy             -30.735160376903 Eh    ::
         :: gradient norm              0.000499718702 Eh/a0 ::
         :: HOMO-LUMO gap              2.980787704510 eV    ::
         :: SCC energy               -31.143870782213 Eh    ::
         :: -> Gsolv                  -0.086006794867 Eh    ::
         :: repulsion energy           0.418267248070 Eh    ::

    * Orbital Energies and Occupations

         #    Occupation            Energy/Eh            Energy/eV
      -------------------------------------------------------------
         1        2.0000           -1.0056614             -27.3654
       ...           ...                  ...                  ...
        15        2.0000           -0.5900859             -16.0571
        16        2.0000           -0.5833854             -15.8747
        17        2.0000           -0.5739468             -15.6179
        18        2.0000           -0.5725276             -15.5793
        19        2.0000           -0.5675847             -15.4448
        20        2.0000           -0.5602383             -15.2449
        21        2.0000           -0.5347348             -14.5509
        22        2.0000           -0.5284777             -14.3806
        23        2.0000           -0.5148822             -14.0107
        24        2.0000           -0.4970346             -13.5250
        25        2.0000           -0.4870250             -13.2526
        26        2.0000           -0.4812638             -13.0959
        27        2.0000           -0.4214861             -11.4692 (HOMO)
        28                         -0.3119442              -8.4884 (LUMO)
        29                         -0.3095300              -8.4227
        30                         -0.2588216              -7.0429
        31                         -0.1889873              -5.1426
        32                         -0.1804113              -4.9092
        33                         -0.1393639              -3.7923
        34                         -0.1374355              -3.7398
        35                         -0.1266732              -3.4470
        36                         -0.1257658              -3.4223
        37                         -0.1234528              -3.3593
        38                         -0.1209716              -3.2918
       ...                                ...                  ...
        62                          0.6137764              16.7017
      -------------------------------------------------------------
                  HL-Gap            0.1095419 Eh            2.9808 eV

Wiberg/Mayer (AO) data.
largest (>0.10) Wiberg bond orders for each atom

     #   Z sym  total        # sym  WBO       # sym  WBO       # sym  WBO
 ---------------------------------------------------------------------------
     1   6 C    3.677 --    13 H    0.980    12 H    0.978    11 H    0.976
                             2 F    0.715
     2   9 F    1.434 --     1 C    0.715     3 C    0.632
     3   6 C    3.686 --    10 C    1.431     4 C    1.430     2 F    0.632
     4   6 C    3.984 --     3 C    1.430     5 C    1.426    14 H    0.961
                             9 C    0.109
     5   6 C    3.988 --     4 C    1.426     6 C    1.410    15 H    0.967
                            10 C    0.109
     6   6 C    3.978 --     9 C    1.411     5 C    1.410     7 C    0.998
     7   6 C    3.977 --     6 C    0.998     8 N    0.987    16 H    0.977
                            17 H    0.976
     8   7 N    2.970 --     7 C    0.987    18 H    0.945    19 H    0.945
     9   6 C    3.988 --    10 C    1.426     6 C    1.411    20 H    0.967
                             4 C    0.109
    10   6 C    3.984 --     3 C    1.431     9 C    1.426    21 H    0.961
                             5 C    0.109
    11   1 H    0.992 --     1 C    0.976
    12   1 H    0.992 --     1 C    0.978
    13   1 H    0.994 --     1 C    0.980
    14   1 H    0.990 --     4 C    0.961
    15   1 H    0.994 --     5 C    0.967
    16   1 H    1.007 --     7 C    0.977
    17   1 H    1.007 --     7 C    0.976
    18   1 H    0.958 --     8 N    0.945
    19   1 H    0.958 --     8 N    0.945
    20   1 H    0.995 --     9 C    0.967
    21   1 H    0.990 --    10 C    0.961
 ---------------------------------------------------------------------------

           -------------------------------------------------
          | TOTAL ENERGY              -30.735160376903 Eh   |
          | GRADIENT NORM               0.000499718702 Eh/α |
          | HOMO-LUMO GAP               2.980787704510 eV   |
           -------------------------------------------------

 * finished run on 2023/06/20 at 15:14:58.078
