   * xtb version 6.5.1 (579679a) compiled by 'ehlert@majestix' on 2022-07-11
          program call               : /lustre/hpc/kemi/ree/PhD/git/ReactivityQM/dep/xtb-6.5.1/bin/xtb --gfn 1 /lustre/hpc/kemi/ree/PhD/git/ReactivityQM/calculations/R02oxygendeprot/reac02/conf10/R02oxygendeprot_reac02_conf10_gfn1.xyz --opt --vfukui --chrg 0 --uhf 0 --alpb DMSO

   ID    Z sym.   atoms
    1    6 C      1
    2    5 B      2
    3    8 O      3, 4
    4    1 H      5-9

      * Solvation model:               ALPB
        Solvent                        DMSO
        Solvent mass                       7.8130E+01 g/mol
          :  Hamiltonian                  GFN1-xTB          :
 * total energy  :   -15.7436238 Eh     change       -0.2131628E-13 Eh
 * total energy  :   -15.7456544 Eh     change       -0.2030632E-02 Eh
 * total energy  :   -15.7458552 Eh     change       -0.2008138E-03 Eh
 * total energy  :   -15.7458809 Eh     change       -0.2560668E-04 Eh
 * total energy  :   -15.7459053 Eh     change       -0.2442213E-04 Eh
 * total energy  :   -15.7459108 Eh     change       -0.5525579E-05 Eh
 * total energy  :   -15.7459141 Eh     change       -0.3290709E-05 Eh
   *** GEOMETRY OPTIMIZATION CONVERGED AFTER 7 ITERATIONS ***

 final structure:
================
9
 xtb: 6.5.1 (579679a)
C           -0.95027273398205       -0.58817922969055        0.10673298945687
B            0.44226254226713        0.13015526028483       -0.07447542306875
O            0.61227774147946        1.49002367393468        0.02633472042984
O            1.54985393539553       -0.62725673455085       -0.33367376604397
H           -0.95349408983797       -1.57056739547723       -0.36357035383669
H           -1.16299923813841       -0.72797692631215        1.16681607706662
H           -1.76491872265811       -0.00067229408905       -0.31139031794376
H           -0.14468200945958        2.04128404656062        0.20746011549531
H            2.37197257493402       -0.14681040066030       -0.42423304155548

          :  Hamiltonian                  GFN1-xTB          :
         :: total energy             -15.745914090567 Eh    ::
         :: gradient norm              0.000896213421 Eh/a0 ::
         :: HOMO-LUMO gap              7.897980573026 eV    ::
         :: SCC energy               -15.885199081364 Eh    ::
         :: -> Gsolv                  -0.019536938948 Eh    ::
         :: repulsion energy           0.141205406671 Eh    ::

    * Orbital Energies and Occupations

         #    Occupation            Energy/Eh            Energy/eV
      -------------------------------------------------------------
         1        2.0000           -0.7696943             -20.9444
         2        2.0000           -0.7654057             -20.8277
         3        2.0000           -0.6438512             -17.5201
         4        2.0000           -0.6230621             -16.9544
         5        2.0000           -0.6039567             -16.4345
         6        2.0000           -0.5586482             -15.2016
         7        2.0000           -0.5575586             -15.1719
         8        2.0000           -0.5253930             -14.2967
         9        2.0000           -0.5056895             -13.7605
        10        2.0000           -0.5005890             -13.6217
        11        2.0000           -0.4987593             -13.5719
        12        2.0000           -0.4567897             -12.4299 (HOMO)
        13                         -0.1665442              -4.5319 (LUMO)
        14                         -0.1196258              -3.2552
        15                         -0.0886016              -2.4110
        16                         -0.0822809              -2.2390
        17                         -0.0450762              -1.2266
        18                         -0.0401902              -1.0936
        19                          0.1698517               4.6219
        20                          0.2467126               6.7134
        21                          0.2850134               7.7556
        22                          0.3441006               9.3635
        23                          0.3986202              10.8470
       ...                                ...                  ...
        26                          0.5918446              16.1049
      -------------------------------------------------------------
                  HL-Gap            0.2902454 Eh            7.8980 eV

Wiberg/Mayer (AO) data.
largest (>0.10) Wiberg bond orders for each atom

     #   Z sym  total        # sym  WBO       # sym  WBO       # sym  WBO
 ---------------------------------------------------------------------------
     1   6 C    3.975 --     2 B    0.986     5 H    0.983     7 H    0.981
                             6 H    0.968
     2   5 B    3.250 --     4 O    1.128     3 O    1.101     1 C    0.986
     3   8 O    2.036 --     2 B    1.101     8 H    0.841
     4   8 O    2.043 --     2 B    1.128     9 H    0.836
     5   1 H    1.002 --     1 C    0.983
     6   1 H    1.001 --     1 C    0.968
     7   1 H    1.002 --     1 C    0.981
     8   1 H    0.861 --     3 O    0.841
     9   1 H    0.859 --     4 O    0.836
 ---------------------------------------------------------------------------

           -------------------------------------------------
          | TOTAL ENERGY              -15.745914090567 Eh   |
          | GRADIENT NORM               0.000896213421 Eh/α |
          | HOMO-LUMO GAP               7.897980573026 eV   |
           -------------------------------------------------

 * finished run on 2023/06/21 at 17:00:30.042
