   * xtb version 6.5.1 (579679a) compiled by 'ehlert@majestix' on 2022-07-11
          program call               : /lustre/hpc/kemi/ree/PhD/git/ReactivityQM/dep/xtb-6.5.1/bin/xtb --gfn 1 /lustre/hpc/kemi/ree/PhD/git/ReactivityQM/calculations/R02methylcation/reac01prodE14/conf13/R02methylcation_reac01prodE14_conf13_gfn1.xyz --opt --vfukui --chrg -2 --uhf 0 --alpb DMSO

   ID    Z sym.   atoms
    1    6 C      1, 3, 5, 7-10, 12, 14, 17, 18, 21, 23, 24
    2    8 O      2, 4, 13, 19, 22, 25
    3    7 N      6, 11, 15, 16, 20
    4    1 H      26-42

      * Solvation model:               ALPB
        Solvent                        DMSO
        Solvent mass                       7.8130E+01 g/mol
          :  Hamiltonian                  GFN1-xTB          :
 * total energy  :   -83.5868102 Eh     change       -0.2444267E-10 Eh
 * total energy  :   -83.6007990 Eh     change       -0.1398874E-01 Eh
 * total energy  :   -83.6058666 Eh     change       -0.5067596E-02 Eh
 * total energy  :   -83.6070014 Eh     change       -0.1134883E-02 Eh
 * total energy  :   -83.6080546 Eh     change       -0.1053125E-02 Eh
 * total energy  :   -83.6086466 Eh     change       -0.5920163E-03 Eh
 * total energy  :   -83.6091006 Eh     change       -0.4540004E-03 Eh
 * total energy  :   -83.6094576 Eh     change       -0.3570641E-03 Eh
 * total energy  :   -83.6096508 Eh     change       -0.1931056E-03 Eh
 * total energy  :   -83.6097764 Eh     change       -0.1256451E-03 Eh
 * total energy  :   -83.6120481 Eh     change       -0.2070876E-04 Eh
 * total energy  :   -83.6120692 Eh     change       -0.2116424E-04 Eh
 * total energy  :   -83.6120807 Eh     change       -0.1142210E-04 Eh
 * total energy  :   -83.6120883 Eh     change       -0.7601700E-05 Eh
 * total energy  :   -83.6120979 Eh     change       -0.9658810E-05 Eh
 * total energy  :   -83.6121040 Eh     change       -0.6120837E-05 Eh
 * total energy  :   -83.6121098 Eh     change       -0.5711757E-05 Eh
 * total energy  :   -83.6121149 Eh     change       -0.5182282E-05 Eh
 * total energy  :   -83.6121190 Eh     change       -0.4077752E-05 Eh
   *** GEOMETRY OPTIMIZATION CONVERGED AFTER 49 ITERATIONS ***

 final structure:
================
42
 xtb: 6.5.1 (579679a)
C           -5.20181137967579        1.27729199904514        1.98792228079706
O           -3.94994086291094        0.84040271715163        1.51085848550748
C           -3.90788881352879        0.56699041775147        0.11703177340568
O           -4.96677269593692        0.72100713494548       -0.52620128949871
C           -2.65820003184166        0.12310718844769       -0.32473106521281
N           -1.65404059267079        0.05925098987898        0.61538269717783
C           -0.52172845796839       -0.48307166544978        0.35523319160454
C            0.58256884577855       -0.52233557309001        1.39150189967309
C            0.73817679349385       -1.94327637347699        1.96147252037805
C            0.25810734802830        0.47188369412577        2.51221823395103
N            1.83872215089481       -0.13585749501696        0.72078087725725
C            3.01621790446722       -0.00258171622891        1.35389503123454
O            3.20126170383393       -0.15400638808719        2.56021627693458
C            4.12854278877381        0.37935686078497        0.45352960952211
N            5.36790209045322        0.61229488881657        0.78744174074215
N            6.03014062314338        0.93812156865323       -0.36127738018396
C            5.16216560819502        0.88541312035007       -1.32212176171281
C            5.39377305058462        1.15142104612722       -2.75980945345786
O            3.93973716993123        0.54029726239137       -0.87991435979648
N           -0.26818773153682       -1.15777714349225       -0.85969827060208
C           -1.25590095584702       -1.27364174678310       -1.80533758022189
O           -1.19669151047186       -2.19293292593557       -2.62929475120902
C           -2.28207692367234       -0.09178922625911       -1.82449011973007
C           -3.51851369219591       -0.59880887726737       -2.63628558024299
O           -1.67093539109423        0.95871137429586       -2.39679676361271
H           -5.52087622271144        2.20794786374948        1.49888127983211
H           -5.98213065072797        0.52127261885306        1.82660419284232
H           -5.10019837320937        1.45747398422559        3.06019395299104
H            1.01232674876290       -2.63861485711472        1.16975555918036
H            1.50945846449372       -1.96711190929154        2.72962701061725
H           -0.20668872367127       -2.26220434749763        2.39965011529090
H            0.27150739405337        1.49049239259686        2.12438303739750
H            0.97277483215645        0.39077651205424        3.32841551790727
H           -0.74102754320400        0.25817500932418        2.89224544249045
H            1.82571965591627       -0.05143557402907       -0.28615872392582
H            4.73843448800998        1.95065611132794       -3.10622759045931
H            5.17797236631490        0.25781238561100       -3.34546450692889
H            6.43045867989468        1.44054176996408       -2.91167986575111
H            0.42858931104723       -1.88319141621265       -0.85431269877233
H           -4.20917466016045        0.22615901272895       -2.80335690590935
H           -4.03636566785020       -1.40642779144765       -2.11740755303729
H           -3.17541113733584       -0.96179289649732       -3.60667450647537

          :  Hamiltonian                  GFN1-xTB          :
         :: total energy             -83.612119017650 Eh    ::
         :: gradient norm              0.000495101890 Eh/a0 ::
         :: HOMO-LUMO gap              0.155728884126 eV    ::
         :: SCC energy               -84.347026994267 Eh    ::
         :: -> Gsolv                  -0.292297477251 Eh    ::
         :: repulsion energy           0.760552144523 Eh    ::

    * Orbital Energies and Occupations

         #    Occupation            Energy/Eh            Energy/eV
      -------------------------------------------------------------
         1        2.0000           -0.8473864             -23.0586
       ...           ...                  ...                  ...
        56        2.0000           -0.4417600             -12.0209
        57        2.0000           -0.4407495             -11.9934
        58        2.0000           -0.4309865             -11.7277
        59        2.0000           -0.4244150             -11.5489
        60        2.0000           -0.4212385             -11.4625
        61        2.0000           -0.4144892             -11.2788
        62        2.0000           -0.4015804             -10.9276
        63        2.0000           -0.3925726             -10.6824
        64        2.0000           -0.3823328             -10.4038
        65        2.0000           -0.3705047             -10.0819
        66        2.0000           -0.3073456              -8.3633
        67        1.9974           -0.3003665              -8.1734
        68        1.9075           -0.2969442              -8.0803 (HOMO)
        69        0.0951           -0.2912212              -7.9245 (LUMO)
        70                         -0.2427341              -6.6051
        71                         -0.2128733              -5.7926
        72                         -0.1776708              -4.8347
        73                         -0.1730137              -4.7079
        74                         -0.1360953              -3.7033
        75                         -0.1124106              -3.0588
        76                         -0.1057056              -2.8764
        77                         -0.1037715              -2.8238
        78                         -0.0976229              -2.6565
        79                         -0.0800486              -2.1782
       ...                                ...                  ...
       134                          0.7249912              19.7280
      -------------------------------------------------------------
                  HL-Gap            0.0057229 Eh            0.1557 eV

Wiberg/Mayer (AO) data.
largest (>0.10) Wiberg bond orders for each atom

     #   Z sym  total        # sym  WBO       # sym  WBO       # sym  WBO
 ---------------------------------------------------------------------------
     1   6 C    3.925 --    28 H    0.986    27 H    0.980    26 H    0.980
                             2 O    0.958
     2   8 O    2.052 --     1 C    0.958     3 C    0.916
     3   6 C    3.849 --     4 O    1.445     5 C    1.348     2 O    0.916
     4   8 O    1.775 --     3 C    1.445     5 C    0.110
     5   6 C    3.829 --     3 C    1.348     6 N    1.185    23 C    0.914
                             4 O    0.110
     6   7 N    3.052 --     7 C    1.623     5 C    1.185
     7   6 C    3.898 --     6 N    1.623    20 N    1.004     8 C    0.978
     8   6 C    3.924 --    10 C    0.996     9 C    0.981     7 C    0.978
                            11 N    0.905
     9   6 C    3.989 --    31 H    0.986    29 H    0.984    30 H    0.983
                             8 C    0.981
    10   6 C    3.994 --     8 C    0.996    32 H    0.986    33 H    0.984
                            34 H    0.983
    11   7 N    3.346 --    12 C    1.275     8 C    0.905    35 H    0.899
                            13 O    0.175
    12   6 C    3.891 --    13 O    1.535    11 N    1.275    14 C    1.005
    13   8 O    1.842 --    12 C    1.535    11 N    0.175
    14   6 C    3.825 --    15 N    1.587    19 O    1.035    12 C    1.005
    15   7 N    2.942 --    14 C    1.587    16 N    1.191
    16   7 N    2.980 --    17 C    1.619    15 N    1.191
    17   6 C    3.860 --    16 N    1.619    19 O    1.068    18 C    1.029
    18   6 C    3.989 --    17 C    1.029    38 H    0.984    36 H    0.966
                            37 H    0.965
    19   8 O    2.291 --    17 C    1.068    14 C    1.035
    20   7 N    3.342 --    21 C    1.165     7 C    1.004    39 H    0.913
                            22 O    0.115
    21   6 C    3.807 --    22 O    1.565    20 N    1.165    23 C    0.877
    22   8 O    1.833 --    21 C    1.565    20 N    0.115
    23   6 C    3.960 --    25 O    1.122    24 C    0.951     5 C    0.914
                            21 C    0.877
    24   6 C    3.990 --    41 H    0.990    42 H    0.987    40 H    0.986
                            23 C    0.951
    25   8 O    1.399 --    23 C    1.122
    26   1 H    1.022 --     1 C    0.980
    27   1 H    1.023 --     1 C    0.980
    28   1 H    1.021 --     1 C    0.986
    29   1 H    1.006 --     9 C    0.984
    30   1 H    1.012 --     9 C    0.983
    31   1 H    1.007 --     9 C    0.986
    32   1 H    1.012 --    10 C    0.986
    33   1 H    1.016 --    10 C    0.984
    34   1 H    1.025 --    10 C    0.983
    35   1 H    0.954 --    11 N    0.899
    36   1 H    0.998 --    18 C    0.966
    37   1 H    0.998 --    18 C    0.965
    38   1 H    1.000 --    18 C    0.984
    39   1 H    0.965 --    20 N    0.913
    40   1 H    1.036 --    24 C    0.986
    41   1 H    1.016 --    24 C    0.990
    42   1 H    1.026 --    24 C    0.987
 ---------------------------------------------------------------------------

           -------------------------------------------------
          | TOTAL ENERGY              -83.612119017650 Eh   |
          | GRADIENT NORM               0.000495101890 Eh/α |
          | HOMO-LUMO GAP               0.155728884126 eV   |
           -------------------------------------------------

 * finished run on 2023/06/21 at 17:28:39.833
