   * xtb version 6.5.1 (579679a) compiled by 'ehlert@majestix' on 2022-07-11
          program call               : /lustre/hpc/kemi/ree/PhD/git/ReactivityQM/dep/xtb-6.5.1/bin/xtb --gfn 1 /lustre/hpc/kemi/ree/PhD/git/ReactivityQM/calculations/R02methylcation/reac01prodN19/conf02/R02methylcation_reac01prodN19_conf02_gfn1.xyz --opt --vfukui --chrg 0 --uhf 0 --alpb DMSO

   ID    Z sym.   atoms
    1    6 C      1, 3, 5, 7-10, 12, 14, 17, 18, 21, 23, 24
    2    8 O      2, 4, 13, 19, 22, 25
    3    7 N      6, 11, 15, 16, 20
    4    1 H      26-42

      * Solvation model:               ALPB
        Solvent                        DMSO
        Solvent mass                       7.8130E+01 g/mol
          :  Hamiltonian                  GFN1-xTB          :
 * total energy  :   -82.9758428 Eh     change       -0.2104628E-10 Eh
 * total energy  :   -82.9905935 Eh     change       -0.1475077E-01 Eh
 * total energy  :   -82.9962679 Eh     change       -0.5674345E-02 Eh
 * total energy  :   -82.9980318 Eh     change       -0.1763887E-02 Eh
 * total energy  :   -82.9991989 Eh     change       -0.1167149E-02 Eh
 * total energy  :   -82.9997308 Eh     change       -0.5319014E-03 Eh
 * total energy  :   -83.0000584 Eh     change       -0.3275580E-03 Eh
 * total energy  :   -83.0002762 Eh     change       -0.2178512E-03 Eh
 * total energy  :   -83.0003938 Eh     change       -0.1175804E-03 Eh
 * total energy  :   -83.0004588 Eh     change       -0.6505362E-04 Eh
 * total energy  :   -83.0010800 Eh     change       -0.8295907E-05 Eh
 * total energy  :   -83.0010899 Eh     change       -0.9915094E-05 Eh
 * total energy  :   -83.0010978 Eh     change       -0.7942785E-05 Eh
 * total energy  :   -83.0011077 Eh     change       -0.9918566E-05 Eh
 * total energy  :   -83.0011147 Eh     change       -0.7002414E-05 Eh
 * total energy  :   -83.0011208 Eh     change       -0.6027695E-05 Eh
 * total energy  :   -83.0011277 Eh     change       -0.6882579E-05 Eh
 * total energy  :   -83.0011327 Eh     change       -0.5052010E-05 Eh
 * total energy  :   -83.0011376 Eh     change       -0.4843950E-05 Eh
   *** GEOMETRY OPTIMIZATION CONVERGED AFTER 36 ITERATIONS ***

 final structure:
================
42
 xtb: 6.5.1 (579679a)
C            5.42726384757573       -1.82174935373438       -1.74252359903220
O            4.23072565785423       -1.33441156195166       -1.13579256995490
C            4.22723667868932       -0.02853958540689       -0.80616383037057
O            5.18269327005674        0.68794781748058       -1.01038178937030
C            2.94860218920666        0.38288887379181       -0.18501038067934
N            2.02438833610934       -0.59488305620065       -0.05020030080539
C            0.87090881462795       -0.36222303716740        0.48937834398593
C           -0.13534104702051       -1.48357843109599        0.66578381655888
C           -0.36587893632910       -1.76838532091082        2.15639053441093
C            0.39272447848304       -2.73740380613973       -0.03341254138956
N           -1.40995518684823       -1.13635348735428        0.01501162558566
C           -2.29753271900232       -0.22847845575502        0.45975741706486
O           -2.12126209247566        0.54564423415007        1.39180046572677
C           -3.53890242332671       -0.24900643758634       -0.34773935389549
N           -3.76290577517718       -0.98911087795426       -1.39218216758291
N           -5.01984602978394       -0.69260691238453       -1.82050397335900
C           -5.48503194649247        0.20969599979274       -1.00891128999617
C           -6.81511028044670        0.85562460711012       -1.04085165264443
O           -4.59471237191893        0.53244360492505       -0.06020325122633
N            0.56782690312473        0.89352807819902        0.94679766305525
C            1.40129404301538        1.91979024885885        0.83963088885230
O            0.91118401930845        3.05319227647721        1.31687530949600
C            1.65121119596279        4.28007576588469        1.29084102221725
C            2.72870753617018        1.73295080626598        0.23800167367695
O            3.52869927924923        2.67391137417850        0.13244545155690
H            6.27957545790314       -1.67539506479242       -1.07322499728997
H            5.61555374285096       -1.29796886200007       -2.68372043374469
H            5.27483006030417       -2.88308795382661       -1.92867066600623
H           -0.72346972952879       -0.88201534363432        2.67511907822747
H            0.57146532756200       -2.08724521559672        2.60945570785345
H           -1.10220048023627       -2.56259639417813        2.26517991252674
H           -0.31923639121876       -3.55275860861570        0.07694218744830
H            0.55413439678153       -2.53946393530369       -1.09207116567497
H            1.34177192845170       -3.03083025710411        0.41247469576273
H           -1.69952405414996       -1.72475792188417       -0.75322475916719
H           -7.34826729600561        0.65218472678942       -0.11214220365368
H           -6.70292084495704        1.93555769127999       -1.13495715336566
H           -7.38821576620621        0.47273034711687       -1.88149212213941
H           -0.35390748486980        1.05587779345753        1.36298470976445
H            1.89438680493155        4.56314342084211        0.26500997428526
H            2.56698689284636        4.19101429204798        1.87808458924274
H            0.99205299493671        5.02464592192497        1.73695513404508

          :  Hamiltonian                  GFN1-xTB          :
         :: total energy             -83.001137551054 Eh    ::
         :: gradient norm              0.000426444600 Eh/a0 ::
         :: HOMO-LUMO gap              2.262768739235 eV    ::
         :: SCC energy               -83.776723050893 Eh    ::
         :: -> Gsolv                  -0.055581289644 Eh    ::
         :: repulsion energy           0.800613779560 Eh    ::

    * Orbital Energies and Occupations

         #    Occupation            Energy/Eh            Energy/eV
      -------------------------------------------------------------
         1        2.0000           -0.8683469             -23.6289
       ...           ...                  ...                  ...
        55        2.0000           -0.5064974             -13.7825
        56        2.0000           -0.5053516             -13.7513
        57        2.0000           -0.4909021             -13.3581
        58        2.0000           -0.4878846             -13.2760
        59        2.0000           -0.4863041             -13.2330
        60        2.0000           -0.4739681             -12.8973
        61        2.0000           -0.4725561             -12.8589
        62        2.0000           -0.4686423             -12.7524
        63        2.0000           -0.4646285             -12.6432
        64        2.0000           -0.4580831             -12.4651
        65        2.0000           -0.4531582             -12.3311
        66        2.0000           -0.4195942             -11.4177
        67        2.0000           -0.4115883             -11.1999 (HOMO)
        68                         -0.3284331              -8.9371 (LUMO)
        69                         -0.3188907              -8.6775
        70                         -0.2811604              -7.6508
        71                         -0.2609190              -7.1000
        72                         -0.2391687              -6.5081
        73                         -0.2068903              -5.6298
        74                         -0.1516997              -4.1280
        75                         -0.1439995              -3.9184
        76                         -0.1373814              -3.7383
        77                         -0.1334842              -3.6323
        78                         -0.1323605              -3.6017
       ...                                ...                  ...
       134                          0.7293728              19.8472
      -------------------------------------------------------------
                  HL-Gap            0.0831552 Eh            2.2628 eV

Wiberg/Mayer (AO) data.
largest (>0.10) Wiberg bond orders for each atom

     #   Z sym  total        # sym  WBO       # sym  WBO       # sym  WBO
 ---------------------------------------------------------------------------
     1   6 C    3.881 --    28 H    0.986    27 H    0.980    26 H    0.980
                             2 O    0.907
     2   8 O    2.176 --     3 C    1.079     1 C    0.907     4 O    0.126
     3   6 C    3.853 --     4 O    1.645     2 O    1.079     5 C    1.037
     4   8 O    1.913 --     3 C    1.645     2 O    0.126
     5   6 C    3.947 --     6 N    1.279    24 C    1.216     3 C    1.037
                            25 O    0.128
     6   7 N    3.044 --     7 C    1.540     5 C    1.279
     7   6 C    3.919 --     6 N    1.540    20 N    1.134     8 C    0.975
     8   6 C    3.932 --    10 C    1.001     9 C    0.982     7 C    0.975
                            11 N    0.914
     9   6 C    3.987 --    30 H    0.984    31 H    0.983     8 C    0.982
                            29 H    0.979
    10   6 C    3.990 --     8 C    1.001    32 H    0.985    33 H    0.983
                            34 H    0.982
    11   7 N    3.350 --    12 C    1.273     8 C    0.914    35 H    0.891
                            13 O    0.174
    12   6 C    3.915 --    13 O    1.556    11 N    1.273    14 C    0.998
    13   8 O    1.924 --    12 C    1.556    11 N    0.174
    14   6 C    3.878 --    15 N    1.605    19 O    1.065    12 C    0.998
    15   7 N    3.018 --    14 C    1.605    16 N    1.205
    16   7 N    2.981 --    17 C    1.599    15 N    1.205
    17   6 C    3.869 --    16 N    1.599    19 O    1.085    18 C    1.032
    18   6 C    3.986 --    17 C    1.032    38 H    0.982    37 H    0.963
                            36 H    0.962
    19   8 O    2.333 --    17 C    1.085    14 C    1.065
    20   7 N    3.535 --    21 C    1.341     7 C    1.134    39 H    0.830
    21   6 C    3.860 --    20 N    1.341    22 O    1.137    24 C    1.067
    22   8 O    2.223 --    21 C    1.137    23 C    0.880
    23   6 C    3.851 --    42 H    0.984    40 H    0.978    41 H    0.977
                            22 O    0.880
    24   6 C    3.950 --    25 O    1.511     5 C    1.216    21 C    1.067
    25   8 O    1.860 --    24 C    1.511     5 C    0.128
    26   1 H    1.009 --     1 C    0.980
    27   1 H    1.009 --     1 C    0.980
    28   1 H    1.013 --     1 C    0.986
    29   1 H    1.007 --     9 C    0.979
    30   1 H    1.001 --     9 C    0.984
    31   1 H    0.999 --     9 C    0.983
    32   1 H    0.998 --    10 C    0.985
    33   1 H    1.004 --    10 C    0.983
    34   1 H    1.008 --    10 C    0.982
    35   1 H    0.947 --    11 N    0.891
    36   1 H    0.996 --    18 C    0.962
    37   1 H    0.996 --    18 C    0.963
    38   1 H    0.998 --    18 C    0.982
    39   1 H    0.925 --    20 N    0.830
    40   1 H    1.016 --    23 C    0.978
    41   1 H    1.016 --    23 C    0.977
    42   1 H    1.010 --    23 C    0.984
 ---------------------------------------------------------------------------

           -------------------------------------------------
          | TOTAL ENERGY              -83.001137551054 Eh   |
          | GRADIENT NORM               0.000426444600 Eh/α |
          | HOMO-LUMO GAP               2.262768739235 eV   |
           -------------------------------------------------

 * finished run on 2023/06/21 at 18:02:57.889
