   * xtb version 6.5.1 (579679a) compiled by 'ehlert@majestix' on 2022-07-11
          program call               : /lustre/hpc/kemi/ree/PhD/git/ReactivityQM/dep/xtb-6.5.1/bin/xtb --gfn 1 /lustre/hpc/kemi/ree/PhD/git/ReactivityQM/calculations/RaltegravirCLI/reac02prodN13/conf17/RaltegravirCLI_reac02prodN13_conf17_gfn1.xyz --opt --vfukui --chrg 1 --uhf 0 --alpb DMSO

   ID    Z sym.   atoms
    1    6 C      1, 3-6, 9, 10, 13-17, 19-21, 23, 24
    2    7 N      2, 7, 8, 12
    3    8 O      11, 22, 25
    4    9 F      18
    5    1 H      26-47

      * Solvation model:               ALPB
        Solvent                        DMSO
        Solvent mass                       7.8130E+01 g/mol
          :  Hamiltonian                  GFN1-xTB          :
 * total energy  :   -79.3901575 Eh     change       -0.3482938E-09 Eh
 * total energy  :   -79.4095015 Eh     change       -0.1934404E-01 Eh
 * total energy  :   -79.4200732 Eh     change       -0.1057170E-01 Eh
 * total energy  :   -79.4240979 Eh     change       -0.4024715E-02 Eh
 * total energy  :   -79.4268239 Eh     change       -0.2725961E-02 Eh
 * total energy  :   -79.4280388 Eh     change       -0.1214885E-02 Eh
 * total energy  :   -79.4289079 Eh     change       -0.8690929E-03 Eh
 * total energy  :   -79.4296838 Eh     change       -0.7759696E-03 Eh
 * total energy  :   -79.4302022 Eh     change       -0.5183340E-03 Eh
 * total energy  :   -79.4305626 Eh     change       -0.3604766E-03 Eh
 * total energy  :   -79.4891266 Eh     change       -0.4805571E-04 Eh
 * total energy  :   -79.4892157 Eh     change       -0.8915384E-04 Eh
 * total energy  :   -79.4892449 Eh     change       -0.2915018E-04 Eh
 * total energy  :   -79.4892594 Eh     change       -0.1449040E-04 Eh
 * total energy  :   -79.4892699 Eh     change       -0.1055981E-04 Eh
 * total energy  :   -79.4892565 Eh     change        0.1340579E-04 Eh
 * total energy  :   -79.4892736 Eh     change       -0.1712096E-04 Eh
 * total energy  :   -79.4892798 Eh     change       -0.6135767E-05 Eh
 * total energy  :   -79.4892829 Eh     change       -0.3074640E-05 Eh
   *** GEOMETRY OPTIMIZATION CONVERGED AFTER 93 ITERATIONS ***

 final structure:
================
47
 xtb: 6.5.1 (579679a)
C           -3.61240642240990        0.87603558317187       -1.92212574607636
N           -2.48035149925907        0.77906760055474       -0.99403282716322
C           -2.41119614955483       -0.07763773886849        0.02777529066227
C           -3.55595341541023       -0.72699610429602        0.76411460383986
C           -3.74519718729517       -2.16965078770653        0.27670001178986
C           -4.86812258294848        0.06003099563301        0.73557340218101
N           -3.09199689358434       -0.75472745516325        2.14554045279634
N           -1.19783092129271       -0.44271392708973        0.48740007302546
C           -0.12089788395625        0.24051261873199        0.28845972980729
C            1.17659050751516       -0.44179018282971        0.66469158331595
O            1.21365940524899       -1.65261484431384        0.79659783514295
N            2.21167870077141        0.37698725520747        0.88157103409377
C            3.50471538580423       -0.16328995652809        1.30213499665401
C            4.27100311709183       -0.66830294133425        0.09851638490284
C            4.18975461815423       -2.00958069546182       -0.26748186319068
C            4.87604555481392       -2.47803002894045       -1.37858935042310
C            5.63275538548353       -1.57925328463030       -2.10923075239472
F            6.29910225659139       -2.02485762564979       -3.18460584679222
C            5.72855300760313       -0.23968851588239       -1.77699393868573
C            5.03614559722941        0.21224316872046       -0.66240398598755
C           -0.26626835078894        1.62833308789939       -0.24697957787148
O            0.92150615013649        2.08063394602490       -0.81397408722154
C           -1.38737683126466        1.64004838253404       -1.28464526208775
C           -0.74363369621604        2.57982827941265        0.88441905212242
O           -1.41303522801938        2.38728006076087       -2.21713386132500
H           -4.26770547160754        1.68664260281748       -1.60785402061382
H           -3.21033037540272        1.09953828469274       -2.90959292624592
H           -4.14528882519814       -0.06847996191765       -1.94296427609709
H           -2.79642724744117       -2.70281720438360        0.31413460112180
H           -4.11896791113415       -2.17698538836651       -0.74521781483392
H           -4.46349064081236       -2.66598319534235        0.92726319007037
H           -4.67652594903046        1.12531499911239        0.84616908772165
H           -5.47711587521924       -0.27239060593674        1.57546105241756
H           -5.42450325053868       -0.11567568732959       -0.18134267094399
H           -2.25696123476741       -1.31948190016282        2.24449357226433
H           -2.90312617479720        0.18050003866743        2.47552606747885
H            2.14734911000654        1.36273626937171        0.69147436520466
H            3.31555182077200       -0.97734082256738        2.00775157380347
H            4.04556300030009        0.64011070843309        1.80412132235064
H            3.58225803107960       -2.68996864123165        0.31758136988964
H            4.82447582784964       -3.51761829391986       -1.67526042052619
H            6.32871002279329        0.43236816846280       -2.37637915354773
H            5.09421765201102        1.25687201369612       -0.38248486289740
H            0.77095084668059        2.88138769825603       -1.33803438199580
H           -1.63562582963462        2.18110309497335        1.36091968273419
H            0.05727044244203        2.67087974784709        1.61436345272154
H           -0.95752159281115        3.55742218487654        0.45797183880806

          :  Hamiltonian                  GFN1-xTB          :
         :: total energy             -79.489282858973 Eh    ::
         :: gradient norm              0.000837011798 Eh/a0 ::
         :: HOMO-LUMO gap              0.906078734597 eV    ::
         :: SCC energy               -80.381931810568 Eh    ::
         :: -> Gsolv                  -0.112035515608 Eh    ::
         :: repulsion energy           0.923964376461 Eh    ::

    * Orbital Energies and Occupations

         #    Occupation            Energy/Eh            Energy/eV
      -------------------------------------------------------------
         1        2.0000           -0.8839878             -24.0545
       ...           ...                  ...                  ...
        55        2.0000           -0.5208390             -14.1728
        56        2.0000           -0.5182625             -14.1026
        57        2.0000           -0.5164925             -14.0545
        58        2.0000           -0.5137336             -13.9794
        59        2.0000           -0.5122334             -13.9386
        60        2.0000           -0.5018414             -13.6558
        61        2.0000           -0.4940191             -13.4429
        62        2.0000           -0.4798743             -13.0580
        63        2.0000           -0.4750229             -12.9260
        64        2.0000           -0.4643116             -12.6346
        65        2.0000           -0.4574776             -12.4486
        66        2.0000           -0.4540414             -12.3551
        67        2.0000           -0.4444547             -12.0942 (HOMO)
        68                         -0.4111570             -11.1882 (LUMO)
        69                         -0.3392804              -9.2323
        70                         -0.3003401              -8.1727
        71                         -0.2794497              -7.6042
        72                         -0.2742191              -7.4619
        73                         -0.2421352              -6.5888
        74                         -0.1711275              -4.6566
        75                         -0.1570592              -4.2738
        76                         -0.1527820              -4.1574
        77                         -0.1472342              -4.0064
        78                         -0.1399689              -3.8087
       ...                                ...                  ...
       144                          0.6902553              18.7828
      -------------------------------------------------------------
                  HL-Gap            0.0332978 Eh            0.9061 eV

Wiberg/Mayer (AO) data.
largest (>0.10) Wiberg bond orders for each atom

     #   Z sym  total        # sym  WBO       # sym  WBO       # sym  WBO
 ---------------------------------------------------------------------------
     1   6 C    3.892 --    28 H    0.981    26 H    0.969    27 H    0.969
                             2 N    0.904
     2   7 N    3.534 --     3 C    1.336    23 C    1.016     1 C    0.904
     3   6 C    3.872 --     2 N    1.336     8 N    1.266     4 C    0.988
     4   6 C    3.953 --     3 C    0.988     6 C    0.988     7 N    0.970
                             5 C    0.962
     5   6 C    3.983 --    30 H    0.983    29 H    0.983    31 H    0.978
                             4 C    0.962
     6   6 C    3.987 --     4 C    0.988    32 H    0.984    34 H    0.981
                            33 H    0.979
     7   7 N    3.075 --     4 C    0.970    36 H    0.931    35 H    0.917
     8   7 N    3.159 --     9 C    1.629     3 C    1.266
     9   6 C    3.907 --     8 N    1.629    21 C    1.001    10 C    0.961
    10   6 C    3.922 --    11 O    1.587    12 N    1.298     9 C    0.961
    11   8 O    1.911 --    10 C    1.587    12 N    0.200
    12   7 N    3.409 --    10 C    1.298    13 C    0.928    37 H    0.881
                            11 O    0.200
    13   6 C    3.930 --    14 C    0.987    39 H    0.974    38 H    0.970
                            12 N    0.928
    14   6 C    3.982 --    20 C    1.419    15 C    1.418    13 C    0.987
    15   6 C    3.992 --    16 C    1.444    14 C    1.418    40 H    0.969
                            19 C    0.110
    16   6 C    3.991 --    15 C    1.444    17 C    1.400    41 H    0.969
                            20 C    0.110
    17   6 C    3.860 --    16 C    1.400    19 C    1.399    18 F    0.929
    18   9 F    1.058 --    17 C    0.929
    19   6 C    3.991 --    20 C    1.444    17 C    1.399    42 H    0.969
                            15 C    0.110
    20   6 C    3.993 --    19 C    1.444    14 C    1.419    43 H    0.971
                            16 C    0.110
    21   6 C    3.933 --     9 C    1.001    22 O    0.987    23 C    0.924
                            24 C    0.902
    22   8 O    1.925 --    21 C    0.987    44 H    0.815
    23   6 C    3.859 --    25 O    1.773     2 N    1.016    21 C    0.924
    24   6 C    3.972 --    45 H    0.984    47 H    0.977    46 H    0.976
                            21 C    0.902
    25   8 O    2.030 --    23 C    1.773
    26   1 H    0.994 --     1 C    0.969
    27   1 H    0.996 --     1 C    0.969
    28   1 H    0.999 --     1 C    0.981
    29   1 H    0.999 --     5 C    0.983
    30   1 H    0.999 --     5 C    0.983
    31   1 H    0.998 --     5 C    0.978
    32   1 H    0.996 --     6 C    0.984
    33   1 H    1.000 --     6 C    0.979
    34   1 H    1.000 --     6 C    0.981
    35   1 H    0.952 --     7 N    0.917
    36   1 H    0.948 --     7 N    0.931
    37   1 H    0.938 --    12 N    0.881
    38   1 H    1.003 --    13 C    0.970
    39   1 H    1.000 --    13 C    0.974
    40   1 H    1.009 --    15 C    0.969
    41   1 H    0.997 --    16 C    0.969
    42   1 H    0.997 --    19 C    0.969
    43   1 H    0.998 --    20 C    0.971
    44   1 H    0.836 --    22 O    0.815
    45   1 H    0.997 --    24 C    0.984
    46   1 H    0.995 --    24 C    0.976
    47   1 H    0.993 --    24 C    0.977
 ---------------------------------------------------------------------------

           -------------------------------------------------
          | TOTAL ENERGY              -79.489282858973 Eh   |
          | GRADIENT NORM               0.000837011798 Eh/α |
          | HOMO-LUMO GAP               0.906078734597 eV   |
           -------------------------------------------------

 * finished run on 2023/06/20 at 15:34:40.095
