                         Program Version 5.0.1 -  RELEASE  -
|  1> # ORCA input file
|  2> ! SP r2SCAN-3c CPCM
|  3>
|  4> %maxcore 1875.0
|  5> %pal nprocs 4 end
|  6> %cpcm smd true SMDsolvent "DMSO" end
|  7>
|  8> *xyz 0 1
|  9> C       4.150501   -1.173913    3.964301
| 10> O       4.244573   -0.652055    2.645295
| 11> C       3.073509   -0.505691    1.982375
| 12> O       2.008449   -0.807696    2.511242
| 13> C       3.195851    0.023433    0.633348
| 14> N       1.969468    0.141738    0.005364
| 15> C       1.877020    0.586565   -1.191591
| 16> C       0.511246    0.692997   -1.843789
| 17> C       0.178765    2.147052   -2.199017
| 18> C       0.418968   -0.216875   -3.074503
| 19> N      -0.419457    0.217556   -0.814756
| 20> C      -1.733251    0.133840   -0.948834
| 21> O      -2.407363    0.423951   -1.924598
| 22> C      -2.365357   -0.392627    0.305985
| 23> N      -1.816352   -0.745832    1.403992
| 24> N      -2.789572   -1.163156    2.271105
| 25> C      -3.926468   -1.062793    1.700421
| 26> C      -5.263616   -1.386977    2.220968
| 27> O      -3.748035   -0.562141    0.403568
| 28> C      -4.734000   -0.298681   -0.643806
| 29> N       2.982303    0.969660   -1.914598
| 30> C       4.265886    0.907386   -1.420460
| 31> O       5.203245    1.264228   -2.125164
| 32> C       4.410317    0.384653   -0.004955
| 33> O       5.549488    0.308797    0.485046
| 34> H       3.523784   -0.531228    4.590377
| 35> H       3.720261   -2.180167    3.951279
| 36> H       5.162290   -1.209572    4.366930
| 37> H       0.913484    2.529185   -2.905162
| 38> H       0.192533    2.762685   -1.300753
| 39> H      -0.807919    2.203654   -2.654330
| 40> H      -0.576119   -0.155870   -3.510259
| 41> H       0.621241   -1.248856   -2.791234
| 42> H       1.147799    0.099101   -3.818299
| 43> H       0.038992   -0.062808    0.059516
| 44> H      -5.158077   -1.758987    3.238606
| 45> H      -5.740462   -2.148200    1.603412
| 46> H      -5.898986   -0.500978    2.221692
| 47> H      -4.645351    0.750572   -0.917728
| 48> H      -5.707339   -0.524569   -0.220438
| 49> H      -4.497798   -0.946716   -1.485929
| 50> H       2.875547    1.312804   -2.854614
| 51> **                         ****END OF INPUT****

CARTESIAN COORDINATES (ANGSTROEM)
---------------------------------
  C      4.150501   -1.173913    3.964301
  O      4.244573   -0.652055    2.645295
  C      3.073509   -0.505691    1.982375
  O      2.008449   -0.807696    2.511242
  C      3.195851    0.023433    0.633348
  N      1.969468    0.141738    0.005364
  C      1.877020    0.586565   -1.191591
  C      0.511246    0.692997   -1.843789
  C      0.178765    2.147052   -2.199017
  C      0.418968   -0.216875   -3.074503
  N     -0.419457    0.217556   -0.814756
  C     -1.733251    0.133840   -0.948834
  O     -2.407363    0.423951   -1.924598
  C     -2.365357   -0.392627    0.305985
  N     -1.816352   -0.745832    1.403992
  N     -2.789572   -1.163156    2.271105
  C     -3.926468   -1.062793    1.700421
  C     -5.263616   -1.386977    2.220968
  O     -3.748035   -0.562141    0.403568
  C     -4.734000   -0.298681   -0.643806
  N      2.982303    0.969660   -1.914598
  C      4.265886    0.907386   -1.420460
  O      5.203245    1.264228   -2.125164
  C      4.410317    0.384653   -0.004955
  O      5.549488    0.308797    0.485046
  H      3.523784   -0.531228    4.590377
  H      3.720261   -2.180167    3.951279
  H      5.162290   -1.209572    4.366930
  H      0.913484    2.529185   -2.905162
  H      0.192533    2.762685   -1.300753
  H     -0.807919    2.203654   -2.654330
  H     -0.576119   -0.155870   -3.510259
  H      0.621241   -1.248856   -2.791234
  H      1.147799    0.099101   -3.818299
  H      0.038992   -0.062808    0.059516
  H     -5.158077   -1.758987    3.238606
  H     -5.740462   -2.148200    1.603412
  H     -5.898986   -0.500978    2.221692
  H     -4.645351    0.750572   -0.917728
  H     -5.707339   -0.524569   -0.220438
  H     -4.497798   -0.946716   -1.485929
  H      2.875547    1.312804   -2.854614

 Total Charge           Charge          ....    0
 Multiplicity           Mult            ....    1
 Number of Electrons    NEL             ....  184
 Basis Dimension        Dim             ....  615

ORBITAL ENERGIES
----------------

  NO   OCC          E(Eh)            E(eV)
   0   2.0000     -19.180943      -521.9400
   1   2.0000     -18.971617      -516.2439
   2   2.0000     -18.946634      -515.5641
   3   2.0000     -18.910627      -514.5843
   4   2.0000     -18.904349      -514.4135
   5   2.0000     -18.880644      -513.7684
   6   2.0000     -14.245911      -387.6510
   7   2.0000     -14.238384      -387.4461
   8   2.0000     -14.203993      -386.5103
   9   2.0000     -14.202289      -386.4639
  10   2.0000     -14.147599      -384.9757
  11   2.0000     -10.198003      -277.5018
  12   2.0000     -10.192745      -277.3587
  13   2.0000     -10.174395      -276.8594
  14   2.0000     -10.134804      -275.7820
  15   2.0000     -10.127353      -275.5793
  16   2.0000     -10.119111      -275.3550
  17   2.0000     -10.101785      -274.8835
  18   2.0000     -10.098398      -274.7914
  19   2.0000     -10.076511      -274.1958
  20   2.0000     -10.067413      -273.9482
  21   2.0000     -10.063287      -273.8360
  22   2.0000     -10.039568      -273.1905
  23   2.0000     -10.022119      -272.7157
  24   2.0000     -10.021968      -272.7116
  25   2.0000      -1.230225       -33.4761
  26   2.0000      -1.042794       -28.3759
  27   2.0000      -1.040950       -28.3257
  28   2.0000      -1.038226       -28.2516
  29   2.0000      -1.002736       -27.2858
  30   2.0000      -0.951375       -25.8882
  31   2.0000      -0.944196       -25.6929
  32   2.0000      -0.941730       -25.6258
  33   2.0000      -0.917638       -24.9702
  34   2.0000      -0.879966       -23.9451
  35   2.0000      -0.853358       -23.2210
  36   2.0000      -0.786529       -21.4025
  37   2.0000      -0.777515       -21.1573
  38   2.0000      -0.744677       -20.2637
  39   2.0000      -0.715217       -19.4620
  40   2.0000      -0.709756       -19.3134
  41   2.0000      -0.671928       -18.2841
  42   2.0000      -0.662084       -18.0162
  43   2.0000      -0.649678       -17.6786
  44   2.0000      -0.622213       -16.9313
  45   2.0000      -0.612320       -16.6621
  46   2.0000      -0.598170       -16.2770
  47   2.0000      -0.571938       -15.5632
  48   2.0000      -0.565995       -15.4015
  49   2.0000      -0.547481       -14.8977
  50   2.0000      -0.533813       -14.5258
  51   2.0000      -0.521841       -14.2000
  52   2.0000      -0.496533       -13.5113
  53   2.0000      -0.476999       -12.9798
  54   2.0000      -0.468261       -12.7420
  55   2.0000      -0.457397       -12.4464
  56   2.0000      -0.445090       -12.1115
  57   2.0000      -0.443249       -12.0614
  58   2.0000      -0.438522       -11.9328
  59   2.0000      -0.430310       -11.7093
  60   2.0000      -0.427043       -11.6204
  61   2.0000      -0.421528       -11.4704
  62   2.0000      -0.419844       -11.4245
  63   2.0000      -0.411798       -11.2056
  64   2.0000      -0.407477       -11.0880
  65   2.0000      -0.405755       -11.0412
  66   2.0000      -0.402025       -10.9397
  67   2.0000      -0.386727       -10.5234
  68   2.0000      -0.382400       -10.4056
  69   2.0000      -0.372673       -10.1409
  70   2.0000      -0.370247       -10.0749
  71   2.0000      -0.363340        -9.8870
  72   2.0000      -0.356585        -9.7032
  73   2.0000      -0.354633        -9.6500
  74   2.0000      -0.352365        -9.5883
  75   2.0000      -0.351751        -9.5716
  76   2.0000      -0.330332        -8.9888
  77   2.0000      -0.328268        -8.9326
  78   2.0000      -0.316731        -8.6187
  79   2.0000      -0.309688        -8.4270
  80   2.0000      -0.301785        -8.2120
  81   2.0000      -0.301227        -8.1968
  82   2.0000      -0.298460        -8.1215
  83   2.0000      -0.261247        -7.1089
  84   2.0000      -0.256737        -6.9862
  85   2.0000      -0.252048        -6.8586
  86   2.0000      -0.250831        -6.8255
  87   2.0000      -0.244875        -6.6634
  88   2.0000      -0.229897        -6.2558
  89   2.0000      -0.213207        -5.8017
  90   2.0000      -0.176439        -4.8012
  91   2.0000      -0.160972        -4.3803
  92   0.0000      -0.121957        -3.3186
  93   0.0000      -0.055760        -1.5173
  94   0.0000      -0.053762        -1.4629
  95   0.0000      -0.018143        -0.4937
  96   0.0000      -0.011272        -0.3067

MULLIKEN ATOMIC CHARGES
-----------------------
   0 C :   -0.329430
   1 O :   -0.153366
   2 C :    0.193681
   3 O :   -0.447989
   4 C :   -0.091289
   5 N :   -0.211192
   6 C :    0.416678
   7 C :   -0.264708
   8 C :   -0.596637
   9 C :   -0.597314
  10 N :    0.084394
  11 C :   -0.054024
  12 O :   -0.486544
  13 C :    0.380458
  14 N :   -0.045306
  15 N :   -0.264237
  16 C :    0.489766
  17 C :   -0.673562
  18 O :    0.110171
  19 C :   -0.239744
  20 N :   -0.041212
  21 C :    0.043178
  22 O :   -0.392542
  23 C :   -0.087112
  24 O :   -0.371165
  25 H :    0.163456
  26 H :    0.163407
  27 H :    0.164563
  28 H :    0.185076
  29 H :    0.187159
  30 H :    0.197010
  31 H :    0.197129
  32 H :    0.186940
  33 H :    0.185671
  34 H :    0.326860
  35 H :    0.226290
  36 H :    0.229600
  37 H :    0.230250
  38 H :    0.229445
  39 H :    0.222255
  40 H :    0.229946
  41 H :    0.303987
Sum of atomic charges:    0.0000000

LOEWDIN ATOMIC CHARGES
----------------------
   0 C :   -0.054687
   1 O :   -0.600875
   2 C :    0.387882
   3 O :   -0.481892
   4 C :    0.126541
   5 N :   -0.612982
   6 C :    0.326879
   7 C :    0.108215
   8 C :   -0.345370
   9 C :   -0.345239
  10 N :   -0.567561
  11 C :    0.384560
  12 O :   -0.474868
  13 C :    0.487228
  14 N :   -0.282231
  15 N :   -0.288521
  16 C :    0.442210
  17 C :   -0.299626
  18 O :   -0.545999
  19 C :    0.078989
  20 N :   -0.478634
  21 C :    0.358498
  22 O :   -0.470793
  23 C :    0.229047
  24 O :   -0.563107
  25 H :    0.174143
  26 H :    0.173647
  27 H :    0.177728
  28 H :    0.171943
  29 H :    0.174881
  30 H :    0.178133
  31 H :    0.178497
  32 H :    0.174749
  33 H :    0.171899
  34 H :    0.323947
  35 H :    0.209414
  36 H :    0.206033
  37 H :    0.206245
  38 H :    0.222415
  39 H :    0.218154
  40 H :    0.221267
  41 H :    0.299239

  Mayer bond orders larger than 0.100000
B(  0-C ,  1-O ) :   0.8467 B(  0-C , 25-H ) :   0.9623 B(  0-C , 26-H ) :   0.9616
B(  0-C , 27-H ) :   0.9689 B(  1-O ,  2-C ) :   1.1284 B(  2-C ,  3-O ) :   1.8514
B(  2-C ,  4-C ) :   1.1498 B(  4-C ,  5-N ) :   0.9823 B(  4-C , 23-C ) :   0.9525
B(  5-N ,  6-C ) :   1.7168 B(  6-C ,  7-C ) :   0.7253 B(  6-C , 10-N ) :  -0.1318
B(  6-C , 20-N ) :   1.0587 B(  7-C ,  8-C ) :   0.9357 B(  7-C ,  9-C ) :   0.9355
B(  7-C , 10-N ) :   0.9292 B(  8-C , 28-H ) :   0.9566 B(  8-C , 29-H ) :   0.9671
B(  8-C , 30-H ) :   0.9598 B(  9-C , 31-H ) :   0.9595 B(  9-C , 32-H ) :   0.9668
B(  9-C , 33-H ) :   0.9569 B( 10-N , 11-C ) :   1.2630 B( 10-N , 12-O ) :   0.1206
B( 10-N , 34-H ) :   0.8131 B( 11-C , 12-O ) :   1.7060 B( 11-C , 13-C ) :   0.8818
B( 13-C , 14-N ) :   1.7478 B( 13-C , 18-O ) :   0.9908 B( 14-N , 15-N ) :   1.0442
B( 15-N , 16-C ) :   1.6765 B( 16-C , 17-C ) :   0.8385 B( 16-C , 18-O ) :   0.9006
B( 17-C , 35-H ) :   0.9440 B( 17-C , 36-H ) :   0.9293 B( 17-C , 37-H ) :   0.9293
B( 18-O , 19-C ) :   0.7956 B( 19-C , 38-H ) :   0.9143 B( 19-C , 39-H ) :   0.9166
B( 19-C , 40-H ) :   0.9146 B( 20-N , 21-C ) :   0.9930 B( 20-N , 41-H ) :   0.8836
B( 21-C , 22-O ) :   2.0849 B( 21-C , 23-C ) :   0.8831 B( 23-C , 24-O ) :   1.9554

Dispersion correction           -0.018826028
FINAL SINGLE POINT ENERGY     -1268.539954460235

DIPOLE MOMENT
-------------
                                X             Y             Z
Electronic contribution:      8.12758      -0.17116       2.95694
Nuclear contribution   :    -23.19563      -0.96124      -3.91396
                        -----------------------------------------
Total Dipole Moment    :    -15.06805      -1.13240      -0.95702
                        -----------------------------------------
Magnitude (a.u.)       :     15.14082
Magnitude (Debye)      :     38.48491

Rotational constants in cm-1:     0.011425     0.004232     0.003157
Rotational constants in MHz :   342.502051   126.873267    94.635030

                             ****ORCA TERMINATED NORMALLY****
TOTAL RUN TIME: 0 days 0 hours 1 minutes 38 seconds 22 msec
