   * xtb version 6.5.1 (579679a) compiled by 'ehlert@majestix' on 2022-07-11
          program call               : /lustre/hpc/kemi/ree/PhD/git/ReactivityQM/dep/xtb-6.5.1/bin/xtb --gfn 1 /lustre/hpc/kemi/ree/PhD/git/ReactivityQM/calculations/R02oxygendeprot/reac01prodN01/conf11/R02oxygendeprot_reac01prodN01_conf11_gfn1.xyz --opt --vfukui --chrg 0 --uhf 0 --alpb DMSO

   ID    Z sym.   atoms
    1    6 C      1, 3, 5, 7-10, 12, 14, 17, 18, 20, 22, 24
    2    8 O      2, 4, 13, 19, 23, 25
    3    7 N      6, 11, 15, 16, 21
    4    1 H      26-42

      * Solvation model:               ALPB
        Solvent                        DMSO
        Solvent mass                       7.8130E+01 g/mol
          :  Hamiltonian                  GFN1-xTB          :
 * total energy  :   -82.8830752 Eh     change       -0.8492407E-10 Eh
 * total energy  :   -82.9008936 Eh     change       -0.1781841E-01 Eh
 * total energy  :   -82.9100990 Eh     change       -0.9205317E-02 Eh
 * total energy  :   -82.9127600 Eh     change       -0.2661086E-02 Eh
 * total energy  :   -82.9144611 Eh     change       -0.1701056E-02 Eh
 * total energy  :   -82.9152329 Eh     change       -0.7717765E-03 Eh
 * total energy  :   -82.9157857 Eh     change       -0.5527945E-03 Eh
 * total energy  :   -82.9161901 Eh     change       -0.4044678E-03 Eh
 * total energy  :   -82.9165013 Eh     change       -0.3111361E-03 Eh
 * total energy  :   -82.9167732 Eh     change       -0.2718869E-03 Eh
 * total energy  :   -82.9186031 Eh     change       -0.5991921E-04 Eh
 * total energy  :   -82.9186475 Eh     change       -0.4441249E-04 Eh
 * total energy  :   -82.9186976 Eh     change       -0.5004270E-04 Eh
 * total energy  :   -82.9187217 Eh     change       -0.2416482E-04 Eh
 * total energy  :   -82.9187316 Eh     change       -0.9839659E-05 Eh
 * total energy  :   -82.9187354 Eh     change       -0.3851745E-05 Eh
 * total energy  :   -82.9187423 Eh     change       -0.6847755E-05 Eh
 * total energy  :   -82.9187479 Eh     change       -0.5653008E-05 Eh
 * total energy  :   -82.9187512 Eh     change       -0.3298444E-05 Eh
   *** GEOMETRY OPTIMIZATION CONVERGED AFTER 42 ITERATIONS ***

 final structure:
================
42
 xtb: 6.5.1 (579679a)
C            4.15050141952867       -1.17391337591819        3.96430116432542
O            4.24457295847839       -0.65205522576841        2.64529490007542
C            3.07350877891863       -0.50569125353235        1.98237484972592
O            2.00844875403193       -0.80769643470037        2.51124217624396
C            3.19585121976255        0.02343343263111        0.63334791808246
N            1.96946829339518        0.14173844648567        0.00536360571583
C            1.87701987386113        0.58656521217141       -1.19159101592637
C            0.51124564277102        0.69299680731297       -1.84378886934274
C            0.17876531899578        2.14705218270903       -2.19901678742931
C            0.41896796457042       -0.21687530596182       -3.07450264007449
N           -0.41945656016880        0.21755564981238       -0.81475616967345
C           -1.73325097241906        0.13383976706857       -0.94883362067196
O           -2.40736333219960        0.42395141507638       -1.92459799354787
C           -2.36535663932696       -0.39262657954452        0.30598536909528
N           -1.81635212146451       -0.74583175517700        1.40399190111629
N           -2.78957248453376       -1.16315638377639        2.27110476157479
C           -3.92646768702271       -1.06279347150334        1.70042105556489
C           -5.26361594602257       -1.38697713136541        2.22096780158671
O           -3.74803470876711       -0.56214061608695        0.40356765345048
C           -4.73399952390533       -0.29868084291389       -0.64380552465537
N            2.98230333104070        0.96965964159402       -1.91459769339020
C            4.26588629263638        0.90738576179121       -1.42046019694635
O            5.20324472285075        1.26422840300136       -2.12516382133728
C            4.41031722196710        0.38465286461118       -0.00495547296085
O            5.54948782898685        0.30879655145828        0.48504569715896
H            3.52378368210809       -0.53122844950145        4.59037663422270
H            3.72026099356997       -2.18016690327293        3.95127885280597
H            5.16229048562367       -1.20957227888039        4.36693044984107
H            0.91348422192793        2.52918533315399       -2.90516231649095
H            0.19253341394876        2.76268492776783       -1.30075341677530
H           -0.80791882909801        2.20365391594000       -2.65433041760956
H           -0.57611897256534       -0.15586983728218       -3.51025946863896
H            0.62124073626867       -1.24885575952153       -2.79123388649001
H            1.14779913882943        0.09910133572329       -3.81829871447285
H            0.03899160354411       -0.06280759781565        0.05951634024451
H           -5.15807722447266       -1.75898701414336        3.23860617412710
H           -5.74046171328153       -2.14819995908495        1.60341224674246
H           -5.89898596504703       -0.50097848553658        2.22169160634135
H           -4.64535069676468        0.75057211467896       -0.91772785196384
H           -5.70733884851239       -0.52456862957877       -0.22043767740239
H           -4.49779774771230       -0.94671611021800       -1.48592897487728
H            2.87554707567227        1.31280363809951       -2.85461362736292

          :  Hamiltonian                  GFN1-xTB          :
         :: total energy             -82.918751227025 Eh    ::
         :: gradient norm              0.000805636773 Eh/a0 ::
         :: HOMO-LUMO gap              0.474258142225 eV    ::
         :: SCC energy               -83.701985979229 Eh    ::
         :: -> Gsolv                  -0.118020787177 Eh    ::
         :: repulsion energy           0.809191015289 Eh    ::

    * Orbital Energies and Occupations

         #    Occupation            Energy/Eh            Energy/eV
      -------------------------------------------------------------
         1        2.0000           -0.9630471             -26.2058
       ...           ...                  ...                  ...
        55        2.0000           -0.5061155             -13.7721
        56        2.0000           -0.5006378             -13.6230
        57        2.0000           -0.4966028             -13.5132
        58        2.0000           -0.4927566             -13.4086
        59        2.0000           -0.4814983             -13.1022
        60        2.0000           -0.4707093             -12.8087
        61        2.0000           -0.4656852             -12.6719
        62        2.0000           -0.4639995             -12.6261
        63        2.0000           -0.4493075             -12.2263
        64        2.0000           -0.4439301             -12.0800
        65        2.0000           -0.4287843             -11.6678
        66        2.0000           -0.3871939             -10.5361
        67        1.9998           -0.3739126             -10.1747 (HOMO)
        68        0.0002           -0.3564839              -9.7004 (LUMO)
        69                         -0.3083074              -8.3895
        70                         -0.2775649              -7.5529
        71                         -0.2494936              -6.7891
        72                         -0.2344845              -6.3806
        73                         -0.2044147              -5.5624
        74                         -0.1869007              -5.0858
        75                         -0.1733902              -4.7182
        76                         -0.1338104              -3.6412
        77                         -0.1256487              -3.4191
        78                         -0.1249690              -3.4006
       ...                                ...                  ...
       134                          0.7541364              20.5211
      -------------------------------------------------------------
                  HL-Gap            0.0174287 Eh            0.4743 eV

Wiberg/Mayer (AO) data.
largest (>0.10) Wiberg bond orders for each atom

     #   Z sym  total        # sym  WBO       # sym  WBO       # sym  WBO
 ---------------------------------------------------------------------------
     1   6 C    3.896 --    28 H    0.987    27 H    0.981    26 H    0.981
                             2 O    0.922
     2   8 O    2.165 --     3 C    1.056     1 C    0.922     4 O    0.110
     3   6 C    3.852 --     4 O    1.571     5 C    1.113     2 O    1.056
     4   8 O    1.848 --     3 C    1.571     2 O    0.110
     5   6 C    3.910 --    24 C    1.269     6 N    1.145     3 C    1.113
                            25 O    0.129
     6   7 N    3.074 --     7 C    1.624     5 C    1.145
     7   6 C    3.936 --     6 N    1.624    21 N    1.106     8 C    0.977
     8   6 C    3.921 --     9 C    0.982    10 C    0.982     7 C    0.977
                            11 N    0.913
     9   6 C    3.988 --    30 H    0.985    29 H    0.983     8 C    0.982
                            31 H    0.981
    10   6 C    3.988 --    33 H    0.985    34 H    0.983     8 C    0.982
                            32 H    0.981
    11   7 N    3.420 --    12 C    1.340     8 C    0.913    35 H    0.852
                            13 O    0.201
    12   6 C    3.932 --    13 O    1.556    11 N    1.340    14 C    0.962
    13   8 O    1.921 --    12 C    1.556    11 N    0.201
    14   6 C    3.795 --    15 N    1.711    12 C    0.962    19 O    0.882
    15   7 N    3.043 --    14 C    1.711    16 N    1.142
    16   7 N    3.025 --    17 C    1.704    15 N    1.142
    17   6 C    3.805 --    16 N    1.704    18 C    1.043    19 O    0.874
    18   6 C    3.971 --    17 C    1.043    36 H    0.970    37 H    0.952
                            38 H    0.952
    19   8 O    2.653 --    14 C    0.882    17 C    0.874    20 C    0.750
    20   6 C    3.728 --    40 H    0.975    41 H    0.968    39 H    0.968
                            19 O    0.750
    21   7 N    3.424 --    22 C    1.147     7 C    1.106    42 H    0.895
                            23 O    0.133
    22   6 C    3.875 --    23 O    1.593    21 N    1.147    24 C    0.963
    23   8 O    1.873 --    22 C    1.593    21 N    0.133
    24   6 C    3.943 --    25 O    1.529     5 C    1.269    22 C    0.963
    25   8 O    1.834 --    24 C    1.529     5 C    0.129
    26   1 H    1.014 --     1 C    0.981
    27   1 H    1.013 --     1 C    0.981
    28   1 H    1.015 --     1 C    0.987
    29   1 H    1.000 --     9 C    0.983
    30   1 H    1.002 --     9 C    0.985
    31   1 H    1.005 --     9 C    0.981
    32   1 H    1.005 --    10 C    0.981
    33   1 H    1.002 --    10 C    0.985
    34   1 H    1.000 --    10 C    0.983
    35   1 H    0.967 --    11 N    0.852
    36   1 H    0.990 --    18 C    0.970
    37   1 H    0.989 --    18 C    0.952
    38   1 H    0.989 --    18 C    0.952
    39   1 H    1.001 --    20 C    0.968
    40   1 H    0.991 --    20 C    0.975
    41   1 H    1.000 --    20 C    0.968
    42   1 H    0.943 --    21 N    0.895
 ---------------------------------------------------------------------------

           -------------------------------------------------
          | TOTAL ENERGY              -82.918751227025 Eh   |
          | GRADIENT NORM               0.000805636773 Eh/α |
          | HOMO-LUMO GAP               0.474258142225 eV   |
           -------------------------------------------------

 * finished run on 2023/06/21 at 17:17:08.028
