   * xtb version 6.5.1 (579679a) compiled by 'ehlert@majestix' on 2022-07-11
          program call               : /lustre/hpc/kemi/ree/PhD/git/ReactivityQM/dep/xtb-6.5.1/bin/xtb --gfn 1 /lustre/hpc/kemi/ree/PhD/git/ReactivityQM/calculations/R02methylcation/reac01prodN11/conf13/R02methylcation_reac01prodN11_conf13_gfn1.xyz --opt --vfukui --chrg 0 --uhf 0 --alpb DMSO

   ID    Z sym.   atoms
    1    6 C      1, 3, 5, 7-10, 12, 13, 15, 18, 19, 22, 24
    2    8 O      2, 4, 14, 20, 23, 25
    3    7 N      6, 11, 16, 17, 21
    4    1 H      26-42

      * Solvation model:               ALPB
        Solvent                        DMSO
        Solvent mass                       7.8130E+01 g/mol
          :  Hamiltonian                  GFN1-xTB          :
 * total energy  :   -82.8624392 Eh     change       -0.5849188E-10 Eh
 * total energy  :   -82.8757365 Eh     change       -0.1329727E-01 Eh
 * total energy  :   -82.8818191 Eh     change       -0.6082640E-02 Eh
 * total energy  :   -82.8830684 Eh     change       -0.1249256E-02 Eh
 * total energy  :   -82.8837917 Eh     change       -0.7233025E-03 Eh
 * total energy  :   -82.8841596 Eh     change       -0.3679410E-03 Eh
 * total energy  :   -82.8844041 Eh     change       -0.2444309E-03 Eh
 * total energy  :   -82.8845650 Eh     change       -0.1609165E-03 Eh
 * total energy  :   -82.8846755 Eh     change       -0.1104978E-03 Eh
 * total energy  :   -82.8847609 Eh     change       -0.8540264E-04 Eh
 * total energy  :   -82.8868014 Eh     change       -0.3844181E-04 Eh
 * total energy  :   -82.8868017 Eh     change       -0.2831484E-06 Eh
 * total energy  :   -82.8868553 Eh     change       -0.5364032E-04 Eh
 * total energy  :   -82.8868758 Eh     change       -0.2050203E-04 Eh
 * total energy  :   -82.8868876 Eh     change       -0.1183765E-04 Eh
 * total energy  :   -82.8869155 Eh     change       -0.2787826E-04 Eh
 * total energy  :   -82.8869296 Eh     change       -0.1404451E-04 Eh
 * total energy  :   -82.8869373 Eh     change       -0.7778598E-05 Eh
 * total energy  :   -82.8869422 Eh     change       -0.4909813E-05 Eh
   *** GEOMETRY OPTIMIZATION CONVERGED AFTER 50 ITERATIONS ***

 final structure:
================
42
 xtb: 6.5.1 (579679a)
C            6.13140263437436       -0.89030852761404        2.40796938594774
O            5.08846504303311       -0.01743230262977        1.96397389636311
C            4.18846999453565       -0.53954062883100        1.14161073745271
O            4.21375871858378       -1.68885381424264        0.76198371484600
C            3.12157636830277        0.42510683465721        0.72535075842447
N            2.13590539760920       -0.14091256537682        0.02845441342638
C            1.09016252052343        0.55124812990054       -0.36635870571840
C            0.05418454913915       -0.13259991254884       -1.21135636514720
C            0.53830289612161        0.01577484358020       -2.67362318818137
C           -0.04774886741656       -1.62356595710425       -0.83582408819072
N           -1.21721756323382        0.51289910748076       -1.02921549313010
C           -2.43173601776335        0.07536598277323       -1.73936619301449
C           -3.15388262069407        1.41484099900212       -2.18114394668053
O           -2.29189323824917       -0.76316461542522       -2.69334421450768
C           -3.34418043828345       -0.43096934905178       -0.59473631541402
N           -4.09942226541711       -1.47227107300262       -0.60412140149053
N           -4.72571383772257       -1.48886945242555        0.61532839752609
C           -4.31286844551870       -0.45641399145363        1.27376662876699
C           -4.69259192218477       -0.03282414998492        2.63884083940498
O           -3.42603368605864        0.26512389067213        0.55622522244897
N            0.95979069568304        1.86398823337492       -0.08527825020103
C            1.90742273297507        2.61502928323092        0.60361011474604
O            1.73302023509931        3.79714345904613        0.78796962820637
C            3.13358986106588        1.83926338618602        1.05471014199634
O            4.03219383707730        2.42147320852867        1.64215197884432
H            5.70179703661709       -1.76123116675538        2.90815672470778
H            6.72923070265550       -1.22182272675738        1.55604655506118
H            6.74276936442670       -0.31706677494610        3.10168065350187
H           -0.12745691793881       -0.52478602759866       -3.34143348010516
H            1.54430584938231       -0.39007662713723       -2.75987330086564
H            0.54733348332682        1.06883831604583       -2.94504995675683
H            0.94161613631165       -2.07220817531207       -0.90423259015947
H           -0.41967351706906       -1.71824644360297        0.18233424870392
H           -0.72656003015252       -2.12897166505681       -1.51938094782065
H           -1.39174274654205        0.93942639977421       -0.13262953832967
H           -2.52546618632589        1.87913706056016       -2.93511453980325
H           -4.11791848331734        1.14904861021462       -2.60558855427068
H           -3.27607896188585        2.07159860917004       -1.32683578464059
H           -5.14920454159642        0.95620299880001        2.60711281481655
H           -3.80714730549803        0.02555958809428        3.27107932583008
H           -5.39619615114143       -0.74711279489473        3.06013401191105
H            0.14543368719013        2.36791280066510       -0.40398133851069

          :  Hamiltonian                  GFN1-xTB          :
         :: total energy             -82.886942246038 Eh    ::
         :: gradient norm              0.000520706798 Eh/a0 ::
         :: HOMO-LUMO gap              0.078019801889 eV    ::
         :: SCC energy               -83.653223069896 Eh    ::
         :: -> Gsolv                  -0.066978666672 Eh    ::
         :: repulsion energy           0.792627951431 Eh    ::

    * Orbital Energies and Occupations

         #    Occupation            Energy/Eh            Energy/eV
      -------------------------------------------------------------
         1        2.0000           -0.8688999             -23.6440
       ...           ...                  ...                  ...
        55        2.0000           -0.5103672             -13.8878
        56        2.0000           -0.5068227             -13.7913
        57        2.0000           -0.5055833             -13.7576
        58        2.0000           -0.4991268             -13.5819
        59        2.0000           -0.4881759             -13.2839
        60        2.0000           -0.4813229             -13.0975
        61        2.0000           -0.4782033             -13.0126
        62        2.0000           -0.4614989             -12.5580
        63        2.0000           -0.4599168             -12.5150
        64        2.0000           -0.4554861             -12.3944
        65        2.0000           -0.4421390             -12.0312
        66        2.0000           -0.4404049             -11.9840
        67        1.6378           -0.4218977             -11.4804 (HOMO)
        68        0.3622           -0.4190305             -11.4024 (LUMO)
        69                         -0.3251117              -8.8467
        70                         -0.3010181              -8.1911
        71                         -0.2734870              -7.4420
        72                         -0.2549221              -6.9368
        73                         -0.2492568              -6.7826
        74                         -0.1754682              -4.7747
        75                         -0.1431945              -3.8965
        76                         -0.1384944              -3.7686
        77                         -0.1363719              -3.7109
        78                         -0.1319181              -3.5897
       ...                                ...                  ...
       134                          0.7490801              20.3835
      -------------------------------------------------------------
                  HL-Gap            0.0028672 Eh            0.0780 eV

Wiberg/Mayer (AO) data.
largest (>0.10) Wiberg bond orders for each atom

     #   Z sym  total        # sym  WBO       # sym  WBO       # sym  WBO
 ---------------------------------------------------------------------------
     1   6 C    3.866 --    28 H    0.986    26 H    0.978    27 H    0.978
                             2 O    0.893
     2   8 O    2.208 --     3 C    1.128     1 C    0.893     4 O    0.140
     3   6 C    3.846 --     4 O    1.651     2 O    1.128     5 C    0.994
     4   8 O    1.899 --     3 C    1.651     2 O    0.140
     5   6 C    3.750 --     6 N    1.383    24 C    1.115     3 C    0.994
     6   7 N    2.993 --     7 C    1.391     5 C    1.383
     7   6 C    3.824 --     6 N    1.391    21 N    1.237     8 C    1.004
     8   6 C    3.931 --     7 C    1.004    11 N    0.979    10 C    0.943
                             9 C    0.928
     9   6 C    3.959 --    30 H    0.986    31 H    0.985    29 H    0.971
                             8 C    0.928
    10   6 C    3.959 --    33 H    0.985    34 H    0.979    32 H    0.978
                             8 C    0.943
    11   7 N    3.181 --     8 C    0.979    12 C    0.909    35 H    0.898
                            14 O    0.159
    12   6 C    3.879 --    14 O    1.272    11 N    0.909    15 C    0.828
                            13 C    0.806
    13   6 C    3.852 --    38 H    0.987    37 H    0.983    36 H    0.979
                            12 C    0.806
    14   8 O    1.611 --    12 C    1.272    11 N    0.159
    15   6 C    3.764 --    16 N    1.663    20 O    1.056    12 C    0.828
    16   7 N    2.978 --    15 C    1.663    17 N    1.152
    17   7 N    2.980 --    18 C    1.638    16 N    1.152
    18   6 C    3.858 --    17 N    1.638    20 O    1.048    19 C    1.031
    19   6 C    3.985 --    18 C    1.031    41 H    0.982    40 H    0.964
                            39 H    0.963
    20   8 O    2.306 --    15 C    1.056    18 C    1.048
    21   7 N    3.454 --     7 C    1.237    22 C    1.084    42 H    0.872
                            23 O    0.103
    22   6 C    3.837 --    23 O    1.689    21 N    1.084    24 C    0.937
    23   8 O    1.910 --    22 C    1.689    21 N    0.103
    24   6 C    3.853 --    25 O    1.663     5 C    1.115    22 C    0.937
    25   8 O    1.823 --    24 C    1.663
    26   1 H    1.005 --     1 C    0.978
    27   1 H    1.005 --     1 C    0.978
    28   1 H    1.010 --     1 C    0.986
    29   1 H    1.011 --     9 C    0.971
    30   1 H    1.000 --     9 C    0.986
    31   1 H    0.999 --     9 C    0.985
    32   1 H    1.008 --    10 C    0.978
    33   1 H    0.999 --    10 C    0.985
    34   1 H    1.009 --    10 C    0.979
    35   1 H    0.940 --    11 N    0.898
    36   1 H    0.996 --    13 C    0.979
    37   1 H    1.001 --    13 C    0.983
    38   1 H    1.000 --    13 C    0.987
    39   1 H    0.997 --    19 C    0.963
    40   1 H    0.997 --    19 C    0.964
    41   1 H    0.998 --    19 C    0.982
    42   1 H    0.921 --    21 N    0.872
 ---------------------------------------------------------------------------

           -------------------------------------------------
          | TOTAL ENERGY              -82.886942246038 Eh   |
          | GRADIENT NORM               0.000520706798 Eh/α |
          | HOMO-LUMO GAP               0.078019801889 eV   |
           -------------------------------------------------

 * finished run on 2023/06/21 at 17:44:01.321
