   * xtb version 6.5.1 (579679a) compiled by 'ehlert@majestix' on 2022-07-11
          program call               : /lustre/hpc/kemi/ree/PhD/git/ReactivityQM/dep/xtb-6.5.1/bin/xtb --gfn 1 /lustre/hpc/kemi/ree/PhD/git/ReactivityQM/calculations/R02methylcation/reac01prodE09/conf12/R02methylcation_reac01prodE09_conf12_gfn1.xyz --opt --vfukui --chrg -2 --uhf 0 --alpb DMSO

   ID    Z sym.   atoms
    1    6 C      1, 3, 5, 7-10, 12, 14, 16, 17, 20, 22, 24
    2    8 O      2, 4, 13, 15, 23, 25
    3    7 N      6, 11, 18, 19, 21
    4    1 H      26-42

      * Solvation model:               ALPB
        Solvent                        DMSO
        Solvent mass                       7.8130E+01 g/mol
          :  Hamiltonian                  GFN1-xTB          :
 * total energy  :   -83.5939039 Eh     change       -0.3694822E-11 Eh
 * total energy  :   -83.6087370 Eh     change       -0.1483312E-01 Eh
 * total energy  :   -83.6140030 Eh     change       -0.5266028E-02 Eh
 * total energy  :   -83.6154062 Eh     change       -0.1403142E-02 Eh
 * total energy  :   -83.6182691 Eh     change       -0.2862871E-02 Eh
 * total energy  :   -83.6201946 Eh     change       -0.1925575E-02 Eh
 * total energy  :   -83.6230078 Eh     change       -0.2813160E-02 Eh
 * total energy  :   -83.6254352 Eh     change       -0.2427405E-02 Eh
 * total energy  :   -83.6269148 Eh     change       -0.1479607E-02 Eh
 * total energy  :   -83.6278445 Eh     change       -0.9297354E-03 Eh
 * total energy  :   -83.6319513 Eh     change       -0.9920816E-05 Eh
 * total energy  :   -83.6319660 Eh     change       -0.1469476E-04 Eh
 * total energy  :   -83.6319770 Eh     change       -0.1106884E-04 Eh
 * total energy  :   -83.6319851 Eh     change       -0.8108832E-05 Eh
 * total energy  :   -83.6319932 Eh     change       -0.8061667E-05 Eh
 * total energy  :   -83.6320006 Eh     change       -0.7446991E-05 Eh
 * total energy  :   -83.6320075 Eh     change       -0.6884588E-05 Eh
 * total energy  :   -83.6320136 Eh     change       -0.6027058E-05 Eh
 * total energy  :   -83.6320179 Eh     change       -0.4317439E-05 Eh
   *** GEOMETRY OPTIMIZATION CONVERGED AFTER 58 ITERATIONS ***

 final structure:
================
42
 xtb: 6.5.1 (579679a)
C            4.44502864648789       -2.30026046627346       -3.32218913085228
O            4.30922819739843       -1.19316506750151       -2.44640986067658
C            3.16610903276668       -1.16049376935392       -1.70632959416855
O            2.33299124090973       -2.05350731770753       -1.82212200669653
C            3.05593205539067       -0.02336337078564       -0.80838130889565
N            1.87286804225025       -0.01845536329135       -0.08805159655893
C            1.62966949589091        0.89597354991788        0.77511124216857
C            0.35939783952802        0.87932667693527        1.61431161567573
C            0.75978785546995        0.52916709044545        3.05863226226135
C           -0.32885650733523        2.25784622329020        1.56946691044158
N           -0.49965518419848       -0.16448085421311        1.06024457439088
C           -1.87068158296513       -0.21807689257333        1.52936511826472
O           -2.13586059168169       -0.00159430011734        2.75782224168307
C           -2.80854817879899       -0.43328262754591        0.55950512021756
O           -2.51534268377549       -0.79451173013587       -0.79169568702510
C           -3.65211708799089       -1.32287606002592       -1.25306598615574
C           -3.69483954318076       -1.79678767521620       -2.66633944739763
N           -4.64298274036877       -1.38501264156986       -0.44660570477954
N           -4.19754549768535       -0.83591284950244        0.81118756647145
C           -5.05651267930753        0.31672533328856        1.12480686317748
N            2.54636865403933        1.90367303968167        1.02538956141423
C            3.74300685540027        2.03227101171102        0.37651976194703
O            4.48962124571967        2.97279139895598        0.65386615694828
C            4.05687578661311        0.96854014150129       -0.64867415828221
O            5.14505168961258        1.03055916284705       -1.25742724492196
H            5.40101629694037       -2.19012151810938       -3.83270438941889
H            4.43188605739981       -3.24313694020943       -2.76535883374008
H            3.63494457306569       -2.31715513579990       -4.05864732421692
H            1.19366170954435       -0.47089610001012        3.08854521304537
H            1.49421494596356        1.24449938193800        3.42671253597468
H           -0.11217655804951        0.55587373411930        3.71021720777406
H           -1.23053754240131        2.23849044041860        2.18060114519773
H            0.32991571445069        3.03204464246884        1.95902717496097
H           -0.59927580702866        2.50970117829966        0.54430542997283
H           -0.48414814705040       -0.10370100766701        0.04228244699307
H           -3.40714890525514       -0.98875941254765       -3.33814355977901
H           -3.00020962134615       -2.62408351824601       -2.81306442933169
H           -4.70155876925078       -2.12718086765201       -2.90990400945742
H           -6.08299201499613       -0.03111613643588        1.23533744845693
H           -5.01095492496278        1.07971297133537        0.34076580672084
H           -4.70688362653485        0.73683199781147        2.06751698920958
H            2.34124925934816        2.61390664751916        1.70880087898573

          :  Hamiltonian                  GFN1-xTB          :
         :: total energy             -83.632017871587 Eh    ::
         :: gradient norm              0.000444662167 Eh/a0 ::
         :: HOMO-LUMO gap              0.717334939355 eV    ::
         :: SCC energy               -84.373950573861 Eh    ::
         :: -> Gsolv                  -0.268677002176 Eh    ::
         :: repulsion energy           0.767402043179 Eh    ::

    * Orbital Energies and Occupations

         #    Occupation            Energy/Eh            Energy/eV
      -------------------------------------------------------------
         1        2.0000           -0.7903976             -21.5078
       ...           ...                  ...                  ...
        56        2.0000           -0.4462399             -12.1428
        57        2.0000           -0.4414371             -12.0121
        58        2.0000           -0.4269682             -11.6184
        59        2.0000           -0.4253954             -11.5756
        60        2.0000           -0.4176155             -11.3639
        61        2.0000           -0.4100116             -11.1570
        62        2.0000           -0.4004947             -10.8980
        63        2.0000           -0.3805343             -10.3549
        64        2.0000           -0.3745255             -10.1914
        65        2.0000           -0.3671319              -9.9902
        66        2.0000           -0.3546673              -9.6510
        67        2.0000           -0.3525293              -9.5928
        68        2.0000           -0.2864153              -7.7938 (HOMO)
        69        0.0000           -0.2600537              -7.0764 (LUMO)
        70                         -0.2212583              -6.0207
        71                         -0.2045758              -5.5668
        72                         -0.1870243              -5.0892
        73                         -0.1282341              -3.4894
        74                         -0.1205092              -3.2792
        75                         -0.1181199              -3.2142
        76                         -0.1069466              -2.9102
        77                         -0.0985144              -2.6807
        78                         -0.0918627              -2.4997
        79                         -0.0873315              -2.3764
       ...                                ...                  ...
       134                          0.7579309              20.6243
      -------------------------------------------------------------
                  HL-Gap            0.0263616 Eh            0.7173 eV

Wiberg/Mayer (AO) data.
largest (>0.10) Wiberg bond orders for each atom

     #   Z sym  total        # sym  WBO       # sym  WBO       # sym  WBO
 ---------------------------------------------------------------------------
     1   6 C    3.903 --    26 H    0.987    27 H    0.980    28 H    0.980
                             2 O    0.930
     2   8 O    2.153 --     3 C    1.036     1 C    0.930     4 O    0.107
     3   6 C    3.848 --     4 O    1.571     5 C    1.123     2 O    1.036
     4   8 O    1.847 --     3 C    1.571     2 O    0.107
     5   6 C    3.920 --    24 C    1.279     6 N    1.147     3 C    1.123
                            25 O    0.131
     6   7 N    3.027 --     7 C    1.642     5 C    1.147
     7   6 C    3.923 --     6 N    1.642    21 N    1.083     8 C    0.976
     8   6 C    3.969 --     9 C    0.982    10 C    0.980     7 C    0.976
                            11 N    0.973
     9   6 C    3.993 --    30 H    0.987    29 H    0.987     8 C    0.982
                            31 H    0.976
    10   6 C    3.994 --    34 H    0.987    33 H    0.983    32 H    0.980
                             8 C    0.980
    11   7 N    3.073 --     8 C    0.973    12 C    0.966    35 H    0.937
    12   6 C    3.934 --    14 C    1.512    13 O    1.329    11 N    0.966
    13   8 O    1.693 --    12 C    1.329    14 C    0.169
    14   6 C    3.651 --    12 C    1.512    19 N    0.946    15 O    0.872
                            13 O    0.169
    15   8 O    2.192 --    16 C    1.091    14 C    0.872    18 N    0.134
    16   6 C    3.907 --    18 N    1.706    15 O    1.091    17 C    1.013
    17   6 C    3.995 --    16 C    1.013    38 H    0.987    36 H    0.974
                            37 H    0.972
    18   7 N    2.945 --    16 C    1.706    19 N    0.986    15 O    0.134
    19   7 N    3.060 --    18 N    0.986    20 C    0.970    14 C    0.946
    20   6 C    3.981 --    39 H    0.989    41 H    0.986    40 H    0.983
                            19 N    0.970
    21   7 N    3.425 --    22 C    1.174     7 C    1.083    42 H    0.899
                            23 O    0.136
    22   6 C    3.882 --    23 O    1.561    21 N    1.174    24 C    0.973
    23   8 O    1.843 --    22 C    1.561    21 N    0.136
    24   6 C    3.945 --    25 O    1.504     5 C    1.279    22 C    0.973
    25   8 O    1.810 --    24 C    1.504     5 C    0.131
    26   1 H    1.016 --     1 C    0.987
    27   1 H    1.015 --     1 C    0.980
    28   1 H    1.015 --     1 C    0.980
    29   1 H    1.014 --     9 C    0.987
    30   1 H    1.006 --     9 C    0.987
    31   1 H    1.032 --     9 C    0.976
    32   1 H    1.017 --    10 C    0.980
    33   1 H    1.005 --    10 C    0.983
    34   1 H    1.006 --    10 C    0.987
    35   1 H    0.994 --    11 N    0.937
    36   1 H    1.004 --    17 C    0.974
    37   1 H    1.004 --    17 C    0.972
    38   1 H    1.007 --    17 C    0.987
    39   1 H    1.026 --    20 C    0.989
    40   1 H    1.022 --    20 C    0.983
    41   1 H    1.034 --    20 C    0.986
    42   1 H    0.955 --    21 N    0.899
 ---------------------------------------------------------------------------

           -------------------------------------------------
          | TOTAL ENERGY              -83.632017871587 Eh   |
          | GRADIENT NORM               0.000444662167 Eh/α |
          | HOMO-LUMO GAP               0.717334939355 eV   |
           -------------------------------------------------

 * finished run on 2023/06/21 at 17:18:51.367
