   * xtb version 6.5.1 (579679a) compiled by 'ehlert@majestix' on 2022-07-11
          program call               : /lustre/hpc/kemi/ree/PhD/git/ReactivityQM/dep/xtb-6.5.1/bin/xtb --gfn 1 /lustre/hpc/kemi/ree/PhD/git/ReactivityQM/calculations/R01/reac02/conf09/R01_reac02_conf09_gfn1.xyz --opt --vfukui --chrg 0 --uhf 0 --alpb DMSO

   ID    Z sym.   atoms
    1    6 C      1, 3, 5, 7-10, 13, 15
    2    8 O      2, 4, 14, 16
    3    7 N      6, 11, 12
    4    1 H      17-29

      * Solvation model:               ALPB
        Solvent                        DMSO
        Solvent mass                       7.8130E+01 g/mol
          :  Hamiltonian                  GFN1-xTB          :
 * total energy  :   -54.4992331 Eh     change       -0.5194067E-11 Eh
 * total energy  :   -54.5062958 Eh     change       -0.7062652E-02 Eh
 * total energy  :   -54.5083603 Eh     change       -0.2064577E-02 Eh
 * total energy  :   -54.5086137 Eh     change       -0.2533128E-03 Eh
 * total energy  :   -54.5087688 Eh     change       -0.1551822E-03 Eh
 * total energy  :   -54.5088139 Eh     change       -0.4502296E-04 Eh
 * total energy  :   -54.5088409 Eh     change       -0.2700530E-04 Eh
 * total energy  :   -54.5088556 Eh     change       -0.1469110E-04 Eh
 * total energy  :   -54.5088621 Eh     change       -0.6521337E-05 Eh
 * total energy  :   -54.5088661 Eh     change       -0.4002789E-05 Eh
   *** GEOMETRY OPTIMIZATION CONVERGED AFTER 10 ITERATIONS ***

 final structure:
================
29
 xtb: 6.5.1 (579679a)
C            4.79878681008066        0.27217898642159       -0.83512807041817
O            3.63783938369974       -0.08064859300986       -0.06872491678322
C            2.45389429787883        0.17022452970637       -0.64830208694273
O            2.35911094720061        0.66126044311877       -1.74754169663142
C            1.28951705252076       -0.20927538028933        0.19967399489028
N            0.08519313031012        0.04851742468603       -0.40616292934977
C           -1.01920843714970       -0.21812982108721        0.20909703978170
C           -2.32232250496143        0.09777584598947       -0.51073894822937
C           -3.53797647210682       -0.57956565962041        0.11989428751885
C           -2.49733130053236        1.62448665545079       -0.52027497165274
N           -2.20215135514402       -0.35833535458504       -1.89181076635155
N           -1.02388188711800       -0.74578539013689        1.46530619513733
C            0.11434163272824       -1.05811345403584        2.18195093800811
O            0.03698710268865       -1.53209911076215        3.30329357022734
C            1.35345158909847       -0.75454136460451        1.45799447410638
O            2.47106156252797       -1.04984721572038        2.13449859426718
H            4.79153921794278        1.34344044820443       -1.04788156443661
H            4.80741781316764       -0.28601121079854       -1.77377845400273
H            5.66356290812928        0.01160828623691       -0.22974220611946
H           -3.38115833093903       -1.65439823959228        0.19843353118027
H           -3.74173087841443       -0.17338996721102        1.10945457510775
H           -4.40826223133875       -0.40230917911117       -0.51106272152446
H           -2.63269710745179        1.99629469996291        0.49418361230792
H           -1.61599914467583        2.09469153552573       -0.95555270571917
H           -3.37068317044412        1.88390935527596       -1.11705504130665
H           -2.16636633257111       -1.36911071164985       -1.90473739620474
H           -1.32424043679564       -0.01519409142703       -2.27093425046204
H           -1.89612986385662       -0.93900129632871        1.93369361940274
H            3.27743800552621       -0.84093717060849        1.63195529419890

          :  Hamiltonian                  GFN1-xTB          :
         :: total energy             -54.508866083523 Eh    ::
         :: gradient norm              0.000576699158 Eh/a0 ::
         :: HOMO-LUMO gap              2.467507494038 eV    ::
         :: SCC energy               -55.034109107715 Eh    ::
         :: -> Gsolv                  -0.040816876282 Eh    ::
         :: repulsion energy           0.541301764754 Eh    ::

    * Orbital Energies and Occupations

         #    Occupation            Energy/Eh            Energy/eV
      -------------------------------------------------------------
         1        2.0000           -0.8429482             -22.9378
       ...           ...                  ...                  ...
        32        2.0000           -0.5150339             -14.0148
        33        2.0000           -0.5143682             -13.9967
        34        2.0000           -0.5099640             -13.8768
        35        2.0000           -0.5018174             -13.6551
        36        2.0000           -0.4985799             -13.5670
        37        2.0000           -0.4929179             -13.4130
        38        2.0000           -0.4855409             -13.2122
        39        2.0000           -0.4836047             -13.1596
        40        2.0000           -0.4827103             -13.1352
        41        2.0000           -0.4583457             -12.4722
        42        2.0000           -0.4439094             -12.0794
        43        2.0000           -0.4265915             -11.6081
        44        2.0000           -0.4121604             -11.2155 (HOMO)
        45                         -0.3214811              -8.7479 (LUMO)
        46                         -0.2772519              -7.5444
        47                         -0.2385833              -6.4922
        48                         -0.1555647              -4.2331
        49                         -0.1372950              -3.7360
        50                         -0.1365913              -3.7168
        51                         -0.1235792              -3.3628
        52                         -0.1018355              -2.7711
        53                         -0.0943638              -2.5678
        54                         -0.0891921              -2.4270
        55                         -0.0726269              -1.9763
       ...                                ...                  ...
        90                          0.7336692              19.9642
      -------------------------------------------------------------
                  HL-Gap            0.0906792 Eh            2.4675 eV

Wiberg/Mayer (AO) data.
largest (>0.10) Wiberg bond orders for each atom

     #   Z sym  total        # sym  WBO       # sym  WBO       # sym  WBO
 ---------------------------------------------------------------------------
     1   6 C    3.862 --    19 H    0.986    17 H    0.980    18 H    0.980
                             2 O    0.886
     2   8 O    2.202 --     3 C    1.085     1 C    0.886     4 O    0.129
     3   6 C    3.845 --     4 O    1.672     2 O    1.085     5 C    1.006
     4   8 O    1.932 --     3 C    1.672     2 O    0.129
     5   6 C    3.965 --    15 C    1.497     6 N    1.182     3 C    1.006
     6   7 N    3.030 --     7 C    1.577     5 C    1.182
     7   6 C    3.918 --     6 N    1.577    12 N    1.172     8 C    0.968
     8   6 C    3.969 --     9 C    1.002    11 N    0.986    10 C    0.979
                             7 C    0.968
     9   6 C    3.994 --     8 C    1.002    20 H    0.984    21 H    0.983
                            22 H    0.982
    10   6 C    3.994 --    23 H    0.987    24 H    0.984    25 H    0.984
                             8 C    0.979
    11   7 N    2.957 --     8 C    0.986    26 H    0.944    27 H    0.938
    12   7 N    3.462 --     7 C    1.172    13 C    1.123    28 H    0.884
                            14 O    0.134
    13   6 C    3.910 --    14 O    1.592    12 N    1.123    15 C    1.061
    14   8 O    1.889 --    13 C    1.592    12 N    0.134
    15   6 C    3.919 --     5 C    1.497    16 O    1.104    13 C    1.061
    16   8 O    2.083 --    15 C    1.104    29 H    0.801
    17   1 H    1.007 --     1 C    0.980
    18   1 H    1.007 --     1 C    0.980
    19   1 H    1.009 --     1 C    0.986
    20   1 H    0.999 --     9 C    0.984
    21   1 H    1.000 --     9 C    0.983
    22   1 H    1.003 --     9 C    0.982
    23   1 H    1.003 --    10 C    0.987
    24   1 H    1.006 --    10 C    0.984
    25   1 H    1.005 --    10 C    0.984
    26   1 H    0.960 --    11 N    0.944
    27   1 H    0.971 --    11 N    0.938
    28   1 H    0.934 --    12 N    0.884
    29   1 H    0.854 --    16 O    0.801
 ---------------------------------------------------------------------------

           -------------------------------------------------
          | TOTAL ENERGY              -54.508866083523 Eh   |
          | GRADIENT NORM               0.000576699158 Eh/α |
          | HOMO-LUMO GAP               2.467507494038 eV   |
           -------------------------------------------------

 * finished run on 2023/06/20 at 14:51:56.376
