   * xtb version 6.5.1 (579679a) compiled by 'ehlert@majestix' on 2022-07-11
          program call               : /lustre/hpc/kemi/ree/PhD/git/ReactivityQM/dep/xtb-6.5.1/bin/xtb --gfn 1 /lustre/hpc/kemi/ree/PhD/git/ReactivityQM/calculations/R01/reac02prodN05/conf05/R01_reac02prodN05_conf05_gfn1.xyz --opt --vfukui --chrg 1 --uhf 0 --alpb DMSO

   ID    Z sym.   atoms
    1    6 C      1, 3, 4, 6, 8-11, 14, 16
    2    8 O      2, 5, 15, 17
    3    7 N      7, 12, 13
    4    1 H      18-33

      * Solvation model:               ALPB
        Solvent                        DMSO
        Solvent mass                       7.8130E+01 g/mol
          :  Hamiltonian                  GFN1-xTB          :
 * total energy  :   -57.7051522 Eh     change       -0.1096296E-09 Eh
 * total energy  :   -57.7203999 Eh     change       -0.1524765E-01 Eh
 * total energy  :   -57.7273625 Eh     change       -0.6962675E-02 Eh
 * total energy  :   -57.7290714 Eh     change       -0.1708869E-02 Eh
 * total energy  :   -57.7306462 Eh     change       -0.1574766E-02 Eh
 * total energy  :   -57.7316992 Eh     change       -0.1053074E-02 Eh
 * total energy  :   -57.7327965 Eh     change       -0.1097238E-02 Eh
 * total energy  :   -57.7340796 Eh     change       -0.1283093E-02 Eh
 * total energy  :   -57.7356839 Eh     change       -0.1604316E-02 Eh
 * total energy  :   -57.7375144 Eh     change       -0.1830533E-02 Eh
 * total energy  :   -57.8149920 Eh     change       -0.8580872E-04 Eh
 * total energy  :   -57.8150194 Eh     change       -0.2745277E-04 Eh
 * total energy  :   -57.8150498 Eh     change       -0.3040304E-04 Eh
 * total energy  :   -57.8150786 Eh     change       -0.2874391E-04 Eh
 * total energy  :   -57.8150951 Eh     change       -0.1649874E-04 Eh
 * total energy  :   -57.8151056 Eh     change       -0.1053290E-04 Eh
 * total energy  :   -57.8151141 Eh     change       -0.8486871E-05 Eh
 * total energy  :   -57.8151231 Eh     change       -0.9014977E-05 Eh
 * total energy  :   -57.8151280 Eh     change       -0.4901043E-05 Eh
   *** GEOMETRY OPTIMIZATION CONVERGED AFTER 68 ITERATIONS ***

 final structure:
================
33
 xtb: 6.5.1 (579679a)
C            4.18561187982222       -0.87432366449075        1.04411666492964
O            3.21186673829774       -0.19015321632277        0.21694555367559
C            1.95685201175808       -0.40899385431447        0.38666968367394
C            1.88079746273460        1.83902164343034       -0.89571232675163
O            1.38828183149734       -1.14407969139491        1.12475953489008
C            1.10005967082587        0.55167995342830       -0.64463429296529
N           -0.11648190498713        0.78992228186187        0.04755286213831
C           -1.10509286308712       -0.01387335198513       -0.05535223174344
C           -2.35246461204969        0.22832692730717        0.77843936867629
C           -3.57344739262947        0.38983926332325       -0.13478468634834
C           -2.53675334138395       -0.94646284633587        1.74898237626669
N           -2.18062783072062        1.44637014726973        1.54698726634596
N           -1.10052448594054       -1.11086462853557       -0.90733217417539
C           -0.12939100754991       -1.35038175033069       -1.82147162980783
O           -0.13527028993090       -2.23083820005209       -2.65285452918778
C            1.00781393716342       -0.38638301476019       -1.74378230474809
O            1.93536173529253       -0.49882059869054       -2.61554062299909
H            4.88532794172304       -1.36026908274385        0.36618400976507
H            4.69388881740053       -0.11714065403524        1.63974729488110
H            3.68593642698766       -1.60301039025761        1.68162497336398
H            2.80397069702272        1.62186402890565       -1.42724376507434
H            2.10428450174189        2.32098442982119        0.05281513926646
H            1.26135666008936        2.50197940910533       -1.49672915600911
H           -3.77323964004408       -0.53012870324792       -0.68048417253458
H           -3.40329572107185        1.19426925437436       -0.84889042357284
H           -4.44167463701725        0.63505069448805        0.47552580759896
H           -3.36851793919584       -0.72627828877579        2.41668358876292
H           -2.75056097677756       -1.86449372928729        1.20515044020758
H           -1.63301044368619       -1.08786902409150        2.34057384177897
H           -1.34524696325350        1.36550141197314        2.11366522502717
H           -2.04219145257433        2.22258889254741        0.91268413323265
H           -1.89445728496607       -1.73815910860098       -0.92778581516785
H            1.78084347450838       -1.23857353958276       -3.24650963339665

          :  Hamiltonian                  GFN1-xTB          :
         :: total energy             -57.815128027595 Eh    ::
         :: gradient norm              0.000730639513 Eh/a0 ::
         :: HOMO-LUMO gap              0.257182222959 eV    ::
         :: SCC energy               -58.395434064872 Eh    ::
         :: -> Gsolv                  -0.095887814376 Eh    ::
         :: repulsion energy           0.600060675860 Eh    ::

    * Orbital Energies and Occupations

         #    Occupation            Energy/Eh            Energy/eV
      -------------------------------------------------------------
         1        2.0000           -0.9128061             -24.8387
       ...           ...                  ...                  ...
        35        2.0000           -0.5528516             -15.0439
        36        2.0000           -0.5472921             -14.8926
        37        2.0000           -0.5385521             -14.6547
        38        2.0000           -0.5295716             -14.4104
        39        2.0000           -0.5260387             -14.3142
        40        2.0000           -0.5237656             -14.2524
        41        2.0000           -0.5230075             -14.2318
        42        2.0000           -0.5114390             -13.9170
        43        2.0000           -0.5042299             -13.7208
        44        2.0000           -0.5018677             -13.6565
        45        2.0000           -0.4896359             -13.3237
        46        2.0000           -0.4850757             -13.1996
        47        1.9863           -0.4302145             -11.7067 (HOMO)
        48        0.0137           -0.4207632             -11.4496 (LUMO)
        49                         -0.3291252              -8.9560
        50                         -0.3033481              -8.2545
        51                         -0.2627031              -7.1485
        52                         -0.1648976              -4.4871
        53                         -0.1564051              -4.2560
        54                         -0.1518244              -4.1314
        55                         -0.1486636              -4.0453
        56                         -0.1343456              -3.6557
        57                         -0.1240305              -3.3750
        58                         -0.1106182              -3.0101
       ...                                ...                  ...
       100                          0.7564555              20.5842
      -------------------------------------------------------------
                  HL-Gap            0.0094513 Eh            0.2572 eV

Wiberg/Mayer (AO) data.
largest (>0.10) Wiberg bond orders for each atom

     #   Z sym  total        # sym  WBO       # sym  WBO       # sym  WBO
 ---------------------------------------------------------------------------
     1   6 C    3.810 --    20 H    0.981    19 H    0.976    18 H    0.975
                             2 O    0.830
     2   8 O    2.274 --     3 C    1.233     1 C    0.830     5 O    0.150
     3   6 C    3.856 --     5 O    1.746     2 O    1.233     6 C    0.676
     4   6 C    3.969 --    21 H    0.981    22 H    0.981    23 H    0.974
                             6 C    0.963
     5   8 O    2.076 --     3 C    1.746     2 O    0.150
     6   6 C    3.955 --    16 C    1.108     7 N    1.029     4 C    0.963
                             3 C    0.676
     7   7 N    3.032 --     8 C    1.689     6 C    1.029
     8   6 C    3.893 --     7 N    1.689    13 N    1.086     9 C    0.967
     9   6 C    3.964 --    12 N    1.002    10 C    0.982    11 C    0.977
                             8 C    0.967
    10   6 C    3.991 --    25 H    0.984    24 H    0.983     9 C    0.982
                            26 H    0.981
    11   6 C    3.991 --    29 H    0.984    28 H    0.984    27 H    0.981
                             9 C    0.977
    12   7 N    2.952 --     9 C    1.002    31 H    0.939    30 H    0.938
    13   7 N    3.478 --    14 C    1.204     8 C    1.086    32 H    0.868
                            15 O    0.168
    14   6 C    3.921 --    15 O    1.631    13 N    1.204    16 C    0.976
    15   8 O    1.968 --    14 C    1.631    13 N    0.168
    16   6 C    3.799 --    17 O    1.348     6 C    1.108    14 C    0.976
    17   8 O    2.271 --    16 C    1.348    33 H    0.745
    18   1 H    1.000 --     1 C    0.975
    19   1 H    0.999 --     1 C    0.976
    20   1 H    0.998 --     1 C    0.981
    21   1 H    1.000 --     4 C    0.981
    22   1 H    0.997 --     4 C    0.981
    23   1 H    0.995 --     4 C    0.974
    24   1 H    0.999 --    10 C    0.983
    25   1 H    0.999 --    10 C    0.984
    26   1 H    1.001 --    10 C    0.981
    27   1 H    1.001 --    11 C    0.981
    28   1 H    0.999 --    11 C    0.984
    29   1 H    1.000 --    11 C    0.984
    30   1 H    0.961 --    12 N    0.938
    31   1 H    0.959 --    12 N    0.939
    32   1 H    0.914 --    13 N    0.868
    33   1 H    0.789 --    17 O    0.745
 ---------------------------------------------------------------------------

           -------------------------------------------------
          | TOTAL ENERGY              -57.815128027595 Eh   |
          | GRADIENT NORM               0.000730639513 Eh/α |
          | HOMO-LUMO GAP               0.257182222959 eV   |
           -------------------------------------------------

 * finished run on 2023/06/20 at 15:06:34.553
