   * xtb version 6.5.1 (579679a) compiled by 'ehlert@majestix' on 2022-07-11
          program call               : /lustre/hpc/kemi/ree/PhD/git/ReactivityQM/dep/xtb-6.5.1/bin/xtb --gfn 1 /lustre/hpc/kemi/ree/PhD/git/ReactivityQM/calculations/R01/reac01prodE04/conf12/R01_reac01prodE04_conf12_gfn1.xyz --opt --vfukui --chrg -1 --uhf 0 --alpb DMSO

   ID    Z sym.   atoms
    1    6 C      1, 3, 5, 7, 8, 11
    2    8 O      2, 4, 6
    3    7 N      9, 10
    4    1 H      12-20

      * Solvation model:               ALPB
        Solvent                        DMSO
        Solvent mass                       7.8130E+01 g/mol
          :  Hamiltonian                  GFN1-xTB          :
 * total energy  :   -38.2886981 Eh     change       -0.5421441E-11 Eh
 * total energy  :   -38.3027449 Eh     change       -0.1404683E-01 Eh
 * total energy  :   -38.3060352 Eh     change       -0.3290276E-02 Eh
 * total energy  :   -38.3065547 Eh     change       -0.5195606E-03 Eh
 * total energy  :   -38.3067909 Eh     change       -0.2361182E-03 Eh
 * total energy  :   -38.3068777 Eh     change       -0.8683225E-04 Eh
 * total energy  :   -38.3078900 Eh     change       -0.1012290E-02 Eh
 * total energy  :   -38.3095441 Eh     change       -0.1654064E-02 Eh
 * total energy  :   -38.3101994 Eh     change       -0.6553307E-03 Eh
 * total energy  :   -38.3147801 Eh     change       -0.4580732E-02 Eh
 * total energy  :   -38.3244559 Eh     change       -0.8752722E-04 Eh
 * total energy  :   -38.3245527 Eh     change       -0.9681926E-04 Eh
 * total energy  :   -38.3246172 Eh     change       -0.6450444E-04 Eh
 * total energy  :   -38.3247009 Eh     change       -0.8370783E-04 Eh
 * total energy  :   -38.3247281 Eh     change       -0.2721093E-04 Eh
 * total energy  :   -38.3247547 Eh     change       -0.2662687E-04 Eh
 * total energy  :   -38.3247638 Eh     change       -0.9092631E-05 Eh
 * total energy  :   -38.3247701 Eh     change       -0.6244244E-05 Eh
 * total energy  :   -38.3247750 Eh     change       -0.4898870E-05 Eh
   *** GEOMETRY OPTIMIZATION CONVERGED AFTER 36 ITERATIONS ***

 final structure:
================
20
 xtb: 6.5.1 (579679a)
C           -3.59193139812102        0.10069006476458        0.30362008808736
O           -2.21538728572763        0.39620773692905        0.21126178501628
C           -1.38902724307597       -0.73941227653469       -0.07310557968424
O           -1.93154204935140       -1.86849696168764       -0.16674043386456
C           -0.11470454528987       -0.35142136828614       -0.40538836926440
O            0.95748720218072       -1.29402500087036       -0.49683079039166
C            2.04627868010654       -0.60144928100017       -0.15478742423711
C            3.35516976329661       -1.31447261570230       -0.12616069018232
N            1.89337852586446        0.63625168432853        0.12701678004535
N            0.48720795518976        0.93047235415729       -0.02333343144660
C            0.36800957594190        1.93477499512577       -1.09302006363725
H           -3.79981459076250       -0.61626937035705        1.11025268982504
H           -4.11406603552688        1.03603053077085        0.51765292812360
H           -3.97891604348545       -0.31737762919580       -0.63576823673172
H            4.16194692125966       -0.60010149510053        0.02267320550841
H            3.36874036916651       -2.04563887313609        0.68315373509213
H            3.50761220724758       -1.84646481851944       -1.06474366969306
H            0.89494046903600        2.83722067300065       -0.78524385513252
H            0.78543037464636        1.56934978920718       -2.03709073387616
H           -0.69081285259519        2.15413186210611       -1.22245493355695

          :  Hamiltonian                  GFN1-xTB          :
         :: total energy             -38.324774961242 Eh    ::
         :: gradient norm              0.000997849274 Eh/a0 ::
         :: HOMO-LUMO gap              2.440258912602 eV    ::
         :: SCC energy               -38.638717010179 Eh    ::
         :: -> Gsolv                  -0.102660262661 Eh    ::
         :: repulsion energy           0.322372370341 Eh    ::

    * Orbital Energies and Occupations

         #    Occupation            Energy/Eh            Energy/eV
      -------------------------------------------------------------
         1        2.0000           -0.7806187             -21.2417
       ...           ...                  ...                  ...
        19        2.0000           -0.5082084             -13.8291
        20        2.0000           -0.5035768             -13.7030
        21        2.0000           -0.4890769             -13.3085
        22        2.0000           -0.4833301             -13.1521
        23        2.0000           -0.4753779             -12.9357
        24        2.0000           -0.4680808             -12.7371
        25        2.0000           -0.4521980             -12.3049
        26        2.0000           -0.4256790             -11.5833
        27        2.0000           -0.4212347             -11.4624
        28        2.0000           -0.4156949             -11.3116
        29        2.0000           -0.3880393             -10.5591
        30        2.0000           -0.3850359             -10.4774
        31        2.0000           -0.2983449              -8.1184 (HOMO)
        32                         -0.2086670              -5.6781 (LUMO)
        33                         -0.1404016              -3.8205
        34                         -0.1234667              -3.3597
        35                         -0.1058370              -2.8800
        36                         -0.0931324              -2.5343
        37                         -0.0571141              -1.5542
        38                         -0.0560184              -1.5243
        39                         -0.0451069              -1.2274
        40                         -0.0423451              -1.1523
        41                         -0.0419808              -1.1424
        42                         -0.0374363              -1.0187
       ...                                ...                  ...
        62                          0.6983399              19.0028
      -------------------------------------------------------------
                  HL-Gap            0.0896779 Eh            2.4403 eV

Wiberg/Mayer (AO) data.
largest (>0.10) Wiberg bond orders for each atom

     #   Z sym  total        # sym  WBO       # sym  WBO       # sym  WBO
 ---------------------------------------------------------------------------
     1   6 C    3.923 --    13 H    0.986    14 H    0.981    12 H    0.980
                             2 O    0.957
     2   8 O    2.029 --     1 C    0.957     3 C    0.887
     3   6 C    3.879 --     5 C    1.484     4 O    1.393     2 O    0.887
     4   8 O    1.720 --     3 C    1.393     5 C    0.173
     5   6 C    3.630 --     3 C    1.484    10 N    0.950     6 O    0.875
                             4 O    0.173
     6   8 O    2.186 --     7 C    1.096     5 C    0.875     9 N    0.135
     7   6 C    3.908 --     9 N    1.708     6 O    1.096     8 C    1.014
     8   6 C    3.995 --     7 C    1.014    15 H    0.987    17 H    0.975
                            16 H    0.971
     9   7 N    2.944 --     7 C    1.708    10 N    0.983     6 O    0.135
    10   7 N    3.057 --     9 N    0.983    11 C    0.970     5 C    0.950
    11   6 C    3.982 --    18 H    0.989    20 H    0.987    19 H    0.983
                            10 N    0.970
    12   1 H    1.024 --     1 C    0.980
    13   1 H    1.021 --     1 C    0.986
    14   1 H    1.022 --     1 C    0.981
    15   1 H    1.006 --     8 C    0.987
    16   1 H    1.004 --     8 C    0.971
    17   1 H    1.003 --     8 C    0.975
    18   1 H    1.024 --    11 C    0.989
    19   1 H    1.021 --    11 C    0.983
    20   1 H    1.032 --    11 C    0.987
 ---------------------------------------------------------------------------

           -------------------------------------------------
          | TOTAL ENERGY              -38.324774961242 Eh   |
          | GRADIENT NORM               0.000997849274 Eh/α |
          | HOMO-LUMO GAP               2.440258912602 eV   |
           -------------------------------------------------

 * finished run on 2023/06/20 at 14:53:37.574
