   * xtb version 6.5.1 (579679a) compiled by 'ehlert@majestix' on 2022-07-11
          program call               : /lustre/hpc/kemi/ree/PhD/git/ReactivityQM/dep/xtb-6.5.1/bin/xtb --gfn 1 /lustre/hpc/kemi/ree/PhD/git/ReactivityQM/calculations/R01/reac02prodE08/conf09/R01_reac02prodE08_conf09_gfn1.xyz --opt --vfukui --chrg -1 --uhf 0 --alpb DMSO

   ID    Z sym.   atoms
    1    6 C      1, 3, 5, 7-10, 13, 15, 16
    2    8 O      2, 4, 14, 17
    3    7 N      6, 11, 12
    4    1 H      18-33

      * Solvation model:               ALPB
        Solvent                        DMSO
        Solvent mass                       7.8130E+01 g/mol
          :  Hamiltonian                  GFN1-xTB          :
 * total energy  :   -58.5563867 Eh     change       -0.8874679E-11 Eh
 * total energy  :   -58.5660742 Eh     change       -0.9687490E-02 Eh
 * total energy  :   -58.5688656 Eh     change       -0.2791413E-02 Eh
 * total energy  :   -58.5691685 Eh     change       -0.3028281E-03 Eh
 * total energy  :   -58.5693686 Eh     change       -0.2001696E-03 Eh
 * total energy  :   -58.5694310 Eh     change       -0.6238996E-04 Eh
 * total energy  :   -58.5695032 Eh     change       -0.7218881E-04 Eh
 * total energy  :   -58.5695509 Eh     change       -0.4767949E-04 Eh
 * total energy  :   -58.5695837 Eh     change       -0.3276606E-04 Eh
 * total energy  :   -58.5696186 Eh     change       -0.3492093E-04 Eh
 * total energy  :   -58.5700410 Eh     change       -0.7674950E-05 Eh
 * total energy  :   -58.5700485 Eh     change       -0.7458999E-05 Eh
 * total energy  :   -58.5700572 Eh     change       -0.8722873E-05 Eh
 * total energy  :   -58.5700667 Eh     change       -0.9449618E-05 Eh
 * total energy  :   -58.5700745 Eh     change       -0.7893616E-05 Eh
 * total energy  :   -58.5700814 Eh     change       -0.6885007E-05 Eh
 * total energy  :   -58.5700883 Eh     change       -0.6913482E-05 Eh
 * total energy  :   -58.5700943 Eh     change       -0.5989533E-05 Eh
 * total energy  :   -58.5700987 Eh     change       -0.4414286E-05 Eh
   *** GEOMETRY OPTIMIZATION CONVERGED AFTER 33 ITERATIONS ***

 final structure:
================
33
 xtb: 6.5.1 (579679a)
C            3.20226843481151       -1.98508461233177        2.23395058511813
O            2.07049119287290       -1.45608761700964        1.56921394459806
C            2.25066528275251       -0.18684253493822        1.02143571023204
O            3.35450599862146        0.38464227507069        1.16692905463453
C            1.14038697091494        0.33277010763449        0.35079443880984
N           -0.01919750112879       -0.39134636475957        0.26999690347647
C           -1.06246736213715        0.07149194808846       -0.31051487493970
C           -2.34835812551046       -0.72697632494300       -0.40077609322637
C           -2.06394148543561       -2.18388152310200       -0.01573856849408
C           -3.41240722510774       -0.13291381641024        0.53451540883710
N           -2.89094615652764       -0.71169170759200       -1.76393380559069
N           -1.09206320598831        1.38083515296621       -0.84367788680961
C           -0.06980218442239        2.26128077142534       -0.76549420816796
O           -0.22233301836839        3.43180050007896       -1.10767630850207
C            1.28625185948558        1.69440271122043       -0.31547519556156
C            2.15964881252887        1.59648117083839       -1.59159944067268
O            1.87289610669266        2.64434323200354        0.57139527331635
H            3.50659776153806       -1.34638942983561        3.07205609291633
H            2.92405004589168       -2.96969701828522        2.61297798621246
H            4.05270469020764       -2.08756510736229        1.54897613870787
H           -2.97912905427290       -2.77060812540814       -0.08656241141562
H           -1.31940249023698       -2.60910925011969       -0.68897187538058
H           -1.68029897935933       -2.23586051442183        1.00355923416736
H           -3.60383652599419        0.90853615638716        0.27724910067315
H           -4.34395337626447       -0.69053908082996        0.43960634251737
H           -3.07424322970362       -0.18070729938650        1.56970753083378
H           -3.29598576547989        0.18914731281026       -1.97295635735510
H           -2.15439595328110       -0.89012537517542       -2.43401005195923
H           -1.96107350417765        1.72530789251248       -1.21565479379059
H            3.15360391502958        1.24183028945915       -1.32291175000155
H            2.24334618275085        2.57810116065376       -2.05755256080368
H            1.70900642105710        0.89957760742749       -2.29627127352410
H            2.66741546824047        2.21487541333540        0.94741371114427

          :  Hamiltonian                  GFN1-xTB          :
         :: total energy             -58.570098749793 Eh    ::
         :: gradient norm              0.000655565715 Eh/a0 ::
         :: HOMO-LUMO gap              2.301083657998 eV    ::
         :: SCC energy               -59.111897714812 Eh    ::
         :: -> Gsolv                  -0.102889368893 Eh    ::
         :: repulsion energy           0.560802080212 Eh    ::

    * Orbital Energies and Occupations

         #    Occupation            Energy/Eh            Energy/eV
      -------------------------------------------------------------
         1        2.0000           -0.7805038             -21.2386
       ...           ...                  ...                  ...
        36        2.0000           -0.4791350             -13.0379
        37        2.0000           -0.4751319             -12.9290
        38        2.0000           -0.4699854             -12.7890
        39        2.0000           -0.4665314             -12.6950
        40        2.0000           -0.4586840             -12.4814
        41        2.0000           -0.4417552             -12.0208
        42        2.0000           -0.4370401             -11.8925
        43        2.0000           -0.4225672             -11.4986
        44        2.0000           -0.4186612             -11.3924
        45        2.0000           -0.4048097             -11.0154
        46        2.0000           -0.3921785             -10.6717
        47        2.0000           -0.3791172             -10.3163
        48        2.0000           -0.3248293              -8.8391 (HOMO)
        49                         -0.2402661              -6.5380 (LUMO)
        50                         -0.1953036              -5.3145
        51                         -0.1381521              -3.7593
        52                         -0.1150208              -3.1299
        53                         -0.1116110              -3.0371
        54                         -0.1098946              -2.9904
        55                         -0.0958812              -2.6091
        56                         -0.0925318              -2.5179
        57                         -0.0643156              -1.7501
        58                         -0.0624497              -1.6993
        59                         -0.0501730              -1.3653
       ...                                ...                  ...
       100                          0.6796743              18.4949
      -------------------------------------------------------------
                  HL-Gap            0.0845633 Eh            2.3011 eV

Wiberg/Mayer (AO) data.
largest (>0.10) Wiberg bond orders for each atom

     #   Z sym  total        # sym  WBO       # sym  WBO       # sym  WBO
 ---------------------------------------------------------------------------
     1   6 C    3.913 --    19 H    0.987    20 H    0.981    18 H    0.981
                             2 O    0.943
     2   8 O    2.084 --     3 C    0.961     1 C    0.943
     3   6 C    3.867 --     4 O    1.428     5 C    1.342     2 O    0.961
     4   8 O    1.801 --     3 C    1.428     5 C    0.113
     5   6 C    3.860 --     3 C    1.342     6 N    1.188    15 C    0.966
                             4 O    0.113
     6   7 N    3.050 --     7 C    1.634     5 C    1.188
     7   6 C    3.907 --     6 N    1.634    12 N    0.992     8 C    0.976
     8   6 C    3.966 --     9 C    0.998    10 C    0.988     7 C    0.976
                            11 N    0.973
     9   6 C    3.997 --     8 C    0.998    21 H    0.988    23 H    0.986
                            22 H    0.985
    10   6 C    3.992 --     8 C    0.988    26 H    0.987    25 H    0.986
                            24 H    0.984
    11   7 N    2.947 --     8 C    0.973    28 H    0.947    27 H    0.946
    12   7 N    3.392 --    13 C    1.234     7 C    0.992    29 H    0.904
                            14 O    0.142
    13   6 C    3.884 --    14 O    1.580    12 N    1.234    15 C    0.939
    14   8 O    1.856 --    13 C    1.580    12 N    0.142
    15   6 C    3.915 --     5 C    0.966    16 C    0.961    17 O    0.945
                            13 C    0.939
    16   6 C    3.996 --    32 H    0.988    31 H    0.986    30 H    0.983
                            15 C    0.961
    17   8 O    1.879 --    15 C    0.945    33 H    0.838
    18   1 H    1.019 --     1 C    0.981
    19   1 H    1.019 --     1 C    0.987
    20   1 H    1.018 --     1 C    0.981
    21   1 H    1.010 --     9 C    0.988
    22   1 H    1.011 --     9 C    0.985
    23   1 H    1.017 --     9 C    0.986
    24   1 H    1.004 --    10 C    0.984
    25   1 H    1.005 --    10 C    0.986
    26   1 H    1.007 --    10 C    0.987
    27   1 H    0.963 --    11 N    0.946
    28   1 H    0.966 --    11 N    0.947
    29   1 H    0.953 --    12 N    0.904
    30   1 H    1.016 --    16 C    0.983
    31   1 H    1.012 --    16 C    0.986
    32   1 H    1.011 --    16 C    0.988
    33   1 H    0.903 --    17 O    0.838
 ---------------------------------------------------------------------------

           -------------------------------------------------
          | TOTAL ENERGY              -58.570098749793 Eh   |
          | GRADIENT NORM               0.000655565715 Eh/α |
          | HOMO-LUMO GAP               2.301083657998 eV   |
           -------------------------------------------------

 * finished run on 2023/06/20 at 15:02:09.836
