   * xtb version 6.5.1 (579679a) compiled by 'ehlert@majestix' on 2022-07-11
          program call               : /lustre/hpc/kemi/ree/PhD/git/ReactivityQM/dep/xtb-6.5.1/bin/xtb --gfn 1 /lustre/hpc/kemi/ree/PhD/git/ReactivityQM/calculations/R02deprot/reac01prodN16/conf04/R02deprot_reac01prodN16_conf04_gfn1.xyz --opt --vfukui --chrg 0 --uhf 0 --alpb DMSO

   ID    Z sym.   atoms
    1    6 C      1, 3, 5, 7-10, 12, 14, 17, 18, 21, 23, 24
    2    8 O      2, 4, 13, 19, 22, 25
    3    7 N      6, 11, 15, 16, 20
    4    1 H      26-42

      * Solvation model:               ALPB
        Solvent                        DMSO
        Solvent mass                       7.8130E+01 g/mol
          :  Hamiltonian                  GFN1-xTB          :
 * total energy  :   -82.9498026 Eh     change       -0.1021760E-10 Eh
 * total energy  :   -82.9605693 Eh     change       -0.1076671E-01 Eh
 * total energy  :   -82.9647466 Eh     change       -0.4177311E-02 Eh
 * total energy  :   -82.9658395 Eh     change       -0.1092904E-02 Eh
 * total energy  :   -82.9668221 Eh     change       -0.9826268E-03 Eh
 * total energy  :   -82.9674974 Eh     change       -0.6752315E-03 Eh
 * total energy  :   -82.9680793 Eh     change       -0.5818993E-03 Eh
 * total energy  :   -82.9685755 Eh     change       -0.4962013E-03 Eh
 * total energy  :   -82.9688988 Eh     change       -0.3233131E-03 Eh
 * total energy  :   -82.9691482 Eh     change       -0.2493688E-03 Eh
 * total energy  :   -82.9732427 Eh     change       -0.1236043E-04 Eh
 * total energy  :   -82.9732549 Eh     change       -0.1221577E-04 Eh
 * total energy  :   -82.9732652 Eh     change       -0.1026701E-04 Eh
 * total energy  :   -82.9732742 Eh     change       -0.9006778E-05 Eh
 * total energy  :   -82.9732838 Eh     change       -0.9667753E-05 Eh
 * total energy  :   -82.9732954 Eh     change       -0.1150617E-04 Eh
 * total energy  :   -82.9733081 Eh     change       -0.1270558E-04 Eh
 * total energy  :   -82.9733190 Eh     change       -0.1089510E-04 Eh
 * total energy  :   -82.9733216 Eh     change       -0.2675460E-05 Eh
   *** GEOMETRY OPTIMIZATION CONVERGED AFTER 68 ITERATIONS ***

 final structure:
================
42
 xtb: 6.5.1 (579679a)
C            5.96633072932074        0.86618282841459        0.31994052444722
O            4.60292435510825        0.70921366202169       -0.09853880629075
C            4.07901265316521       -0.49630996026514        0.02439385259515
O            4.65944048734049       -1.46145614469831        0.45130865890568
C            2.62731012829661       -0.52459478705043       -0.40041085388885
N            1.87682399542026        0.45230413257223       -0.06495508016917
C            0.50245178521493        0.33413818747163       -0.32808100050156
C           -0.34919692679595        1.33146352203076        0.40799545527952
C           -0.03264576432369        1.26258723202301        1.90906688323773
C           -0.03291326178340        2.72638283233400       -0.15756401416392
N           -1.74358923462613        0.98310715007414        0.16730030559111
C           -2.77979516991571        1.67531902082402        0.67681914339190
O           -2.68722968880921        2.69042828634330        1.34875457624367
C           -4.09386103821464        1.07094162099266        0.34008826409884
N           -5.27235899846326        1.51286042880441        0.65269023557823
N           -6.17295487771081        0.62212600628124        0.14997663582021
C           -5.48902689232701       -0.31011317635304       -0.43700914133909
C           -6.00271778120888       -1.51031438340416       -1.13189542561948
O           -4.16717280812882       -0.08526564258397       -0.35498075537820
N           -0.01253266626437       -0.49778743876138       -1.15072035119464
C            0.82840563154611       -1.38792818381516       -1.82989332614109
O            0.58217272387472       -1.82651418293401       -2.92231426936207
C            2.08196945896358       -1.77766916762871       -1.05492091182699
C            1.70366228347920       -2.75706497119425        0.08318623247507
O            3.01594754565795       -2.35931943204977       -1.91597679640247
H            6.24309032098040        1.89214184468148        0.08889233750054
H            6.60473276745528        0.16424604402216       -0.22036206620025
H            6.04531794963031        0.67978692841642        1.39279793795616
H           -0.30268075087042        0.28283030714466        2.29902719718649
H           -0.59297363236459        2.02876065044001        2.44174407092324
H            1.03271259059531        1.42661780582428        2.06036358617635
H            1.03293587318689        2.92194578418935       -0.05301782435596
H           -0.30478932272017        2.77110360202441       -1.21089012170494
H           -0.59248306681779        3.48112883351216        0.39157887574582
H           -1.91490039514996        0.15127381300658       -0.38102762426944
H           -5.70417480030080       -1.49100499983641       -2.17998153876286
H           -5.58311090079489       -2.40837232288766       -0.67938346077634
H           -7.08743011368526       -1.53761734880460       -1.06179089483472
H            0.97411796910333       -2.30185053908548        0.74825429057251
H            2.60381440206323       -3.01321151530986        0.63831681521095
H            1.28614631147332       -3.65713523592259       -0.36225261573531
H            2.56921612937920       -2.63335909088551       -2.73345300000994

          :  Hamiltonian                  GFN1-xTB          :
         :: total energy             -82.973321628730 Eh    ::
         :: gradient norm              0.000181259373 Eh/a0 ::
         :: HOMO-LUMO gap              1.824579125145 eV    ::
         :: SCC energy               -83.749819367800 Eh    ::
         :: -> Gsolv                  -0.051505022536 Eh    ::
         :: repulsion energy           0.802440245863 Eh    ::

    * Orbital Energies and Occupations

         #    Occupation            Energy/Eh            Energy/eV
      -------------------------------------------------------------
         1        2.0000           -0.8659090             -23.5626
       ...           ...                  ...                  ...
        55        2.0000           -0.5081773             -13.8282
        56        2.0000           -0.5068985             -13.7934
        57        2.0000           -0.5053295             -13.7507
        58        2.0000           -0.4997638             -13.5993
        59        2.0000           -0.4960655             -13.4986
        60        2.0000           -0.4888546             -13.3024
        61        2.0000           -0.4803647             -13.0714
        62        2.0000           -0.4663672             -12.6905
        63        2.0000           -0.4610590             -12.5461
        64        2.0000           -0.4609076             -12.5419
        65        2.0000           -0.4526112             -12.3162
        66        2.0000           -0.4489435             -12.2164
        67        2.0000           -0.4370516             -11.8928 (HOMO)
        68                         -0.3699995             -10.0682 (LUMO)
        69                         -0.3109553              -8.4615
        70                         -0.3082303              -8.3874
        71                         -0.2572476              -7.0001
        72                         -0.2550244              -6.9396
        73                         -0.2402940              -6.5387
        74                         -0.1987737              -5.4089
        75                         -0.1439710              -3.9176
        76                         -0.1426879              -3.8827
        77                         -0.1313993              -3.5756
        78                         -0.1257987              -3.4232
       ...                                ...                  ...
       134                          0.7245849              19.7170
      -------------------------------------------------------------
                  HL-Gap            0.0670520 Eh            1.8246 eV

Wiberg/Mayer (AO) data.
largest (>0.10) Wiberg bond orders for each atom

     #   Z sym  total        # sym  WBO       # sym  WBO       # sym  WBO
 ---------------------------------------------------------------------------
     1   6 C    3.857 --    26 H    0.985    28 H    0.979    27 H    0.978
                             2 O    0.883
     2   8 O    2.225 --     3 C    1.148     1 C    0.883     4 O    0.147
     3   6 C    3.852 --     4 O    1.686     2 O    1.148     5 C    0.943
     4   8 O    1.962 --     3 C    1.686     2 O    0.147
     5   6 C    3.932 --     6 N    1.766    23 C    0.959     3 C    0.943
     6   7 N    3.048 --     5 C    1.766     7 C    1.059
     7   6 C    3.924 --    20 N    1.696     6 N    1.059     8 C    0.997
     8   6 C    3.940 --     7 C    0.997     9 C    0.971    10 C    0.962
                            11 N    0.937
     9   6 C    3.985 --    29 H    0.985    31 H    0.983    30 H    0.979
                             8 C    0.971
    10   6 C    3.984 --    33 H    0.985    32 H    0.984    34 H    0.977
                             8 C    0.962
    11   7 N    3.355 --    12 C    1.263     8 C    0.937    35 H    0.880
                            13 O    0.177
    12   6 C    3.917 --    13 O    1.580    11 N    1.263    14 C    0.992
    13   8 O    1.898 --    12 C    1.580    11 N    0.177
    14   6 C    3.872 --    15 N    1.623    19 O    1.047    12 C    0.992
    15   7 N    2.999 --    14 C    1.623    16 N    1.198
    16   7 N    2.981 --    17 C    1.611    15 N    1.198
    17   6 C    3.869 --    16 N    1.611    19 O    1.073    18 C    1.032
    18   6 C    3.986 --    17 C    1.032    38 H    0.982    37 H    0.964
                            36 H    0.962
    19   8 O    2.316 --    17 C    1.073    14 C    1.047
    20   7 N    3.087 --     7 C    1.696    21 C    1.061
    21   6 C    3.865 --    22 O    1.743    20 N    1.061    23 C    0.938
    22   8 O    1.996 --    21 C    1.743
    23   6 C    3.932 --    25 O    0.982     5 C    0.959    21 C    0.938
                            24 C    0.919
    24   6 C    3.982 --    39 H    0.986    40 H    0.979    41 H    0.978
                            23 C    0.919
    25   8 O    1.902 --    23 C    0.982    42 H    0.827
    26   1 H    1.008 --     1 C    0.985
    27   1 H    1.004 --     1 C    0.978
    28   1 H    1.004 --     1 C    0.979
    29   1 H    1.001 --     9 C    0.985
    30   1 H    1.007 --     9 C    0.979
    31   1 H    1.008 --     9 C    0.983
    32   1 H    1.005 --    10 C    0.984
    33   1 H    1.001 --    10 C    0.985
    34   1 H    1.009 --    10 C    0.977
    35   1 H    0.950 --    11 N    0.880
    36   1 H    0.997 --    18 C    0.962
    37   1 H    0.997 --    18 C    0.964
    38   1 H    0.998 --    18 C    0.982
    39   1 H    0.999 --    24 C    0.986
    40   1 H    1.009 --    24 C    0.979
    41   1 H    0.999 --    24 C    0.978
    42   1 H    0.859 --    25 O    0.827
 ---------------------------------------------------------------------------

           -------------------------------------------------
          | TOTAL ENERGY              -82.973321628730 Eh   |
          | GRADIENT NORM               0.000181259373 Eh/α |
          | HOMO-LUMO GAP               1.824579125145 eV   |
           -------------------------------------------------

 * finished run on 2023/06/20 at 18:27:17.452
