   * xtb version 6.5.1 (579679a) compiled by 'ehlert@majestix' on 2022-07-11
          program call               : /lustre/hpc/kemi/ree/PhD/git/ReactivityQM/dep/xtb-6.5.1/bin/xtb --gfn 1 /lustre/hpc/kemi/ree/PhD/git/ReactivityQM/calculations/R02deprot/reac01prodE13/conf04/R02deprot_reac01prodE13_conf04_gfn1.xyz --opt --vfukui --chrg -2 --uhf 0 --alpb DMSO

   ID    Z sym.   atoms
    1    6 C      1, 3, 5, 6, 8, 10, 12-15, 17, 19, 22, 23
    2    8 O      2, 4, 7, 9, 18, 24
    3    7 N      11, 16, 20, 21, 25
    4    1 H      26-42

      * Solvation model:               ALPB
        Solvent                        DMSO
        Solvent mass                       7.8130E+01 g/mol
          :  Hamiltonian                  GFN1-xTB          :
 * total energy  :   -83.5682020 Eh     change       -0.5950511E-09 Eh
 * total energy  :   -83.5827458 Eh     change       -0.1454381E-01 Eh
 * total energy  :   -83.5880327 Eh     change       -0.5286923E-02 Eh
 * total energy  :   -83.5889187 Eh     change       -0.8859999E-03 Eh
 * total energy  :   -83.5893523 Eh     change       -0.4335862E-03 Eh
 * total energy  :   -83.5894609 Eh     change       -0.1086666E-03 Eh
 * total energy  :   -83.5895207 Eh     change       -0.5976831E-04 Eh
 * total energy  :   -83.5895532 Eh     change       -0.3250695E-04 Eh
 * total energy  :   -83.5895800 Eh     change       -0.2676995E-04 Eh
 * total energy  :   -83.5896158 Eh     change       -0.3585890E-04 Eh
 * total energy  :   -83.5896906 Eh     change       -0.1141430E-04 Eh
 * total energy  :   -83.5897052 Eh     change       -0.1459457E-04 Eh
 * total energy  :   -83.5897189 Eh     change       -0.1377930E-04 Eh
 * total energy  :   -83.5897291 Eh     change       -0.1015821E-04 Eh
 * total energy  :   -83.5897375 Eh     change       -0.8425839E-05 Eh
 * total energy  :   -83.5897455 Eh     change       -0.8028452E-05 Eh
 * total energy  :   -83.5897524 Eh     change       -0.6810995E-05 Eh
 * total energy  :   -83.5897581 Eh     change       -0.5775027E-05 Eh
 * total energy  :   -83.5897608 Eh     change       -0.2716503E-05 Eh
   *** GEOMETRY OPTIMIZATION CONVERGED AFTER 22 ITERATIONS ***

 final structure:
================
42
 xtb: 6.5.1 (579679a)
C            3.93393360927964        4.01501575835143        0.32521818995029
O            3.75806813636254        2.67279652094052       -0.06657197555535
C            2.45932842942651        2.15902550876559        0.15032322140131
O            1.59073361399114        2.92844134517255        0.63004487833177
C            2.29364877118370        0.80827277021527       -0.20318000975973
C            3.28342179022871       -0.08490545681355       -0.75149253579952
O            4.56392150247419        0.35755542950068       -1.04507729501013
C            2.93562758908851       -1.38544592826585       -0.98379724332347
O            3.89706297122952       -2.23850849237372       -1.51395420957697
C            3.47596197341844       -3.56492451942810       -1.75889138065413
N            1.70057845082211       -1.89994187859333       -0.73135587481182
C            0.81275363923358       -1.00295394131258       -0.25217693607836
C           -0.58208166939085       -1.55320289601830        0.05963746941258
C           -0.90385414029822       -2.74825402309312       -0.84675662410654
C           -0.58775443605127       -1.98949260975565        1.53916278293013
N           -1.53729567140680       -0.47694634132824       -0.17286570306853
C           -2.87949842370812       -0.57344512709072        0.16704921131141
O           -3.44457423168571       -1.66463095475990        0.42388719670814
C           -3.53850414150652        0.69379244529415        0.11735313792822
N           -2.97531224506421        1.87850968035832       -0.15666030226579
N           -3.97769646225524        2.80766302258882       -0.09779800493851
C           -5.06942380000484        2.18315386550118        0.19817245215186
C           -6.42146537366514        2.77446119333230        0.36329118305405
O           -4.89616983696805        0.84639674533688        0.35584119026098
N            1.01911728460695        0.25531129748543        0.01364115885458
H            3.26948833388284        4.69099749065407       -0.23060526599184
H            4.97077505774555        4.28391097012741        0.11388769469008
H            3.74190733088288        4.15204039312759        1.39833717511231
H            5.07450179305155       -0.38317900184582       -1.39301216667426
H            2.64708174919927       -3.59419176563549       -2.47803176805056
H            4.33155042812631       -4.10138360696690       -2.17180617752007
H            3.15014218080765       -4.05739307739280       -0.83381675223563
H           -0.92351919062080       -2.43077773579499       -1.88991286980770
H           -1.87050357793035       -3.17947792913620       -0.58960481801954
H           -0.13504420385541       -3.51151905026233       -0.73080643169004
H           -0.37274440885578       -1.13343480177319        2.17994287807237
H            0.18068106004545       -2.74630277997920        1.69491058767834
H           -1.55427828767824       -2.40887870983771        1.81653182690182
H           -1.12718620426445        0.45566687508836       -0.11547484333936
H           -7.11190567885147        2.35816791462768       -0.37103436748579
H           -6.36549018398120        3.85216919289432        0.22899618073504
H           -6.81598152703724        2.55584220810466        1.35581814027911

          :  Hamiltonian                  GFN1-xTB          :
         :: total energy             -83.589760844421 Eh    ::
         :: gradient norm              0.000207969851 Eh/a0 ::
         :: HOMO-LUMO gap              0.030649306227 eV    ::
         :: SCC energy               -84.312736353519 Eh    ::
         :: -> Gsolv                  -0.278323777433 Eh    ::
         :: repulsion energy           0.747823525074 Eh    ::

    * Orbital Energies and Occupations

         #    Occupation            Energy/Eh            Energy/eV
      -------------------------------------------------------------
         1        2.0000           -0.7929394             -21.5770
       ...           ...                  ...                  ...
        56        2.0000           -0.4381967             -11.9239
        57        2.0000           -0.4256746             -11.5832
        58        2.0000           -0.4225531             -11.4983
        59        2.0000           -0.3992668             -10.8646
        60        2.0000           -0.3957468             -10.7688
        61        2.0000           -0.3908737             -10.6362
        62        2.0000           -0.3878710             -10.5545
        63        2.0000           -0.3849062             -10.4738
        64        2.0000           -0.3837822             -10.4432
        65        2.0000           -0.3747823             -10.1983
        66        2.0000           -0.3631861              -9.8828
        67        2.0000           -0.3499192              -9.5218
        68        1.2880           -0.2581161              -7.0237 (HOMO)
        69        0.7120           -0.2569897              -6.9930 (LUMO)
        70                         -0.2037870              -5.5453
        71                         -0.1965490              -5.3484
        72                         -0.1554344              -4.2296
        73                         -0.1301998              -3.5429
        74                         -0.1226163              -3.3366
        75                         -0.1122285              -3.0539
        76                         -0.1061695              -2.8890
        77                         -0.0900111              -2.4493
        78                         -0.0842361              -2.2922
        79                         -0.0726177              -1.9760
       ...                                ...                  ...
       134                          0.6919766              18.8296
      -------------------------------------------------------------
                  HL-Gap            0.0011263 Eh            0.0306 eV

Wiberg/Mayer (AO) data.
largest (>0.10) Wiberg bond orders for each atom

     #   Z sym  total        # sym  WBO       # sym  WBO       # sym  WBO
 ---------------------------------------------------------------------------
     1   6 C    3.924 --    27 H    0.987    28 H    0.980    26 H    0.980
                             2 O    0.957
     2   8 O    2.039 --     1 C    0.957     3 C    0.922
     3   6 C    3.731 --     4 O    1.419     5 C    1.291     2 O    0.922
     4   8 O    1.650 --     3 C    1.419
     5   6 C    3.759 --     3 C    1.291     6 C    1.160    25 N    1.100
     6   6 C    3.805 --     8 C    1.480     5 C    1.160     7 O    0.990
     7   8 O    1.958 --     6 C    0.990    29 H    0.856
     8   6 C    3.802 --     6 C    1.480    11 N    1.198     9 O    0.955
     9   8 O    2.065 --     8 C    0.955    10 C    0.941
    10   6 C    3.912 --    31 H    0.986    30 H    0.980    32 H    0.980
                             9 O    0.941
    11   7 N    2.783 --    12 C    1.289     8 C    1.198
    12   6 C    3.952 --    25 N    1.539    11 N    1.289    13 C    0.966
    13   6 C    3.947 --    14 C    0.995    15 C    0.976    12 C    0.966
                            16 N    0.946
    14   6 C    3.995 --    13 C    0.995    33 H    0.987    35 H    0.985
                            34 H    0.983
    15   6 C    3.992 --    37 H    0.988    36 H    0.987    38 H    0.983
                            13 C    0.976
    16   7 N    3.167 --    17 C    1.115    13 C    0.946    39 H    0.902
                            18 O    0.116
    17   6 C    3.764 --    18 O    1.423    19 C    1.156    16 N    1.115
    18   8 O    1.672 --    17 C    1.423    16 N    0.116
    19   6 C    3.670 --    20 N    1.381    17 C    1.156    24 O    0.967
    20   7 N    2.730 --    19 C    1.381    21 N    1.186
    21   7 N    2.981 --    22 C    1.628    20 N    1.186
    22   6 C    3.815 --    21 N    1.628    24 O    1.045    23 C    1.022
    23   6 C    3.995 --    22 C    1.022    41 H    0.986    42 H    0.973
                            40 H    0.972
    24   8 O    2.167 --    22 C    1.045    19 C    0.967
    25   7 N    2.910 --    12 C    1.539     5 C    1.100
    26   1 H    1.022 --     1 C    0.980
    27   1 H    1.021 --     1 C    0.987
    28   1 H    1.021 --     1 C    0.980
    29   1 H    0.887 --     7 O    0.856
    30   1 H    1.021 --    10 C    0.980
    31   1 H    1.018 --    10 C    0.986
    32   1 H    1.022 --    10 C    0.980
    33   1 H    1.013 --    14 C    0.987
    34   1 H    1.024 --    14 C    0.983
    35   1 H    1.026 --    14 C    0.985
    36   1 H    1.012 --    15 C    0.987
    37   1 H    1.010 --    15 C    0.988
    38   1 H    1.018 --    15 C    0.983
    39   1 H    1.000 --    16 N    0.902
    40   1 H    1.002 --    23 C    0.972
    41   1 H    1.005 --    23 C    0.986
    42   1 H    1.002 --    23 C    0.973
 ---------------------------------------------------------------------------

           -------------------------------------------------
          | TOTAL ENERGY              -83.589760844421 Eh   |
          | GRADIENT NORM               0.000207969851 Eh/α |
          | HOMO-LUMO GAP               0.030649306227 eV   |
           -------------------------------------------------

 * finished run on 2023/06/20 at 18:00:48.641
