   * xtb version 6.5.1 (579679a) compiled by 'ehlert@majestix' on 2022-07-11
          program call               : /lustre/hpc/kemi/ree/PhD/git/ReactivityQM/dep/xtb-6.5.1/bin/xtb --gfn 1 /lustre/hpc/kemi/ree/PhD/git/ReactivityQM/calculations/R02methylcation/reac01prodN15/conf13/R02methylcation_reac01prodN15_conf13_gfn1.xyz --opt --vfukui --chrg 0 --uhf 0 --alpb DMSO

   ID    Z sym.   atoms
    1    6 C      1, 3, 5, 7-10, 12, 14, 17, 18, 21, 23, 24
    2    8 O      2, 4, 13, 19, 22, 25
    3    7 N      6, 11, 15, 16, 20
    4    1 H      26-42

      * Solvation model:               ALPB
        Solvent                        DMSO
        Solvent mass                       7.8130E+01 g/mol
          :  Hamiltonian                  GFN1-xTB          :
 * total energy  :   -82.8939470 Eh     change       -0.2273737E-12 Eh
 * total energy  :   -82.9130190 Eh     change       -0.1907199E-01 Eh
 * total energy  :   -82.9312636 Eh     change       -0.1824458E-01 Eh
 * total energy  :   -82.9496523 Eh     change       -0.1838867E-01 Eh
 * total energy  :   -82.9732503 Eh     change       -0.2359803E-01 Eh
 * total energy  :   -82.8657400 Eh     change        0.1075102E+00 Eh
 * total energy  :   -82.9944871 Eh     change       -0.1287471E+00 Eh
 * total energy  :   -82.9941900 Eh     change        0.2971592E-03 Eh
 * total energy  :   -83.0010879 Eh     change       -0.6897982E-02 Eh
 * total energy  :   -83.0023732 Eh     change       -0.1285268E-02 Eh
 * total energy  :   -83.0058182 Eh     change       -0.1396270E-04 Eh
 * total energy  :   -83.0058264 Eh     change       -0.8293099E-05 Eh
 * total energy  :   -83.0058345 Eh     change       -0.8024998E-05 Eh
 * total energy  :   -83.0058428 Eh     change       -0.8360157E-05 Eh
 * total energy  :   -83.0058493 Eh     change       -0.6508691E-05 Eh
 * total energy  :   -83.0058551 Eh     change       -0.5764419E-05 Eh
 * total energy  :   -83.0058605 Eh     change       -0.5425260E-05 Eh
 * total energy  :   -83.0058665 Eh     change       -0.5981016E-05 Eh
 * total energy  :   -83.0058696 Eh     change       -0.3044225E-05 Eh
   *** GEOMETRY OPTIMIZATION CONVERGED AFTER 44 ITERATIONS ***

 final structure:
================
42
 xtb: 6.5.1 (579679a)
C           -5.34331235971837        0.86316480970267        1.93484620886332
O           -4.06646657664687        0.57040475557864        1.35088616711678
C           -3.92521451162723        0.84390915825402        0.06482952380828
O           -4.78953562092900        1.31127062847497       -0.63268573685487
C           -2.54561029625797        0.44725327441534       -0.43428301252884
N           -1.56891959105739        0.32045022394305        0.57952689955169
C           -0.47314579751035       -0.27188891275720        0.31179167838722
C            0.61322526440671       -0.35675915048685        1.36389422677228
C            0.54345514018833       -1.75176517813368        2.00356035266852
C            0.42257508067447        0.74313496750857        2.41230202922074
N            1.89576105987566       -0.17579221788772        0.67663732174870
C            3.08844811924596       -0.24541670512811        1.31051536318196
O            3.25484780681099       -0.56867573571605        2.47354554198219
C            4.22053435807708        0.10816433956483        0.41859106220865
N            5.48432599660073        0.13394126605175        0.70901694942888
N            6.14018123546860        0.52565931072283       -0.41760441743058
C            5.23668742615213        0.71701309476003       -1.32961405322371
C            5.43570316461193        1.15339092824531       -2.73047458558008
O            4.00168658127336        0.47178992280647       -0.86463962055713
N           -0.23543874704455       -0.95221002437504       -0.86509929075430
C           -1.21026050179221       -1.21848557000478       -1.79904220298929
O           -1.09431744851199       -2.11992227967588       -2.60058504813832
C           -2.41524549786586       -0.33073059798243       -1.71466864259779
C           -3.59264393907885       -0.74412368201162       -2.56489980823823
O           -2.12629616576383        1.04101344082742       -1.62543019736714
H           -5.55815123902141        1.92993046189412        1.84523192411184
H           -6.12178141249266        0.29061074679594        1.42698784566176
H           -5.27777216438739        0.57312933678169        2.98073689489945
H            0.74521128275635       -2.51644186692107        1.25590334251521
H            1.27422980472152       -1.83500990914804        2.80548978839430
H           -0.45311538229035       -1.90913108035732        2.41306263811567
H            0.48035399764057        1.72188517781705        1.93869596880687
H            1.19419719006034        0.66566519080247        3.17591066742467
H           -0.55559979039242        0.63286906256446        2.87730233861727
H            1.88131974464942        0.21648024112544       -0.25080254090027
H            4.48571453728431        1.13940138119243       -3.25844527166122
H            6.14090268985333        0.49079532333334       -3.23123093663411
H            5.84436482570548        2.16387504748221       -2.75187101743725
H            0.58975770354972       -1.53000244600710       -0.92608949691076
H           -4.31173364339819        0.06864273228903       -2.63268568009065
H           -4.07222587599115       -1.62188564471812       -2.13539173944698
H           -3.23670044783326       -0.99560382162560       -3.56372143414510

          :  Hamiltonian                  GFN1-xTB          :
         :: total energy             -83.005869556245 Eh    ::
         :: gradient norm              0.000316008477 Eh/a0 ::
         :: HOMO-LUMO gap              3.710030216126 eV    ::
         :: SCC energy               -83.777534283911 Eh    ::
         :: -> Gsolv                  -0.053467871605 Eh    ::
         :: repulsion energy           0.797071753389 Eh    ::

    * Orbital Energies and Occupations

         #    Occupation            Energy/Eh            Energy/eV
      -------------------------------------------------------------
         1        2.0000           -0.8672243             -23.5984
       ...           ...                  ...                  ...
        55        2.0000           -0.5078578             -13.8195
        56        2.0000           -0.5061165             -13.7721
        57        2.0000           -0.5047621             -13.7353
        58        2.0000           -0.5028861             -13.6842
        59        2.0000           -0.4818013             -13.1105
        60        2.0000           -0.4779508             -13.0057
        61        2.0000           -0.4690774             -12.7642
        62        2.0000           -0.4665027             -12.6942
        63        2.0000           -0.4648570             -12.6494
        64        2.0000           -0.4612477             -12.5512
        65        2.0000           -0.4528326             -12.3222
        66        2.0000           -0.4498816             -12.2419
        67        2.0000           -0.4491308             -12.2215 (HOMO)
        68                         -0.3127897              -8.5114 (LUMO)
        69                         -0.3034609              -8.2576
        70                         -0.2888664              -7.8605
        71                         -0.2592463              -7.0545
        72                         -0.2582765              -7.0281
        73                         -0.2005597              -5.4575
        74                         -0.1428834              -3.8881
        75                         -0.1428702              -3.8877
        76                         -0.1307967              -3.5592
        77                         -0.1284460              -3.4952
        78                         -0.1248613              -3.3977
       ...                                ...                  ...
       134                          0.7288790              19.8338
      -------------------------------------------------------------
                  HL-Gap            0.1363411 Eh            3.7100 eV

Wiberg/Mayer (AO) data.
largest (>0.10) Wiberg bond orders for each atom

     #   Z sym  total        # sym  WBO       # sym  WBO       # sym  WBO
 ---------------------------------------------------------------------------
     1   6 C    3.861 --    28 H    0.986    27 H    0.979    26 H    0.979
                             2 O    0.885
     2   8 O    2.218 --     3 C    1.143     1 C    0.885     4 O    0.141
     3   6 C    3.850 --     4 O    1.683     2 O    1.143     5 C    0.938
     4   8 O    1.951 --     3 C    1.683     2 O    0.141
     5   6 C    3.869 --     6 N    1.028     3 C    0.938    25 O    0.906
                            23 C    0.830
     6   7 N    3.025 --     7 C    1.709     5 C    1.028
     7   6 C    3.929 --     6 N    1.709    20 N    1.110     8 C    0.979
     8   6 C    3.934 --    10 C    0.990     7 C    0.979     9 C    0.975
                            11 N    0.925
     9   6 C    3.987 --    31 H    0.985    29 H    0.984    30 H    0.977
                             8 C    0.975
    10   6 C    3.988 --     8 C    0.990    32 H    0.985    34 H    0.983
                            33 H    0.982
    11   7 N    3.336 --    12 C    1.244     8 C    0.925    35 H    0.893
                            13 O    0.173
    12   6 C    3.915 --    13 O    1.593    11 N    1.244    14 C    0.994
    13   8 O    1.909 --    12 C    1.593    11 N    0.173
    14   6 C    3.872 --    15 N    1.620    19 O    1.045    12 C    0.994
    15   7 N    3.001 --    14 C    1.620    16 N    1.203
    16   7 N    2.980 --    17 C    1.606    15 N    1.203
    17   6 C    3.867 --    16 N    1.606    19 O    1.076    18 C    1.030
    18   6 C    3.986 --    17 C    1.030    36 H    0.982    37 H    0.965
                            38 H    0.961
    19   8 O    2.319 --    17 C    1.076    14 C    1.045
    20   7 N    3.417 --    21 C    1.139     7 C    1.110    39 H    0.884
                            22 O    0.125
    21   6 C    3.892 --    22 O    1.658    20 N    1.139    23 C    0.980
    22   8 O    1.936 --    21 C    1.658    20 N    0.125
    23   6 C    3.861 --    24 C    1.002    21 C    0.980    25 O    0.896
                             5 C    0.830
    24   6 C    3.984 --    23 C    1.002    41 H    0.980    40 H    0.979
                            42 H    0.975
    25   8 O    1.968 --     5 C    0.906    23 C    0.896
    26   1 H    1.005 --     1 C    0.979
    27   1 H    1.005 --     1 C    0.979
    28   1 H    1.009 --     1 C    0.986
    29   1 H    1.000 --     9 C    0.984
    30   1 H    1.010 --     9 C    0.977
    31   1 H    1.001 --     9 C    0.985
    32   1 H    1.003 --    10 C    0.985
    33   1 H    1.006 --    10 C    0.982
    34   1 H    1.009 --    10 C    0.983
    35   1 H    0.938 --    11 N    0.893
    36   1 H    0.997 --    18 C    0.982
    37   1 H    0.997 --    18 C    0.965
    38   1 H    0.997 --    18 C    0.961
    39   1 H    0.929 --    20 N    0.884
    40   1 H    1.009 --    24 C    0.979
    41   1 H    1.000 --    24 C    0.980
    42   1 H    1.002 --    24 C    0.975
 ---------------------------------------------------------------------------

           -------------------------------------------------
          | TOTAL ENERGY              -83.005869556245 Eh   |
          | GRADIENT NORM               0.000316008477 Eh/α |
          | HOMO-LUMO GAP               3.710030216126 eV   |
           -------------------------------------------------

 * finished run on 2023/06/21 at 17:57:10.005
