   * xtb version 6.5.1 (579679a) compiled by 'ehlert@majestix' on 2022-07-11
          program call               : /lustre/hpc/kemi/ree/PhD/git/ReactivityQM/dep/xtb-6.5.1/bin/xtb --gfn 1 /lustre/hpc/kemi/ree/PhD/git/ReactivityQM/calculations/RaltegravirCLI/reac02prodE05/conf09/RaltegravirCLI_reac02prodE05_conf09_gfn1.xyz --opt --vfukui --chrg -1 --uhf 0 --alpb DMSO

   ID    Z sym.   atoms
    1    6 C      1, 3, 5-9, 11-13, 15-18, 21, 22, 24
    2    8 O      2, 23, 25
    3    7 N      4, 14, 19, 20
    4    9 F      10
    5    1 H      26-47

      * Solvation model:               ALPB
        Solvent                        DMSO
        Solvent mass                       7.8130E+01 g/mol
          :  Hamiltonian                  GFN1-xTB          :
 * total energy  :   -80.1529300 Eh     change       -0.4813074E-09 Eh
 * total energy  :   -80.1671241 Eh     change       -0.1419414E-01 Eh
 * total energy  :   -80.1730175 Eh     change       -0.5893418E-02 Eh
 * total energy  :   -80.1744133 Eh     change       -0.1395754E-02 Eh
 * total energy  :   -80.1758680 Eh     change       -0.1454735E-02 Eh
 * total energy  :   -80.1765007 Eh     change       -0.6326485E-03 Eh
 * total energy  :   -80.1772670 Eh     change       -0.7662938E-03 Eh
 * total energy  :   -80.1779158 Eh     change       -0.6488668E-03 Eh
 * total energy  :   -80.1784883 Eh     change       -0.5724449E-03 Eh
 * total energy  :   -80.1788577 Eh     change       -0.3694260E-03 Eh
 * total energy  :   -80.1834532 Eh     change       -0.1155113E-04 Eh
 * total energy  :   -80.1834640 Eh     change       -0.1075919E-04 Eh
 * total energy  :   -80.1834737 Eh     change       -0.9720375E-05 Eh
 * total energy  :   -80.1834933 Eh     change       -0.1958867E-04 Eh
 * total energy  :   -80.1835063 Eh     change       -0.1299174E-04 Eh
 * total energy  :   -80.1835152 Eh     change       -0.8944502E-05 Eh
 * total energy  :   -80.1835214 Eh     change       -0.6119935E-05 Eh
 * total energy  :   -80.1835256 Eh     change       -0.4274585E-05 Eh
 * total energy  :   -80.1835290 Eh     change       -0.3404698E-05 Eh
   *** GEOMETRY OPTIMIZATION CONVERGED AFTER 93 ITERATIONS ***

 final structure:
================
47
 xtb: 6.5.1 (579679a)
C            0.94359785933821        2.36208645303157       -0.84693171756712
O            0.89351307056018        1.45666042324493       -1.93673285501274
C            0.97138512176281        0.09263361585387       -1.61005579059304
N            2.11809922800944       -0.54144612808318       -2.19174365084263
C            3.40217752643877        0.08811705747796       -1.89243931247886
C            3.74293550906143        0.15803163612939       -0.41418787380215
C            3.50904503801125       -0.92450609995542        0.43260421197645
C            3.82714696148209       -0.85467960774974        1.78118367843579
C            4.38002292126385        0.31634978715167        2.26686652710278
F            4.68937468759000        0.39250551808740        3.57702294049289
C            4.63284404653325        1.40960876403798        1.46020433441062
C            4.30845548469120        1.31905712461614        0.11249399731902
C           -0.06027865067012       -0.56810011486766       -1.00750213111121
N           -1.19810850846599        0.19143513258501       -0.66495665535805
C           -2.25543909332330       -0.34584040067402       -0.15905677056033
C           -3.39557860062843        0.62447601435548        0.17578084390745
C           -3.07296031582463        2.01995556623982       -0.38517885896534
C           -3.56313420298254        0.73718104908054        1.69769026797633
N           -4.65809700261411        0.16075464531763       -0.41090333594209
N           -2.37235352037217       -1.68596746300679        0.08706882353314
C           -3.52371528054180       -2.34793857169080        0.68680066403960
C           -1.22835871213693       -2.54961901504918       -0.10003766592182
O           -1.33209048855002       -3.76772045254061        0.23447731080654
C           -0.11867139743006       -1.95778629099505       -0.65031637035256
O            1.01242773541789       -2.79128085532783       -0.83080911604651
H            1.85104092876948        2.22242445304661       -0.24425611277019
H            0.06905727102292        2.24920870518061       -0.19303996921380
H            0.94778124870615        3.37167129715787       -1.26469595133163
H            2.14711623111122       -1.52248087599133       -1.92371963002032
H            4.17454125102229       -0.49415577460913       -2.40843980170467
H            3.40923273914350        1.09747386397555       -2.31764317894057
H            3.07094669125590       -1.83493092820805        0.03924981962473
H            3.65488481112412       -1.69119973291513        2.44669266141454
H            5.07144281955924        2.30770979464761        1.87471890329093
H            4.50982700787147        2.16470147217930       -0.53525177841178
H           -2.88037626443878        1.96333612182225       -1.45624202046970
H           -2.19268695547496        2.43426128960437        0.10558948972399
H           -3.91790481604984        2.68537038523924       -0.21297236370470
H           -2.61650028455744        1.02523392465571        2.15502108894072
H           -3.88974385222235       -0.20513414297713        2.13310879107372
H           -4.30766160534336        1.49748151115093        1.93257741137466
H           -5.40815261082670        0.74442784489196       -0.07024792923842
H           -4.62570743625681        0.27001975569494       -1.41669022258403
H           -4.44001554159200       -1.80016428255475        0.48107045737179
H           -3.60998349921079       -3.35017488658165        0.25823449979470
H           -3.39134215976822       -2.44974075001411        1.76889642892415
H            0.72196460954554       -3.67930883266159       -0.56330308858349

          :  Hamiltonian                  GFN1-xTB          :
         :: total energy             -80.183529035055 Eh    ::
         :: gradient norm              0.000646595762 Eh/a0 ::
         :: HOMO-LUMO gap              0.786195315318 eV    ::
         :: SCC energy               -81.035813402705 Eh    ::
         :: -> Gsolv                  -0.104541293708 Eh    ::
         :: repulsion energy           0.884585506653 Eh    ::

    * Orbital Energies and Occupations

         #    Occupation            Energy/Eh            Energy/eV
      -------------------------------------------------------------
         1        2.0000           -0.8516665             -23.1750
       ...           ...                  ...                  ...
        56        2.0000           -0.4557163             -12.4007
        57        2.0000           -0.4530555             -12.3283
        58        2.0000           -0.4510015             -12.2724
        59        2.0000           -0.4373982             -11.9022
        60        2.0000           -0.4335130             -11.7965
        61        2.0000           -0.4187942             -11.3960
        62        2.0000           -0.4072283             -11.0812
        63        2.0000           -0.3957076             -10.7678
        64        2.0000           -0.3889644             -10.5843
        65        2.0000           -0.3781843             -10.2909
        66        2.0000           -0.3751553             -10.2085
        67        2.0000           -0.3539974              -9.6328
        68        2.0000           -0.2877070              -7.8289 (HOMO)
        69        0.0000           -0.2588149              -7.0427 (LUMO)
        70                         -0.2494316              -6.7874
        71                         -0.2145858              -5.8392
        72                         -0.1778373              -4.8392
        73                         -0.1296970              -3.5292
        74                         -0.1166878              -3.1752
        75                         -0.1136544              -3.0927
        76                         -0.1048092              -2.8520
        77                         -0.0992876              -2.7018
        78                         -0.0971475              -2.6435
        79                         -0.0912263              -2.4824
       ...                                ...                  ...
       144                          0.7022159              19.1083
      -------------------------------------------------------------
                  HL-Gap            0.0288921 Eh            0.7862 eV

Wiberg/Mayer (AO) data.
largest (>0.10) Wiberg bond orders for each atom

     #   Z sym  total        # sym  WBO       # sym  WBO       # sym  WBO
 ---------------------------------------------------------------------------
     1   6 C    3.921 --    28 H    0.986    26 H    0.978    27 H    0.975
                             2 O    0.945
     2   8 O    2.016 --     1 C    0.945     3 C    0.932
     3   6 C    3.805 --    13 C    1.546     4 N    0.997     2 O    0.932
     4   7 N    3.069 --     3 C    0.997     5 C    0.976    29 H    0.922
     5   6 C    3.975 --     6 C    0.993    31 H    0.977     4 N    0.976
                            30 H    0.967
     6   6 C    3.985 --    12 C    1.413     7 C    1.411     5 C    0.993
     7   6 C    3.992 --     8 C    1.446     6 C    1.411    32 H    0.966
                            11 C    0.111
     8   6 C    3.992 --     7 C    1.446     9 C    1.400    33 H    0.971
                            12 C    0.109
     9   6 C    3.856 --    11 C    1.405     8 C    1.400    10 F    0.913
    10   9 F    1.037 --     9 C    0.913
    11   6 C    3.992 --    12 C    1.437     9 C    1.405    34 H    0.971
                             7 C    0.111
    12   6 C    3.994 --    11 C    1.437     6 C    1.413    35 H    0.972
                             8 C    0.109
    13   6 C    3.949 --     3 C    1.546    24 C    1.147    14 N    1.065
    14   7 N    3.018 --    15 C    1.614    13 C    1.065    20 N    0.135
    15   6 C    3.944 --    14 N    1.614    20 N    1.180    16 C    0.967
    16   6 C    3.963 --    17 C    0.993    18 C    0.991    19 N    0.974
                            15 C    0.967
    17   6 C    3.997 --    16 C    0.993    38 H    0.986    36 H    0.984
                            37 H    0.981
    18   6 C    3.995 --    16 C    0.991    39 H    0.986    41 H    0.985
                            40 H    0.982
    19   7 N    2.990 --    16 C    0.974    42 H    0.948    43 H    0.947
    20   7 N    3.391 --    15 C    1.180    21 C    0.955    22 C    0.944
                            14 N    0.135
    21   6 C    3.957 --    46 H    0.980    45 H    0.979    44 H    0.975
                            20 N    0.955
    22   6 C    3.914 --    24 C    1.436    23 O    1.359    20 N    0.944
    23   8 O    1.718 --    22 C    1.359    24 C    0.141
    24   6 C    3.832 --    22 C    1.436    13 C    1.147    25 O    0.940
                            23 O    0.141
    25   8 O    1.955 --    24 C    0.940    47 H    0.847
    26   1 H    1.026 --     1 C    0.978
    27   1 H    1.041 --     1 C    0.975
    28   1 H    1.020 --     1 C    0.986
    29   1 H    0.978 --     4 N    0.922
    30   1 H    1.014 --     5 C    0.967
    31   1 H    1.019 --     5 C    0.977
    32   1 H    1.018 --     7 C    0.966
    33   1 H    1.000 --     8 C    0.971
    34   1 H    1.000 --    11 C    0.971
    35   1 H    1.004 --    12 C    0.972
    36   1 H    1.018 --    17 C    0.984
    37   1 H    1.021 --    17 C    0.981
    38   1 H    1.006 --    17 C    0.986
    39   1 H    1.007 --    18 C    0.986
    40   1 H    1.007 --    18 C    0.982
    41   1 H    1.003 --    18 C    0.985
    42   1 H    0.963 --    19 N    0.948
    43   1 H    0.964 --    19 N    0.947
    44   1 H    1.034 --    21 C    0.975
    45   1 H    1.024 --    21 C    0.979
    46   1 H    1.011 --    21 C    0.980
    47   1 H    0.894 --    25 O    0.847
 ---------------------------------------------------------------------------

           -------------------------------------------------
          | TOTAL ENERGY              -80.183529035055 Eh   |
          | GRADIENT NORM               0.000646595762 Eh/α |
          | HOMO-LUMO GAP               0.786195315318 eV   |
           -------------------------------------------------

 * finished run on 2023/06/20 at 15:02:42.363
