   * xtb version 6.5.1 (579679a) compiled by 'ehlert@majestix' on 2022-07-11
          program call               : /lustre/hpc/kemi/ree/PhD/git/ReactivityQM/dep/xtb-6.5.1/bin/xtb --gfn 1 /lustre/hpc/kemi/ree/PhD/git/ReactivityQM/calculations/R02deprot/reac01prodE03/conf03/R02deprot_reac01prodE03_conf03_gfn1.xyz --opt --vfukui --chrg -2 --uhf 0 --alpb DMSO

   ID    Z sym.   atoms
    1    6 C      1, 3, 5, 6, 8-11, 13, 15, 18, 19, 22, 24
    2    8 O      2, 4, 14, 20, 23, 25
    3    7 N      7, 12, 16, 17, 21
    4    1 H      26-42

      * Solvation model:               ALPB
        Solvent                        DMSO
        Solvent mass                       7.8130E+01 g/mol
          :  Hamiltonian                  GFN1-xTB          :
 * total energy  :   -83.5547228 Eh     change       -0.3828404E-10 Eh
 * total energy  :   -83.5659145 Eh     change       -0.1119170E-01 Eh
 * total energy  :   -83.5701119 Eh     change       -0.4197352E-02 Eh
 * total energy  :   -83.5710100 Eh     change       -0.8981124E-03 Eh
 * total energy  :   -83.5717898 Eh     change       -0.7797675E-03 Eh
 * total energy  :   -83.5723104 Eh     change       -0.5206654E-03 Eh
 * total energy  :   -83.5727711 Eh     change       -0.4606413E-03 Eh
 * total energy  :   -83.5731533 Eh     change       -0.3822166E-03 Eh
 * total energy  :   -83.5734516 Eh     change       -0.2983492E-03 Eh
 * total energy  :   -83.5737235 Eh     change       -0.2718230E-03 Eh
 * total energy  :   -83.5803527 Eh     change       -0.6494223E-05 Eh
 * total energy  :   -83.5803594 Eh     change       -0.6727351E-05 Eh
 * total energy  :   -83.5803673 Eh     change       -0.7859123E-05 Eh
 * total energy  :   -83.5803771 Eh     change       -0.9861502E-05 Eh
 * total energy  :   -83.5803887 Eh     change       -0.1154358E-04 Eh
 * total energy  :   -83.5803998 Eh     change       -0.1111483E-04 Eh
 * total energy  :   -83.5804071 Eh     change       -0.7270585E-05 Eh
 * total energy  :   -83.5804123 Eh     change       -0.5222997E-05 Eh
 * total energy  :   -83.5804167 Eh     change       -0.4424012E-05 Eh
   *** GEOMETRY OPTIMIZATION CONVERGED AFTER 84 ITERATIONS ***

 final structure:
================
42
 xtb: 6.5.1 (579679a)
C           -4.64187952706715       -0.29889549889141        2.03348328946056
O           -3.64184229584061       -1.23508640584879        1.64799477602069
C           -2.45588055001284       -0.68774564133310        1.16062662290628
O           -1.54228488978719       -0.32292374585315        2.16228892932687
C           -0.47711257486673       -1.23432048269747        2.39577274660972
C           -2.18535830057197       -0.49391748147730       -0.18699352914367
N           -0.89537216483581       -0.08525222394417       -0.52022569353244
C           -0.62808726416505        0.11386436203913       -1.79375899970448
C            0.78635054109734        0.60858370377218       -2.12571830057391
C            0.69436534418928        2.10571468245404       -2.46790981002111
C            1.34863795962655       -0.17811741408456       -3.31855811537988
N            1.62348238933612        0.40203922958299       -0.94984585433423
C            2.92628216462445        0.75011982720647       -0.85165224892954
O            3.57444494381573        1.30849563389538       -1.75511094400950
C            3.53871590077680        0.40212916810189        0.42582937764516
N            4.77580220412534        0.65532243916682        0.81340937191743
N            4.90752198687322        0.13112232099673        2.06921124358196
C            3.77182518200345       -0.40540657027170        2.38042468399494
C            3.43144027769820       -1.10958858132654        3.63961935332717
O            2.85133495310696       -0.27731479283695        1.40008356653560
N           -1.42682281594815       -0.00892920844753       -2.84482081198873
C           -2.72738035622261       -0.41940992878081       -2.60323464888155
O           -3.56613211569892       -0.55980739856235       -3.54614377517683
C           -3.08903917745605       -0.66876831073402       -1.25699620318965
O           -4.42076479721682       -1.04506789284862       -1.03612852624119
H           -4.26867385678081        0.38859275490726        2.80335284032946
H           -5.48045056176594       -0.86727396573169        2.44122002800745
H           -4.99009776497738        0.28540792831254        1.17162778260932
H           -0.84886180306705       -2.24278010118779        2.61971245818772
H            0.08531405810170       -0.86494642517700        3.25663478795213
H            0.19463157581691       -1.28491236073888        1.52807066983789
H            1.65968094820840        2.49660692574106       -2.78804016850954
H            0.35635883309069        2.66714747763965       -1.59648068078022
H           -0.02783599709607        2.23863450231246       -3.27401858850956
H            2.30281909005628        0.23472644348927       -3.64443298711497
H            0.63628074506159       -0.12769182047371       -4.14286306697970
H            1.49221092299402       -1.22297735494136       -3.04238127195199
H            1.14779827616914       -0.00100080696497       -0.14682170452226
H            2.56141792020579       -0.65019621703818        4.10895209997964
H            4.27710987449976       -1.06032870314613        4.32080924597981
H            3.19489777278068       -2.15433289355711        3.43719969573294
H           -4.82485005086771       -1.04403817273615       -1.92418464048569

          :  Hamiltonian                  GFN1-xTB          :
         :: total energy             -83.580416722920 Eh    ::
         :: gradient norm              0.000255187264 Eh/a0 ::
         :: HOMO-LUMO gap              0.077694091343 eV    ::
         :: SCC energy               -84.301533795526 Eh    ::
         :: -> Gsolv                  -0.262004993054 Eh    ::
         :: repulsion energy           0.747594016234 Eh    ::

    * Orbital Energies and Occupations

         #    Occupation            Energy/Eh            Energy/eV
      -------------------------------------------------------------
         1        2.0000           -0.8199081             -22.3108
       ...           ...                  ...                  ...
        56        2.0000           -0.4292992             -11.6818
        57        2.0000           -0.4197871             -11.4230
        58        2.0000           -0.4176409             -11.3646
        59        2.0000           -0.4168452             -11.3429
        60        2.0000           -0.4116630             -11.2019
        61        2.0000           -0.4058125             -11.0427
        62        2.0000           -0.3952683             -10.7558
        63        2.0000           -0.3877350             -10.5508
        64        2.0000           -0.3776260             -10.2757
        65        2.0000           -0.3545487              -9.6478
        66        2.0000           -0.3276514              -8.9158
        67        2.0000           -0.3247305              -8.8364
        68        1.6359           -0.2735030              -7.4424 (HOMO)
        69        0.3641           -0.2706478              -7.3647 (LUMO)
        70                         -0.2226121              -6.0576
        71                         -0.1791940              -4.8761
        72                         -0.1602630              -4.3610
        73                         -0.1507250              -4.1014
        74                         -0.1332711              -3.6265
        75                         -0.1014303              -2.7601
        76                         -0.0984019              -2.6777
        77                         -0.0903446              -2.4584
        78                         -0.0872280              -2.3736
        79                         -0.0669661              -1.8222
       ...                                ...                  ...
       134                          0.7100865              19.3224
      -------------------------------------------------------------
                  HL-Gap            0.0028552 Eh            0.0777 eV

Wiberg/Mayer (AO) data.
largest (>0.10) Wiberg bond orders for each atom

     #   Z sym  total        # sym  WBO       # sym  WBO       # sym  WBO
 ---------------------------------------------------------------------------
     1   6 C    3.916 --    27 H    0.986    26 H    0.983    28 H    0.981
                             2 O    0.937
     2   8 O    1.998 --     3 C    0.942     1 C    0.937
     3   6 C    3.492 --     6 C    1.401     2 O    0.942     4 O    0.928
     4   8 O    1.990 --     5 C    0.939     3 C    0.928
     5   6 C    3.915 --    30 H    0.984    29 H    0.982    31 H    0.977
                             4 O    0.939
     6   6 C    3.965 --     3 C    1.401    24 C    1.257     7 N    1.124
     7   7 N    2.970 --     8 C    1.455     6 C    1.124    21 N    0.122
     8   6 C    3.959 --     7 N    1.455    21 N    1.400     9 C    0.959
     9   6 C    3.930 --    11 C    0.989    10 C    0.982     8 C    0.959
                            12 N    0.930
    10   6 C    3.993 --    33 H    0.987    34 H    0.986    32 H    0.984
                             9 C    0.982
    11   6 C    3.993 --     9 C    0.989    37 H    0.987    35 H    0.985
                            36 H    0.983
    12   7 N    3.290 --    13 C    1.233     9 C    0.930    38 H    0.884
                            14 O    0.154
    13   6 C    3.834 --    14 O    1.468    12 N    1.233    15 C    1.063
    14   8 O    1.746 --    13 C    1.468    12 N    0.154
    15   6 C    3.729 --    16 N    1.492    13 C    1.063    20 O    0.998
    16   7 N    2.824 --    15 C    1.492    17 N    1.188
    17   7 N    2.980 --    18 C    1.625    16 N    1.188
    18   6 C    3.833 --    17 N    1.625    20 O    1.055    19 C    1.026
    19   6 C    3.992 --    18 C    1.026    40 H    0.984    39 H    0.969
                            41 H    0.968
    20   8 O    2.230 --    18 C    1.055    15 C    0.998
    21   7 N    2.913 --     8 C    1.400    22 C    1.146     7 N    0.122
    22   6 C    3.911 --    23 O    1.377    24 C    1.256    21 N    1.146
    23   8 O    1.679 --    22 C    1.377
    24   6 C    3.716 --     6 C    1.257    22 C    1.256    25 O    0.968
    25   8 O    1.930 --    24 C    0.968    42 H    0.849
    26   1 H    1.020 --     1 C    0.983
    27   1 H    1.022 --     1 C    0.986
    28   1 H    1.032 --     1 C    0.981
    29   1 H    1.018 --     5 C    0.982
    30   1 H    1.024 --     5 C    0.984
    31   1 H    1.041 --     5 C    0.977
    32   1 H    1.018 --    10 C    0.984
    33   1 H    1.010 --    10 C    0.987
    34   1 H    1.018 --    10 C    0.986
    35   1 H    1.017 --    11 C    0.985
    36   1 H    1.030 --    11 C    0.983
    37   1 H    1.010 --    11 C    0.987
    38   1 H    0.988 --    12 N    0.884
    39   1 H    1.002 --    19 C    0.969
    40   1 H    1.003 --    19 C    0.984
    41   1 H    1.000 --    19 C    0.968
    42   1 H    0.907 --    25 O    0.849
 ---------------------------------------------------------------------------

           -------------------------------------------------
          | TOTAL ENERGY              -83.580416722920 Eh   |
          | GRADIENT NORM               0.000255187264 Eh/α |
          | HOMO-LUMO GAP               0.077694091343 eV   |
           -------------------------------------------------

 * finished run on 2023/06/20 at 17:35:06.623
