   * xtb version 6.5.1 (579679a) compiled by 'ehlert@majestix' on 2022-07-11
          program call               : /lustre/hpc/kemi/ree/PhD/git/ReactivityQM/dep/xtb-6.5.1/bin/xtb --gfn 1 /lustre/hpc/kemi/ree/PhD/git/ReactivityQM/calculations/R02/reac01prodN13/conf04/R02_reac01prodN13_conf04_gfn1.xyz --opt --vfukui --chrg 1 --uhf 0 --alpb DMSO

   ID    Z sym.   atoms
    1    6 C      1, 3, 5, 7-10, 12, 14, 17-19, 22, 24
    2    8 O      2, 4, 13, 20, 23, 25
    3    7 N      6, 11, 15, 16, 21
    4    1 H      26-43

      * Solvation model:               ALPB
        Solvent                        DMSO
        Solvent mass                       7.8130E+01 g/mol
          :  Hamiltonian                  GFN1-xTB          :
 * total energy  :   -83.0979083 Eh     change       -0.1411991E-09 Eh
 * total energy  :   -83.1117442 Eh     change       -0.1383586E-01 Eh
 * total energy  :   -83.1169598 Eh     change       -0.5215627E-02 Eh
 * total energy  :   -83.1177405 Eh     change       -0.7806774E-03 Eh
 * total energy  :   -83.1182178 Eh     change       -0.4772972E-03 Eh
 * total energy  :   -83.1183499 Eh     change       -0.1320828E-03 Eh
 * total energy  :   -83.1184714 Eh     change       -0.1215542E-03 Eh
 * total energy  :   -83.1185602 Eh     change       -0.8876331E-04 Eh
 * total energy  :   -83.1186278 Eh     change       -0.6758078E-04 Eh
 * total energy  :   -83.1186780 Eh     change       -0.5025619E-04 Eh
 * total energy  :   -83.1214863 Eh     change       -0.9231645E-05 Eh
 * total energy  :   -83.1214971 Eh     change       -0.1078930E-04 Eh
 * total energy  :   -83.1215096 Eh     change       -0.1249373E-04 Eh
 * total energy  :   -83.1215235 Eh     change       -0.1390806E-04 Eh
 * total energy  :   -83.1215371 Eh     change       -0.1357655E-04 Eh
 * total energy  :   -83.1215481 Eh     change       -0.1101299E-04 Eh
 * total energy  :   -83.1215563 Eh     change       -0.8187216E-05 Eh
 * total energy  :   -83.1215625 Eh     change       -0.6188191E-05 Eh
 * total energy  :   -83.1215675 Eh     change       -0.4977193E-05 Eh
   *** GEOMETRY OPTIMIZATION CONVERGED AFTER 148 ITERATIONS ***

 final structure:
================
43
 xtb: 6.5.1 (579679a)
C           -5.35885292299857        2.74689239889266       -1.45516418106017
O           -4.34813567614900        1.83778176568147       -0.99658356315837
C           -4.32755558833624        0.64165832640176       -1.55332294122907
O           -5.11836476600808        0.27831670829016       -2.40500201410037
C           -3.23350480975001       -0.23425317880890       -1.05986815176442
N           -2.41394330841700        0.26602258658005       -0.08919505350630
C           -1.42593895309005       -0.45315770784823        0.33081123171437
C           -0.52697955050104        0.07400074073413        1.42644969399583
C           -0.74774887161636       -0.76086232961949        2.69642194650870
C           -0.80543084031739        1.55865335908690        1.67687775956887
N            0.86105410886824       -0.08267644690372        0.95777362889189
C            1.92365283014562        0.23085517587861        1.71551821176661
O            1.92992078597743        0.59460609244751        2.86977538463695
C            3.21301518636720        0.09178806178932        0.94480292380016
N            4.45182791119919        0.37340400888384        1.45057383088342
N            5.29572875874675        0.18490546702348        0.52919136198727
C            4.64122603879294       -0.23809100543233       -0.66164177750614
C            5.09487974417014       -1.64571847042562       -1.06596316566340
C            4.83536561555021        0.78690665997578       -1.78591775089050
O            3.26299098507893       -0.26947936187429       -0.28056929660395
N           -1.17791636843101       -1.70235296983675       -0.14899857613738
C           -1.94175918338342       -2.33405569156382       -1.12284436924509
O           -1.66729142330474       -3.45181000802263       -1.50520337102824
C           -3.05604078733659       -1.49554999498846       -1.59149774357701
O           -3.83077963246424       -2.01938343612615       -2.52658803736221
H           -5.24271846567746        2.91696622349467       -2.52752846717078
H           -6.34946813276334        2.33247387545103       -1.25648563454802
H           -5.21266008597263        3.67281541441820       -0.90324702721850
H           -0.45180460582478       -1.79294013969531        2.52032926216745
H           -1.80351767555835       -0.73092855202737        2.96152015410253
H           -0.16280757076255       -0.35652103493662        3.51988937191499
H           -1.85156891208533        1.68220860154919        1.95213846917454
H           -0.17312760368040        1.92628535640293        2.48243173520942
H           -0.60747522633446        2.12897473411797        0.77141156729683
H            1.01429925161792       -0.31309191906373       -0.00991152247185
H            4.52084746460184       -1.96140604347402       -1.93358254127492
H            6.15447915330382       -1.61685646411314       -1.30868352362029
H            4.91992866522216       -2.32996030169924       -0.23866072497070
H            4.47224880439120        1.75691600239398       -1.45339622631668
H            4.27153606333694        0.46055913488391       -2.65619609582712
H            5.89377379673811        0.84776884139615       -2.02758286149474
H           -0.38602765069856       -2.22421741491706        0.19292981883458
H           -4.53535555265403       -1.37744806438953       -2.79355173470451

          :  Hamiltonian                  GFN1-xTB          :
         :: total energy             -83.121567470652 Eh    ::
         :: gradient norm              0.000168731255 Eh/a0 ::
         :: HOMO-LUMO gap              0.134609489742 eV    ::
         :: SCC energy               -83.906993697791 Eh    ::
         :: -> Gsolv                  -0.120008009129 Eh    ::
         :: repulsion energy           0.811334022975 Eh    ::

    * Orbital Energies and Occupations

         #    Occupation            Energy/Eh            Energy/eV
      -------------------------------------------------------------
         1        2.0000           -0.9351989             -25.4481
       ...           ...                  ...                  ...
        55        2.0000           -0.5331772             -14.5085
        56        2.0000           -0.5279471             -14.3662
        57        2.0000           -0.5227191             -14.2239
        58        2.0000           -0.5207196             -14.1695
        59        2.0000           -0.5135833             -13.9753
        60        2.0000           -0.5102583             -13.8848
        61        2.0000           -0.5050329             -13.7426
        62        2.0000           -0.5038569             -13.7106
        63        2.0000           -0.5004857             -13.6189
        64        2.0000           -0.4913188             -13.3695
        65        2.0000           -0.4790997             -13.0370
        66        2.0000           -0.4641598             -12.6304
        67        1.8622           -0.4474516             -12.1758 (HOMO)
        68        0.1378           -0.4425048             -12.0412 (LUMO)
        69                         -0.3582692              -9.7490
        70                         -0.3418599              -9.3025
        71                         -0.3051143              -8.3026
        72                         -0.2584795              -7.0336
        73                         -0.2569925              -6.9931
        74                         -0.1778223              -4.8388
        75                         -0.1616906              -4.3998
        76                         -0.1560644              -4.2467
        77                         -0.1462684              -3.9802
        78                         -0.1422810              -3.8717
       ...                                ...                  ...
       136                          0.7147891              19.4504
      -------------------------------------------------------------
                  HL-Gap            0.0049468 Eh            0.1346 eV

Wiberg/Mayer (AO) data.
largest (>0.10) Wiberg bond orders for each atom

     #   Z sym  total        # sym  WBO       # sym  WBO       # sym  WBO
 ---------------------------------------------------------------------------
     1   6 C    3.858 --    28 H    0.986    26 H    0.978    27 H    0.978
                             2 O    0.885
     2   8 O    2.225 --     3 C    1.151     1 C    0.885     4 O    0.134
     3   6 C    3.851 --     4 O    1.611     2 O    1.151     5 C    1.009
     4   8 O    1.950 --     3 C    1.611     2 O    0.134
     5   6 C    3.921 --    24 C    1.443     6 N    1.204     3 C    1.009
     6   7 N    2.997 --     7 C    1.557     5 C    1.204
     7   6 C    3.902 --     6 N    1.557    21 N    1.189     8 C    0.982
     8   6 C    3.911 --    10 C    0.983     7 C    0.982     9 C    0.971
                            11 N    0.906
     9   6 C    3.977 --    29 H    0.983    30 H    0.982    31 H    0.977
                             8 C    0.971
    10   6 C    3.980 --    34 H    0.984     8 C    0.983    33 H    0.982
                            32 H    0.980
    11   7 N    3.398 --    12 C    1.281     8 C    0.906    35 H    0.884
                            13 O    0.212
    12   6 C    3.924 --    13 O    1.616    11 N    1.281    14 C    0.947
    13   8 O    1.947 --    12 C    1.616    11 N    0.212
    14   6 C    3.729 --    20 O    1.314    15 N    1.221    12 C    0.947
    15   7 N    3.012 --    16 N    1.652    14 C    1.221
    16   7 N    2.907 --    15 N    1.652    17 C    1.056
    17   6 C    3.815 --    16 N    1.056    18 C    0.906    19 C    0.905
                            20 O    0.858
    18   6 C    3.941 --    38 H    0.979    37 H    0.977    36 H    0.976
                            17 C    0.906
    19   6 C    3.941 --    39 H    0.979    41 H    0.977    40 H    0.976
                            17 C    0.905
    20   8 O    2.353 --    14 C    1.314    17 C    0.858
    21   7 N    3.449 --     7 C    1.189    22 C    1.100    42 H    0.879
                            23 O    0.126
    22   6 C    3.895 --    23 O    1.632    21 N    1.100    24 C    1.042
    23   8 O    1.901 --    22 C    1.632    21 N    0.126
    24   6 C    3.868 --     5 C    1.443    25 O    1.163    22 C    1.042
    25   8 O    2.097 --    24 C    1.163    43 H    0.760
    26   1 H    1.004 --     1 C    0.978
    27   1 H    1.004 --     1 C    0.978
    28   1 H    1.009 --     1 C    0.986
    29   1 H    0.998 --     9 C    0.983
    30   1 H    0.997 --     9 C    0.982
    31   1 H    1.004 --     9 C    0.977
    32   1 H    1.005 --    10 C    0.980
    33   1 H    1.002 --    10 C    0.982
    34   1 H    1.002 --    10 C    0.984
    35   1 H    0.923 --    11 N    0.884
    36   1 H    0.991 --    18 C    0.976
    37   1 H    0.992 --    18 C    0.977
    38   1 H    0.991 --    18 C    0.979
    39   1 H    0.991 --    19 C    0.979
    40   1 H    0.991 --    19 C    0.976
    41   1 H    0.991 --    19 C    0.977
    42   1 H    0.921 --    21 N    0.879
    43   1 H    0.841 --    25 O    0.760
 ---------------------------------------------------------------------------

           -------------------------------------------------
          | TOTAL ENERGY              -83.121567470652 Eh   |
          | GRADIENT NORM               0.000168731255 Eh/α |
          | HOMO-LUMO GAP               0.134609489742 eV   |
           -------------------------------------------------

 * finished run on 2023/06/20 at 15:36:07.013
