   * xtb version 6.5.1 (579679a) compiled by 'ehlert@majestix' on 2022-07-11
          program call               : /lustre/hpc/kemi/ree/PhD/git/ReactivityQM/dep/xtb-6.5.1/bin/xtb --gfn 1 /lustre/hpc/kemi/ree/PhD/git/ReactivityQM/calculations/R02methylcation/reac01prodE06/conf16/R02methylcation_reac01prodE06_conf16_gfn1.xyz --opt --vfukui --chrg -2 --uhf 0 --alpb DMSO

   ID    Z sym.   atoms
    1    6 C      1, 3, 5, 6, 8, 11-15, 17, 19, 22, 23
    2    8 O      2, 4, 7, 9, 18, 24
    3    7 N      10, 16, 20, 21, 25
    4    1 H      26-42

      * Solvation model:               ALPB
        Solvent                        DMSO
        Solvent mass                       7.8130E+01 g/mol
          :  Hamiltonian                  GFN1-xTB          :
 * total energy  :   -83.6059537 Eh     change       -0.1086278E-09 Eh
 * total energy  :   -83.6179717 Eh     change       -0.1201799E-01 Eh
 * total energy  :   -83.6223873 Eh     change       -0.4415618E-02 Eh
 * total energy  :   -83.6234278 Eh     change       -0.1040572E-02 Eh
 * total energy  :   -83.6239757 Eh     change       -0.5478375E-03 Eh
 * total energy  :   -83.6241978 Eh     change       -0.2220911E-03 Eh
 * total energy  :   -83.6243621 Eh     change       -0.1642874E-03 Eh
 * total energy  :   -83.6245173 Eh     change       -0.1552071E-03 Eh
 * total energy  :   -83.6246756 Eh     change       -0.1583823E-03 Eh
 * total energy  :   -83.6248335 Eh     change       -0.1578049E-03 Eh
 * total energy  :   -83.6257491 Eh     change       -0.1674050E-04 Eh
 * total energy  :   -83.6257585 Eh     change       -0.9401006E-05 Eh
 * total energy  :   -83.6257592 Eh     change       -0.6556106E-06 Eh
 * total energy  :   -83.6257681 Eh     change       -0.8993741E-05 Eh
 * total energy  :   -83.6257778 Eh     change       -0.9620903E-05 Eh
 * total energy  :   -83.6257859 Eh     change       -0.8111828E-05 Eh
 * total energy  :   -83.6257934 Eh     change       -0.7494615E-05 Eh
 * total energy  :   -83.6258001 Eh     change       -0.6734651E-05 Eh
 * total energy  :   -83.6258049 Eh     change       -0.4757078E-05 Eh
   *** GEOMETRY OPTIMIZATION CONVERGED AFTER 43 ITERATIONS ***

 final structure:
================
42
 xtb: 6.5.1 (579679a)
C           -4.46137301050464       -0.79960357460030       -3.23933098700112
O           -4.21109603229973       -0.39573626345509       -1.90722137871023
C           -2.88792925825187       -0.26618059169608       -1.56491317304583
O           -2.02355167125738       -0.50215723592981       -2.41342370311328
C           -2.63197513096450        0.13279997594997       -0.18872399309409
C           -3.68239562076818        0.36980802492821        0.74737530085104
O           -4.92408038712238        0.41783051571565        0.47839655311895
C           -3.24936599740198        0.52309021219491        2.16642221069165
O           -4.02507758886244        0.58282072734392        3.13368835736159
N           -1.89536207883159        0.49114334590096        2.40569742350234
C           -0.91746239465107        0.75846404977715        1.35966428271978
C           -0.74101669953259        2.29811608689072        1.22361414247711
C            0.44145163389782        0.07810776592013        1.75550054654229
C            0.18020129434530       -1.40515435877279        2.06276327417633
C            1.12279477827125        0.75539403549405        2.94887559674515
N            1.27623580130207        0.18328777624475        0.56214252006424
C            2.56792444087129       -0.24512662910699        0.48318526848467
O            3.27094453449397       -0.55383370972584        1.45931775840201
C            3.05001332432742       -0.25053356279170       -0.89025751012485
N            2.35213339446711        0.03947105281250       -1.97312632289499
N            3.19437698140376       -0.12615423736957       -3.03789287632567
C            4.33649893447548       -0.50227314187645       -2.56218456234056
C            5.57232610809966       -0.80087915235175       -3.32528549231171
O            4.33194732741927       -0.60780686816905       -1.21652699581460
N           -1.29905369434556        0.20702755658490        0.09777355560539
H           -3.99563027682047       -1.76880853227250       -3.45364499488063
H           -5.54235950078678       -0.88373928898596       -3.35523661189369
H           -4.07500551588603       -0.06403754385829       -3.95476992573352
H           -1.62810299988748        0.75635050224586        3.34018933179900
H           -1.65080926224265        2.72471146712300        0.80154310628145
H            0.09291716034779        2.51353044828161        0.55783658499774
H           -0.55817136736394        2.75676609069642        2.19317660480725
H           -0.44247049740619       -1.49591087399906        2.95200074002699
H            1.11972439579643       -1.92779953346210        2.23712692698385
H           -0.33696441888026       -1.86713358473116        1.22016930837638
H            1.53247871204159        1.72313258642742        2.66287472386996
H            1.93800439742354        0.13756242329875        3.32313204549132
H            0.40949669777312        0.90112600223554        3.75889299155905
H            0.73229493162061        0.19210438973170       -0.30486289233929
H            5.38330915315964       -0.67469733906453       -4.38855559485003
H            6.37533735936595       -0.12986621828709       -3.02033435811455
H            5.89884304316406       -1.82289779529345       -3.13506678234661

          :  Hamiltonian                  GFN1-xTB          :
         :: total energy             -83.625804866790 Eh    ::
         :: gradient norm              0.000455608967 Eh/a0 ::
         :: HOMO-LUMO gap              0.093925293515 eV    ::
         :: SCC energy               -84.347659056006 Eh    ::
         :: -> Gsolv                  -0.275932676629 Eh    ::
         :: repulsion energy           0.749025035422 Eh    ::

    * Orbital Energies and Occupations

         #    Occupation            Energy/Eh            Energy/eV
      -------------------------------------------------------------
         1        2.0000           -0.8187358             -22.2789
       ...           ...                  ...                  ...
        56        2.0000           -0.4431980             -12.0600
        57        2.0000           -0.4390250             -11.9465
        58        2.0000           -0.4209443             -11.4545
        59        2.0000           -0.4184240             -11.3859
        60        2.0000           -0.4142681             -11.2728
        61        2.0000           -0.4086663             -11.1204
        62        2.0000           -0.4029137             -10.9638
        63        2.0000           -0.3972486             -10.8097
        64        2.0000           -0.3915181             -10.6537
        65        2.0000           -0.3787629             -10.3067
        66        2.0000           -0.3659639              -9.9584
        67        2.0000           -0.3353655              -9.1258
        68        1.7203           -0.2756067              -7.4996 (HOMO)
        69        0.2797           -0.2721550              -7.4057 (LUMO)
        70                         -0.2377340              -6.4691
        71                         -0.2224653              -6.0536
        72                         -0.1648500              -4.4858
        73                         -0.1524500              -4.1484
        74                         -0.1297673              -3.5311
        75                         -0.1130316              -3.0757
        76                         -0.1056668              -2.8753
        77                         -0.0974994              -2.6531
        78                         -0.0864397              -2.3521
        79                         -0.0813807              -2.2145
       ...                                ...                  ...
       134                          0.7370573              20.0563
      -------------------------------------------------------------
                  HL-Gap            0.0034517 Eh            0.0939 eV

Wiberg/Mayer (AO) data.
largest (>0.10) Wiberg bond orders for each atom

     #   Z sym  total        # sym  WBO       # sym  WBO       # sym  WBO
 ---------------------------------------------------------------------------
     1   6 C    3.913 --    27 H    0.987    28 H    0.980    26 H    0.980
                             2 O    0.940
     2   8 O    2.134 --     3 C    1.012     1 C    0.940
     3   6 C    3.818 --     4 O    1.544     5 C    1.120     2 O    1.012
     4   8 O    1.815 --     3 C    1.544
     5   6 C    3.912 --    25 N    1.262     6 C    1.236     3 C    1.120
     6   6 C    3.877 --     7 O    1.407     5 C    1.236     8 C    1.011
     7   8 O    1.657 --     6 C    1.407
     8   6 C    3.861 --     9 O    1.525    10 N    1.158     6 C    1.011
     9   8 O    1.790 --     8 C    1.525    10 N    0.128
    10   7 N    3.253 --     8 C    1.158    11 C    0.929    29 H    0.916
                             9 O    0.128
    11   6 C    3.941 --    25 N    1.029    12 C    0.960    13 C    0.942
                            10 N    0.929
    12   6 C    3.978 --    32 H    0.986    31 H    0.985    30 H    0.985
                            11 C    0.960
    13   6 C    3.935 --    15 C    1.000    14 C    0.990    11 C    0.942
                            16 N    0.938
    14   6 C    3.993 --    13 C    0.990    34 H    0.986    33 H    0.985
                            35 H    0.983
    15   6 C    3.994 --    13 C    1.000    36 H    0.985    38 H    0.983
                            37 H    0.980
    16   7 N    3.274 --    17 C    1.197    13 C    0.938    39 H    0.885
                            18 O    0.146
    17   6 C    3.835 --    18 O    1.481    16 N    1.197    19 C    1.070
    18   8 O    1.760 --    17 C    1.481    16 N    0.146
    19   6 C    3.747 --    20 N    1.483    17 C    1.070    24 O    1.004
    20   7 N    2.853 --    19 C    1.483    21 N    1.185
    21   7 N    2.980 --    22 C    1.626    20 N    1.185
    22   6 C    3.838 --    21 N    1.626    24 O    1.061    23 C    1.025
    23   6 C    3.993 --    22 C    1.025    40 H    0.985    42 H    0.970
                            41 H    0.969
    24   8 O    2.228 --    22 C    1.061    19 C    1.004
    25   7 N    2.694 --     5 C    1.262    11 C    1.029
    26   1 H    1.018 --     1 C    0.980
    27   1 H    1.018 --     1 C    0.987
    28   1 H    1.018 --     1 C    0.980
    29   1 H    0.969 --    10 N    0.916
    30   1 H    1.011 --    12 C    0.985
    31   1 H    1.015 --    12 C    0.985
    32   1 H    1.007 --    12 C    0.986
    33   1 H    1.013 --    14 C    0.985
    34   1 H    1.011 --    14 C    0.986
    35   1 H    1.022 --    14 C    0.983
    36   1 H    1.008 --    15 C    0.985
    37   1 H    1.021 --    15 C    0.980
    38   1 H    1.005 --    15 C    0.983
    39   1 H    1.001 --    16 N    0.885
    40   1 H    1.003 --    23 C    0.985
    41   1 H    1.000 --    23 C    0.969
    42   1 H    1.000 --    23 C    0.970
 ---------------------------------------------------------------------------

           -------------------------------------------------
          | TOTAL ENERGY              -83.625804866790 Eh   |
          | GRADIENT NORM               0.000455608967 Eh/α |
          | HOMO-LUMO GAP               0.093925293515 eV   |
           -------------------------------------------------

 * finished run on 2023/06/21 at 17:15:30.564
