   * xtb version 6.5.1 (579679a) compiled by 'ehlert@majestix' on 2022-07-11
          program call               : /lustre/hpc/kemi/ree/PhD/git/ReactivityQM/dep/xtb-6.5.1/bin/xtb --gfn 1 /lustre/hpc/kemi/ree/PhD/git/ReactivityQM/calculations/R03/reac02prodN17/conf20/R03_reac02prodN17_conf20_gfn1.xyz --opt --vfukui --chrg 1 --uhf 0 --alpb DMSO

   ID    Z sym.   atoms
    1    6 C      1, 3, 5, 7-10, 12, 13, 15, 18, 19, 22, 23, 25
    2    8 O      2, 4, 14, 20, 24, 26
    3    7 N      6, 11, 16, 17, 21
    4    1 H      27-46

      * Solvation model:               ALPB
        Solvent                        DMSO
        Solvent mass                       7.8130E+01 g/mol
          :  Hamiltonian                  GFN1-xTB          :
 * total energy  :   -86.3104278 Eh     change       -0.2516742E-10 Eh
 * total energy  :   -86.3232617 Eh     change       -0.1283389E-01 Eh
 * total energy  :   -86.3277338 Eh     change       -0.4472135E-02 Eh
 * total energy  :   -86.3287000 Eh     change       -0.9661877E-03 Eh
 * total energy  :   -86.3292737 Eh     change       -0.5736324E-03 Eh
 * total energy  :   -86.3295725 Eh     change       -0.2988912E-03 Eh
 * total energy  :   -86.3298267 Eh     change       -0.2541723E-03 Eh
 * total energy  :   -86.3300037 Eh     change       -0.1769646E-03 Eh
 * total energy  :   -86.3300975 Eh     change       -0.9376529E-04 Eh
 * total energy  :   -86.3301418 Eh     change       -0.4430989E-04 Eh
 * total energy  :   -86.3302746 Eh     change       -0.4199085E-04 Eh
 * total energy  :   -86.3303014 Eh     change       -0.2679376E-04 Eh
 * total energy  :   -86.3303218 Eh     change       -0.2033838E-04 Eh
 * total energy  :   -86.3303536 Eh     change       -0.3187801E-04 Eh
 * total energy  :   -86.3303631 Eh     change       -0.9506281E-05 Eh
 * total energy  :   -86.3303724 Eh     change       -0.9225803E-05 Eh
 * total energy  :   -86.3303660 Eh     change        0.6354163E-05 Eh
 * total energy  :   -86.3303735 Eh     change       -0.7514976E-05 Eh
 * total energy  :   -86.3303770 Eh     change       -0.3451151E-05 Eh
   *** GEOMETRY OPTIMIZATION CONVERGED AFTER 23 ITERATIONS ***

 final structure:
================
46
 xtb: 6.5.1 (579679a)
C           -6.54554175025997       -0.28298879552003       -1.09740630488091
O           -5.38379157653747       -0.12190811143065       -0.27483229468586
C           -4.21967757428666       -0.01506443172681       -0.90343580176185
O           -4.10024943938649       -0.04650242528478       -2.10633753909514
C           -3.06190555313834        0.14881762607291        0.02741142459528
N           -1.86409333700074        0.31310112109286       -0.61144119074920
C           -0.74895542492479        0.45579204582600        0.02340330098305
C            0.46173347402320        0.70253987642042       -0.87816235535100
C            1.39615441089296        1.80756725539815       -0.38452593998020
C           -0.03004118200683        1.06242259744356       -2.28114340600038
N            1.25950416369011       -0.61083850823873       -0.93237202352652
C            0.50998081096461       -1.75635932781950       -1.52028979469697
C            2.55978335782274       -0.45361102577542       -1.69746097235106
O            2.53800722041672       -0.35646356399933       -2.88287228617120
C            3.70719467226265       -0.48823892341263       -0.83156154132595
N            4.97017707866900       -0.43412335830823       -1.16794206691209
N            5.68128590497780       -0.53223189865638       -0.04099713330985
C            4.83101177302271       -0.64334250625654        0.94871056918810
C            5.12760074477226       -0.78150420945572        2.38387621187642
O            3.56853998073578       -0.62098944930043        0.50927613483010
N           -0.69130346017176        0.41560071249090        1.39687038710707
C            0.52992253251229        0.47553117088137        2.19934433822363
C           -1.85597636938405        0.30369084549092        2.14777097485018
O           -1.85216266324915        0.30501620181358        3.37024125408588
C           -3.09685348807981        0.16202213968574        1.39296906969185
O           -4.19824482886357        0.03804422273878        2.12960936176724
H           -6.66843292762312        0.58840571741017       -1.74515512361781
H           -6.44658976666679       -1.18029017624303       -1.71252111793000
H           -7.39368045616397       -0.37711401181757       -0.42194150580252
H            2.01192471136879        2.16441198700887       -1.20974600677433
H            2.05655449180596        1.46579945249853        0.40526623871069
H            0.80002251160783        2.63947814415781       -0.01256669114707
H           -0.70131014671026        0.30433120273286       -2.67762718525768
H           -0.57714106994241        2.00165646091114       -2.21265972428492
H            0.80951918037065        1.19457112846868       -2.95895045844587
H            1.50239948810374       -0.86170011179687        0.02607136582148
H           -0.48188689874321       -1.77398428449866       -1.07788030578754
H            0.45590843577262       -1.62834214725118       -2.59817141355613
H            1.05849233927294       -2.66062866731625       -1.27108316980076
H            4.60716254993189       -1.65135572212954        2.78423051101083
H            4.76397006205124        0.09633113851761        2.91915659126428
H            6.20008465503530       -0.88352457307439        2.53386468447786
H            1.33523828950826       -0.06068933197780        1.71137164168971
H            0.31559085674820        0.00099785034088        3.15676487343011
H            0.81144114525876        1.51333237477990        2.36849961648233
H           -3.95136592846438        0.06233428910355        3.07437480312181

          :  Hamiltonian                  GFN1-xTB          :
         :: total energy             -86.330376975833 Eh    ::
         :: gradient norm              0.000644889391 Eh/a0 ::
         :: HOMO-LUMO gap              1.568207415002 eV    ::
         :: SCC energy               -87.161538352470 Eh    ::
         :: -> Gsolv                  -0.125442250569 Eh    ::
         :: repulsion energy           0.862798794944 Eh    ::

    * Orbital Energies and Occupations

         #    Occupation            Energy/Eh            Energy/eV
      -------------------------------------------------------------
         1        2.0000           -0.9098113             -24.7572
       ...           ...                  ...                  ...
        58        2.0000           -0.5359412             -14.5837
        59        2.0000           -0.5244447             -14.2709
        60        2.0000           -0.5233320             -14.2406
        61        2.0000           -0.5187830             -14.1168
        62        2.0000           -0.5184489             -14.1077
        63        2.0000           -0.5018239             -13.6553
        64        2.0000           -0.4957668             -13.4905
        65        2.0000           -0.4949848             -13.4692
        66        2.0000           -0.4913142             -13.3693
        67        2.0000           -0.4905985             -13.3499
        68        2.0000           -0.4759273             -12.9506
        69        2.0000           -0.4627907             -12.5932
        70        2.0000           -0.4452065             -12.1147 (HOMO)
        71                         -0.3875760             -10.5465 (LUMO)
        72                         -0.3364854              -9.1562
        73                         -0.3073159              -8.3625
        74                         -0.2950569              -8.0289
        75                         -0.2605603              -7.0902
        76                         -0.2514041              -6.8411
        77                         -0.1738529              -4.7308
        78                         -0.1707233              -4.6456
        79                         -0.1666708              -4.5353
        80                         -0.1568381              -4.2678
        81                         -0.1529128              -4.1610
       ...                                ...                  ...
       144                          0.7268029              19.7773
      -------------------------------------------------------------
                  HL-Gap            0.0576306 Eh            1.5682 eV

Wiberg/Mayer (AO) data.
largest (>0.10) Wiberg bond orders for each atom

     #   Z sym  total        # sym  WBO       # sym  WBO       # sym  WBO
 ---------------------------------------------------------------------------
     1   6 C    3.867 --    29 H    0.986    28 H    0.979    27 H    0.979
                             2 O    0.892
     2   8 O    2.210 --     3 C    1.125     1 C    0.892     4 O    0.137
     3   6 C    3.855 --     4 O    1.659     2 O    1.125     5 C    0.992
     4   8 O    1.923 --     3 C    1.659     2 O    0.137
     5   6 C    3.957 --    25 C    1.491     6 N    1.182     3 C    0.992
     6   7 N    3.044 --     7 C    1.582     5 C    1.182
     7   6 C    3.940 --     6 N    1.582    21 N    1.164     8 C    0.973
     8   6 C    3.881 --    10 C    1.004     9 C    0.999     7 C    0.973
                            11 N    0.829
     9   6 C    3.983 --     8 C    0.999    31 H    0.978    30 H    0.977
                            32 H    0.977
    10   6 C    3.979 --     8 C    1.004    35 H    0.977    33 H    0.977
                            34 H    0.976
    11   7 N    3.593 --    12 C    0.895    36 H    0.881    13 C    0.852
                             8 C    0.829
    12   6 C    3.879 --    39 H    0.980    38 H    0.979    37 H    0.977
                            11 N    0.895
    13   6 C    3.878 --    14 O    1.788    15 C    1.094    11 N    0.852
    14   8 O    2.067 --    13 C    1.788
    15   6 C    3.882 --    16 N    1.527    13 C    1.094    20 O    1.030
    16   7 N    3.021 --    15 C    1.527    17 N    1.287
    17   7 N    2.994 --    18 C    1.520    16 N    1.287
    18   6 C    3.846 --    17 N    1.520    20 O    1.092    19 C    1.044
    19   6 C    3.976 --    18 C    1.044    42 H    0.978    40 H    0.954
                            41 H    0.948
    20   8 O    2.336 --    18 C    1.092    15 C    1.030
    21   7 N    3.502 --     7 C    1.164    23 C    1.119    22 C    0.925
                            24 O    0.136
    22   6 C    3.914 --    43 H    0.974    45 H    0.972    44 H    0.968
                            21 N    0.925
    23   6 C    3.911 --    24 O    1.578    21 N    1.119    25 C    1.064
    24   8 O    1.923 --    23 C    1.578    21 N    0.136
    25   6 C    3.921 --     5 C    1.491    26 O    1.126    23 C    1.064
    26   8 O    2.102 --    25 C    1.126    46 H    0.798
    27   1 H    1.006 --     1 C    0.979
    28   1 H    1.006 --     1 C    0.979
    29   1 H    1.010 --     1 C    0.986
    30   1 H    0.995 --     9 C    0.977
    31   1 H    1.001 --     9 C    0.978
    32   1 H    0.993 --     9 C    0.977
    33   1 H    1.011 --    10 C    0.977
    34   1 H    1.000 --    10 C    0.976
    35   1 H    1.002 --    10 C    0.977
    36   1 H    0.942 --    11 N    0.881
    37   1 H    0.999 --    12 C    0.977
    38   1 H    0.996 --    12 C    0.979
    39   1 H    0.989 --    12 C    0.980
    40   1 H    0.990 --    19 C    0.954
    41   1 H    0.990 --    19 C    0.948
    42   1 H    0.993 --    19 C    0.978
    43   1 H    1.006 --    22 C    0.974
    44   1 H    1.001 --    22 C    0.968
    45   1 H    0.997 --    22 C    0.972
    46   1 H    0.840 --    26 O    0.798
 ---------------------------------------------------------------------------

           -------------------------------------------------
          | TOTAL ENERGY              -86.330376975833 Eh   |
          | GRADIENT NORM               0.000644889391 Eh/α |
          | HOMO-LUMO GAP               1.568207415002 eV   |
           -------------------------------------------------

 * finished run on 2023/06/20 at 15:54:06.758
