   * xtb version 6.5.1 (579679a) compiled by 'ehlert@majestix' on 2022-07-11
          program call               : /lustre/hpc/kemi/ree/PhD/git/ReactivityQM/dep/xtb-6.5.1/bin/xtb --gfn 1 /lustre/hpc/kemi/ree/PhD/git/ReactivityQM/calculations/R02oxygendeprot/reac01prodN04/conf04/R02oxygendeprot_reac01prodN04_conf04_gfn1.xyz --opt --vfukui --chrg 0 --uhf 0 --alpb DMSO

   ID    Z sym.   atoms
    1    6 C      1, 3, 5, 6, 8-11, 13, 15, 18, 19, 22, 24
    2    8 O      2, 4, 14, 20, 23, 25
    3    7 N      7, 12, 16, 17, 21
    4    1 H      26-42

      * Solvation model:               ALPB
        Solvent                        DMSO
        Solvent mass                       7.8130E+01 g/mol
          :  Hamiltonian                  GFN1-xTB          :
 * total energy  :   -82.9726013 Eh     change       -0.1085709E-10 Eh
 * total energy  :   -82.9886559 Eh     change       -0.1605464E-01 Eh
 * total energy  :   -82.9942268 Eh     change       -0.5570875E-02 Eh
 * total energy  :   -82.9957888 Eh     change       -0.1561984E-02 Eh
 * total energy  :   -82.9968737 Eh     change       -0.1084923E-02 Eh
 * total energy  :   -82.9975731 Eh     change       -0.6994024E-03 Eh
 * total energy  :   -82.9981359 Eh     change       -0.5627584E-03 Eh
 * total energy  :   -82.9985832 Eh     change       -0.4473613E-03 Eh
 * total energy  :   -82.9988428 Eh     change       -0.2595784E-03 Eh
 * total energy  :   -82.9989784 Eh     change       -0.1356445E-03 Eh
 * total energy  :   -83.0005512 Eh     change       -0.2759015E-04 Eh
 * total energy  :   -83.0005969 Eh     change       -0.4573068E-04 Eh
 * total energy  :   -83.0006097 Eh     change       -0.1276498E-04 Eh
 * total energy  :   -83.0006310 Eh     change       -0.2131398E-04 Eh
 * total energy  :   -83.0006397 Eh     change       -0.8700963E-05 Eh
 * total energy  :   -83.0006476 Eh     change       -0.7890479E-05 Eh
 * total energy  :   -83.0006534 Eh     change       -0.5811596E-05 Eh
 * total energy  :   -83.0006590 Eh     change       -0.5608099E-05 Eh
 * total energy  :   -83.0006629 Eh     change       -0.3909096E-05 Eh
   *** GEOMETRY OPTIMIZATION CONVERGED AFTER 42 ITERATIONS ***

 final structure:
================
42
 xtb: 6.5.1 (579679a)
C           -6.10055697208180        0.39576765577536        1.31925671660551
O           -4.75409817087851        0.87326465670408        1.30808768603492
C           -3.86642743425180        0.28984134034893        0.52882107334834
O           -4.36025719131717       -0.72414590464464       -0.16226616114462
C           -3.64345560613229       -1.49896903592613       -1.12191671414316
C           -2.55806915412233        0.78096714835288        0.50487869462256
N           -1.63778457501454        0.11214134457820       -0.29996265059109
C           -0.42814388351476        0.51789529651157       -0.37211598133491
C            0.58388444273395       -0.17733788356272       -1.25916300847475
C            0.76983726402661        0.64134560919411       -2.54041344934237
C            0.14565160930442       -1.60722104373530       -1.58331144857106
N            1.86955605280992       -0.20247316340668       -0.55773926356583
C            1.98795499941487       -0.73825011154397        0.67776183847781
O            1.05337103722392       -1.12954495676802        1.35620805121378
C            3.39019105332626       -0.76536280979822        1.15994641702680
N            3.83059038810610       -1.18993695496749        2.30312903543057
N            5.18065696526115       -1.00246936881644        2.29866246260857
C            5.48088134032183       -0.47451375533609        1.15290072733655
C            6.81579794923564       -0.07730984643813        0.65616649197296
O            4.39322932442246       -0.29811192259277        0.38508868966905
N            0.02785010579973        1.63326313220567        0.29294344242649
C           -0.73740910806969        2.39197321312506        1.13495664553760
O           -0.27284432328054        3.36487704059175        1.70195358249522
C           -2.17920837806505        1.93122585292357        1.29342556491878
O           -2.91977380949060        2.54938928420033        2.05044951141433
H           -6.53647423862118        0.46894282447619        0.32118403825518
H           -6.64214664568481        1.03379388478339        2.01554054506552
H           -6.13202025378760       -0.64284987066389        1.65434896551291
H           -3.24503076627229       -0.86060322108956       -1.91151421711046
H           -2.82745190119210       -2.04430999475317       -0.64553489160386
H           -4.36972562413575       -2.19852441509828       -1.53583021974370
H           -0.18171828181562        0.72587715690223       -3.06267099398813
H            1.13265388534784        1.63952303656665       -2.30128513280945
H            1.48830632243396        0.15017966932998       -3.19363038615293
H           -0.75254826645622       -1.58263065926843       -2.19690496392245
H            0.93593478187074       -2.11648578222669       -2.13088654703638
H           -0.06589466463971       -2.15366298512174       -0.66485682434525
H            2.69901902589678       -0.00235381405730       -1.08884464564487
H            6.81898001389283        0.98511207542275        0.41408691428342
H            7.56743812423365       -0.28236054005288        1.41519995785476
H            7.05213524169019       -0.62974756613063       -0.25295390960272
H            0.98712132147291        1.91379738399215        0.15877235703323

          :  Hamiltonian                  GFN1-xTB          :
         :: total energy             -83.000662906118 Eh    ::
         :: gradient norm              0.000708044967 Eh/a0 ::
         :: HOMO-LUMO gap              2.367248955175 eV    ::
         :: SCC energy               -83.781098752878 Eh    ::
         :: -> Gsolv                  -0.073924832598 Eh    ::
         :: repulsion energy           0.806887055931 Eh    ::

    * Orbital Energies and Occupations

         #    Occupation            Energy/Eh            Energy/eV
      -------------------------------------------------------------
         1        2.0000           -0.8648903             -23.5349
       ...           ...                  ...                  ...
        55        2.0000           -0.5063092             -13.7774
        56        2.0000           -0.5045908             -13.7306
        57        2.0000           -0.4991787             -13.5833
        58        2.0000           -0.4929240             -13.4131
        59        2.0000           -0.4799575             -13.0603
        60        2.0000           -0.4756328             -12.9426
        61        2.0000           -0.4672826             -12.7154
        62        2.0000           -0.4612780             -12.5520
        63        2.0000           -0.4531032             -12.3296
        64        2.0000           -0.4517503             -12.2928
        65        2.0000           -0.4447597             -12.1025
        66        2.0000           -0.4183434             -11.3837
        67        2.0000           -0.4119977             -11.2110 (HOMO)
        68                         -0.3250029              -8.8438 (LUMO)
        69                         -0.3110792              -8.4649
        70                         -0.2702795              -7.3547
        71                         -0.2561115              -6.9691
        72                         -0.2454887              -6.6801
        73                         -0.1984097              -5.3990
        74                         -0.1535489              -4.1783
        75                         -0.1512472              -4.1156
        76                         -0.1425801              -3.8798
        77                         -0.1409005              -3.8341
        78                         -0.1318994              -3.5892
       ...                                ...                  ...
       134                          0.7556138              20.5613
      -------------------------------------------------------------
                  HL-Gap            0.0869948 Eh            2.3672 eV

Wiberg/Mayer (AO) data.
largest (>0.10) Wiberg bond orders for each atom

     #   Z sym  total        # sym  WBO       # sym  WBO       # sym  WBO
 ---------------------------------------------------------------------------
     1   6 C    3.863 --    27 H    0.984    28 H    0.978    26 H    0.978
                             2 O    0.890
     2   8 O    2.236 --     3 C    1.150     1 C    0.890
     3   6 C    3.833 --     6 C    1.339     2 O    1.150     4 O    1.129
     4   8 O    2.221 --     3 C    1.129     5 C    0.883
     5   6 C    3.854 --    31 H    0.981    29 H    0.977    30 H    0.976
                             4 O    0.883
     6   6 C    3.924 --     3 C    1.339    24 C    1.163     7 N    1.106
     7   7 N    3.044 --     8 C    1.655     6 C    1.106
     8   6 C    3.931 --     7 N    1.655    21 N    1.106     9 C    0.975
     9   6 C    3.937 --    11 C    0.990    10 C    0.985     8 C    0.975
                            12 N    0.925
    10   6 C    3.988 --     9 C    0.985    32 H    0.984    33 H    0.984
                            34 H    0.982
    11   6 C    3.989 --     9 C    0.990    36 H    0.985    35 H    0.983
                            37 H    0.981
    12   7 N    3.341 --    13 C    1.248     9 C    0.925    38 H    0.891
                            14 O    0.175
    13   6 C    3.917 --    14 O    1.590    12 N    1.248    15 C    0.994
    14   8 O    1.892 --    13 C    1.590    12 N    0.175
    15   6 C    3.873 --    16 N    1.622    20 O    1.047    13 C    0.994
    16   7 N    3.000 --    15 C    1.622    17 N    1.199
    17   7 N    2.981 --    18 C    1.610    16 N    1.199
    18   6 C    3.868 --    17 N    1.610    20 O    1.073    19 C    1.032
    19   6 C    3.986 --    18 C    1.032    40 H    0.983    39 H    0.963
                            41 H    0.962
    20   8 O    2.317 --    18 C    1.073    15 C    1.047
    21   7 N    3.440 --    22 C    1.166     8 C    1.106    42 H    0.886
                            23 O    0.139
    22   6 C    3.884 --    23 O    1.631    21 N    1.166    24 C    0.940
    23   8 O    1.909 --    22 C    1.631    21 N    0.139
    24   6 C    3.919 --    25 O    1.631     6 C    1.163    22 C    0.940
    25   8 O    1.916 --    24 C    1.631
    26   1 H    1.005 --     1 C    0.978
    27   1 H    1.009 --     1 C    0.984
    28   1 H    1.006 --     1 C    0.978
    29   1 H    1.019 --     5 C    0.977
    30   1 H    1.021 --     5 C    0.976
    31   1 H    1.008 --     5 C    0.981
    32   1 H    1.001 --    10 C    0.984
    33   1 H    0.998 --    10 C    0.984
    34   1 H    0.996 --    10 C    0.982
    35   1 H    1.006 --    11 C    0.983
    36   1 H    1.001 --    11 C    0.985
    37   1 H    1.010 --    11 C    0.981
    38   1 H    0.932 --    12 N    0.891
    39   1 H    0.996 --    19 C    0.963
    40   1 H    0.998 --    19 C    0.983
    41   1 H    0.996 --    19 C    0.962
    42   1 H    0.937 --    21 N    0.886
 ---------------------------------------------------------------------------

           -------------------------------------------------
          | TOTAL ENERGY              -83.000662906118 Eh   |
          | GRADIENT NORM               0.000708044967 Eh/α |
          | HOMO-LUMO GAP               2.367248955175 eV   |
           -------------------------------------------------

 * finished run on 2023/06/21 at 17:20:08.748
