   * xtb version 6.5.1 (579679a) compiled by 'ehlert@majestix' on 2022-07-11
          program call               : /lustre/hpc/kemi/ree/PhD/git/ReactivityQM/dep/xtb-6.5.1/bin/xtb --gfn 1 /lustre/hpc/kemi/ree/PhD/git/ReactivityQM/calculations/R01/reac01prodE06/conf09/R01_reac01prodE06_conf09_gfn1.xyz --opt --vfukui --chrg -1 --uhf 0 --alpb DMSO

   ID    Z sym.   atoms
    1    6 C      1, 3, 5, 8-10
    2    8 O      2, 4, 11
    3    7 N      6, 7
    4    1 H      12-20

      * Solvation model:               ALPB
        Solvent                        DMSO
        Solvent mass                       7.8130E+01 g/mol
          :  Hamiltonian                  GFN1-xTB          :
 * total energy  :   -38.3475227 Eh     change       -0.3140599E-11 Eh
 * total energy  :   -38.3538414 Eh     change       -0.6318651E-02 Eh
 * total energy  :   -38.3553281 Eh     change       -0.1486743E-02 Eh
 * total energy  :   -38.3555470 Eh     change       -0.2188688E-03 Eh
 * total energy  :   -38.3557767 Eh     change       -0.2297281E-03 Eh
 * total energy  :   -38.3558189 Eh     change       -0.4215675E-04 Eh
 * total energy  :   -38.3558447 Eh     change       -0.2583577E-04 Eh
 * total energy  :   -38.3558580 Eh     change       -0.1334877E-04 Eh
 * total energy  :   -38.3558652 Eh     change       -0.7200242E-05 Eh
 * total energy  :   -38.3558676 Eh     change       -0.2396904E-05 Eh
   *** GEOMETRY OPTIMIZATION CONVERGED AFTER 10 ITERATIONS ***

 final structure:
================
20
 xtb: 6.5.1 (579679a)
C            3.74594809705299       -0.17936222036909        0.99219125901260
O            2.34942873026779       -0.08534845329079        0.77742870711600
C            1.94405687533902       -0.24806221552406       -0.53974422329646
O            2.78102701401944       -0.45459572240458       -1.43349615933930
C            0.55411205053966       -0.15274684943452       -0.71632057768116
N           -0.09249359384806       -0.26722104150049       -1.87495664445136
N           -1.36778155513005       -0.13344162053663       -1.71375826035288
C           -1.61917192516996        0.09902753363263       -0.28133876851306
C           -2.50478207044492       -1.02553129604180        0.27942935889781
C           -2.28900038196163        1.46917433765324       -0.08911861634695
O           -0.34421838121824        0.08118348434548        0.34262532028222
H            4.12176302096172       -1.17064520759679        0.71275348392634
H            4.28718822625565        0.57610418297984        0.41066494636496
H            3.91962878345940       -0.01180811112720        2.05543471217155
H           -2.67712208463378       -0.87262100161830        1.34326211199058
H           -2.00867441964038       -1.98375953824981        0.13432679238813
H           -3.45936614484732       -1.03657421068607       -0.24262742958768
H           -2.46653477881354        1.65584779080011        0.96839847449069
H           -1.63771822894005        2.24767773301983       -0.48317073815181
H           -3.23629023324755        1.49270142594893       -0.62376274892016

          :  Hamiltonian                  GFN1-xTB          :
         :: total energy             -38.355867641637 Eh    ::
         :: gradient norm              0.000408873953 Eh/a0 ::
         :: HOMO-LUMO gap              2.130085486059 eV    ::
         :: SCC energy               -38.663678890596 Eh    ::
         :: -> Gsolv                  -0.097342515112 Eh    ::
         :: repulsion energy           0.316272645478 Eh    ::

    * Orbital Energies and Occupations

         #    Occupation            Energy/Eh            Energy/eV
      -------------------------------------------------------------
         1        2.0000           -0.7790422             -21.1988
       ...           ...                  ...                  ...
        19        2.0000           -0.5077827             -13.8175
        20        2.0000           -0.4953205             -13.4784
        21        2.0000           -0.4865251             -13.2390
        22        2.0000           -0.4841892             -13.1755
        23        2.0000           -0.4746423             -12.9157
        24        2.0000           -0.4715722             -12.8321
        25        2.0000           -0.4499805             -12.2446
        26        2.0000           -0.4491518             -12.2220
        27        2.0000           -0.4389565             -11.9446
        28        2.0000           -0.4219739             -11.4825
        29        2.0000           -0.4141132             -11.2686
        30        2.0000           -0.3745573             -10.1922
        31        2.0000           -0.3214634              -8.7475 (HOMO)
        32                         -0.2431842              -6.6174 (LUMO)
        33                         -0.1279681              -3.4822
        34                         -0.1147247              -3.1218
        35                         -0.1057387              -2.8773
        36                         -0.0998168              -2.7162
        37                         -0.0590434              -1.6067
        38                         -0.0527989              -1.4367
        39                         -0.0514754              -1.4007
        40                         -0.0475052              -1.2927
        41                         -0.0293589              -0.7989
        42                         -0.0273139              -0.7432
       ...                                ...                  ...
        62                          0.7101503              19.3242
      -------------------------------------------------------------
                  HL-Gap            0.0782792 Eh            2.1301 eV

Wiberg/Mayer (AO) data.
largest (>0.10) Wiberg bond orders for each atom

     #   Z sym  total        # sym  WBO       # sym  WBO       # sym  WBO
 ---------------------------------------------------------------------------
     1   6 C    3.909 --    14 H    0.987    12 H    0.981    13 H    0.981
                             2 O    0.939
     2   8 O    2.103 --     3 C    0.975     1 C    0.939
     3   6 C    3.883 --     4 O    1.474     5 C    1.251     2 O    0.975
                             7 N    0.105
     4   8 O    1.789 --     3 C    1.474
     5   6 C    3.847 --     6 N    1.368     3 C    1.251    11 O    0.931
                             7 N    0.150
     6   7 N    3.024 --     7 N    1.503     5 C    1.368
     7   7 N    2.898 --     6 N    1.503     8 C    0.978     5 C    0.150
                             3 C    0.105
     8   6 C    3.901 --     7 N    0.978    10 C    0.978     9 C    0.978
                            11 O    0.928
     9   6 C    3.993 --    17 H    0.988    15 H    0.986    16 H    0.985
                             8 C    0.978
    10   6 C    3.993 --    20 H    0.988    18 H    0.987    19 H    0.985
                             8 C    0.978
    11   8 O    2.049 --     5 C    0.931     8 C    0.928
    12   1 H    1.016 --     1 C    0.981
    13   1 H    1.016 --     1 C    0.981
    14   1 H    1.018 --     1 C    0.987
    15   1 H    1.008 --     9 C    0.986
    16   1 H    1.014 --     9 C    0.985
    17   1 H    1.010 --     9 C    0.988
    18   1 H    1.008 --    10 C    0.987
    19   1 H    1.014 --    10 C    0.985
    20   1 H    1.010 --    10 C    0.988
 ---------------------------------------------------------------------------

           -------------------------------------------------
          | TOTAL ENERGY              -38.355867641637 Eh   |
          | GRADIENT NORM               0.000408873953 Eh/α |
          | HOMO-LUMO GAP               2.130085486059 eV   |
           -------------------------------------------------

 * finished run on 2023/06/20 at 14:54:20.224
