   * xtb version 6.5.1 (579679a) compiled by 'ehlert@majestix' on 2022-07-11
          program call               : /lustre/hpc/kemi/ree/PhD/git/ReactivityQM/dep/xtb-6.5.1/bin/xtb --gfn 1 /lustre/hpc/kemi/ree/PhD/git/ReactivityQM/calculations/RaltegravirCLI/reac02prodE01/conf05/RaltegravirCLI_reac02prodE01_conf05_gfn1.xyz --opt --vfukui --chrg -1 --uhf 0 --alpb DMSO

   ID    Z sym.   atoms
    1    6 C      1, 3-6, 9-11, 14-18, 20-22, 24
    2    7 N      2, 7, 8, 13
    3    8 O      12, 23, 25
    4    9 F      19
    5    1 H      26-47

      * Solvation model:               ALPB
        Solvent                        DMSO
        Solvent mass                       7.8130E+01 g/mol
          :  Hamiltonian                  GFN1-xTB          :
 * total energy  :   -80.1850329 Eh     change       -0.1739409E-10 Eh
 * total energy  :   -80.1939832 Eh     change       -0.8950332E-02 Eh
 * total energy  :   -80.1962950 Eh     change       -0.2311824E-02 Eh
 * total energy  :   -80.1967608 Eh     change       -0.4657782E-03 Eh
 * total energy  :   -80.1970511 Eh     change       -0.2902989E-03 Eh
 * total energy  :   -80.1972287 Eh     change       -0.1776151E-03 Eh
 * total energy  :   -80.1973955 Eh     change       -0.1667513E-03 Eh
 * total energy  :   -80.1975406 Eh     change       -0.1450904E-03 Eh
 * total energy  :   -80.1976602 Eh     change       -0.1196709E-03 Eh
 * total energy  :   -80.1977423 Eh     change       -0.8204529E-04 Eh
 * total energy  :   -80.1984267 Eh     change       -0.3174073E-04 Eh
 * total energy  :   -80.1984547 Eh     change       -0.2807261E-04 Eh
 * total energy  :   -80.1984544 Eh     change        0.3134900E-06 Eh
 * total energy  :   -80.1984734 Eh     change       -0.1897896E-04 Eh
 * total energy  :   -80.1984834 Eh     change       -0.9955371E-05 Eh
 * total energy  :   -80.1984904 Eh     change       -0.7004278E-05 Eh
 * total energy  :   -80.1985010 Eh     change       -0.1064631E-04 Eh
 * total energy  :   -80.1985074 Eh     change       -0.6352835E-05 Eh
 * total energy  :   -80.1985122 Eh     change       -0.4828128E-05 Eh
   *** GEOMETRY OPTIMIZATION CONVERGED AFTER 41 ITERATIONS ***

 final structure:
================
47
 xtb: 6.5.1 (579679a)
C           -4.20748846264005       -0.70623138779688       -1.22844246044537
N           -2.85356361534629       -1.09692033420777       -0.84107279722676
C           -2.07359112895873       -0.43680047516778        0.07424653767196
C           -2.54980634006158        0.82967696485971        0.78236404253894
C           -1.55456489459244        1.19826013348265        1.89390275069695
C           -2.61340441310214        1.97864938077275       -0.23381643642226
N           -3.87682619133287        0.63392851890671        1.36882109650168
N           -0.86510194374933       -0.82039386461742        0.33559858075594
C           -0.27162168043147       -1.88694403192998       -0.28864349557140
C            1.13012289858845       -2.29919145086029        0.31363300474108
C            1.97543086285647       -3.07350747383426       -0.75437445346001
O            0.93402723217173       -2.96880844991101        1.42157057989133
N            1.89801750299953       -1.00331728117790        0.59816292466231
C            1.93262659615279       -0.02799632051858       -0.49439669619138
C            2.89899096794121        1.07956306882379       -0.14062324250564
C            4.10868726870285        1.21763045174640       -0.81812704667078
C            5.00934198433729        2.21801280798763       -0.47451314740795
C            4.67662190156439        3.07088571648087        0.56086783231299
F            5.54552530283675        4.04336934397953        0.90380086842898
C            3.48525217703399        2.96913403723650        1.25588121949648
C            2.59946472163321        1.96434475350327        0.89506151915919
C           -1.01320539627663       -2.58493591132378       -1.20073262837669
O           -0.54974266506377       -3.66565530623992       -1.90368849682840
C           -2.35713084599999       -2.19688259190465       -1.52774316699983
O           -3.04297428765532       -2.78718012971856       -2.37705178134506
H           -4.17124296527346       -0.12210507782687       -2.14926333593251
H           -4.78713830294109       -1.61252992691036       -1.41059317597500
H           -4.67682414012131       -0.12865334583503       -0.43775417703487
H           -0.57747742197763        1.42488743467552        1.46855029605269
H           -1.44676549224573        0.37221852540436        2.59599765468658
H           -1.91858131186729        2.07283993617792        2.42996838847683
H           -1.65253231821610        2.08057972121291       -0.73830199327395
H           -3.38508608508255        1.80112601166438       -0.98014420866423
H           -2.83959437328861        2.91239280085516        0.27906305827439
H           -3.80944685146346        0.02857694342473        2.17687630126391
H           -4.22670393867940        1.52561851679683        1.68673825776338
H            1.88292602043247       -2.65091139898191       -1.75344049646594
H            3.02174175851425       -3.04953879720650       -0.44904254336719
H            1.64282684779717       -4.11016052121817       -0.77407832674449
H            1.40691588076332       -0.56894304587749        1.38176351382616
H            0.93966269380414        0.41321443401576       -0.68002702732630
H            2.26489195478843       -0.51611572095853       -1.41613995013925
H            4.35427772780193        0.54334867231544       -1.63178654063331
H            5.94891647339329        2.33564129854834       -0.99854713569067
H            3.25841398352742        3.66235401618603        2.05522664137809
H            1.65817402372336        1.87335562217809        1.42557106866600
H           -1.25244071498122       -3.93588626720685       -2.51868637653746

          :  Hamiltonian                  GFN1-xTB          :
         :: total energy             -80.198512186541 Eh    ::
         :: gradient norm              0.000562668550 Eh/a0 ::
         :: HOMO-LUMO gap              1.854019645164 eV    ::
         :: SCC energy               -81.050794370448 Eh    ::
         :: -> Gsolv                  -0.121157492271 Eh    ::
         :: repulsion energy           0.884334253890 Eh    ::

    * Orbital Energies and Occupations

         #    Occupation            Energy/Eh            Energy/eV
      -------------------------------------------------------------
         1        2.0000           -0.8529099             -23.2089
       ...           ...                  ...                  ...
        56        2.0000           -0.4586600             -12.4808
        57        2.0000           -0.4434728             -12.0675
        58        2.0000           -0.4396905             -11.9646
        59        2.0000           -0.4380415             -11.9197
        60        2.0000           -0.4278005             -11.6410
        61        2.0000           -0.4245854             -11.5536
        62        2.0000           -0.4185060             -11.3881
        63        2.0000           -0.4075121             -11.0890
        64        2.0000           -0.3994402             -10.8693
        65        2.0000           -0.3848202             -10.4715
        66        2.0000           -0.3630441              -9.8789
        67        2.0000           -0.3355290              -9.1302
        68        2.0000           -0.3293566              -8.9623 (HOMO)
        69                         -0.2612227              -7.1082 (LUMO)
        70                         -0.2602575              -7.0820
        71                         -0.2501536              -6.8070
        72                         -0.2375562              -6.4642
        73                         -0.1317778              -3.5859
        74                         -0.1311010              -3.5674
        75                         -0.1233970              -3.3578
        76                         -0.1220202              -3.3203
        77                         -0.1112677              -3.0277
        78                         -0.1014794              -2.7614
        79                         -0.0986979              -2.6857
       ...                                ...                  ...
       144                          0.6955089              18.9258
      -------------------------------------------------------------
                  HL-Gap            0.0681340 Eh            1.8540 eV

Wiberg/Mayer (AO) data.
largest (>0.10) Wiberg bond orders for each atom

     #   Z sym  total        # sym  WBO       # sym  WBO       # sym  WBO
 ---------------------------------------------------------------------------
     1   6 C    3.935 --    26 H    0.979    27 H    0.978    28 H    0.970
                             2 N    0.937
     2   7 N    3.497 --     3 C    1.170    24 C    1.114     1 C    0.937
                            25 O    0.119
     3   6 C    3.931 --     8 N    1.566     2 N    1.170     4 C    0.974
     4   6 C    3.966 --     5 C    0.992     6 C    0.987     7 N    0.977
                             3 C    0.974
     5   6 C    3.996 --     4 C    0.992    31 H    0.986    30 H    0.984
                            29 H    0.979
     6   6 C    3.995 --     4 C    0.987    32 H    0.986    34 H    0.984
                            33 H    0.983
     7   7 N    2.993 --     4 C    0.977    36 H    0.943    35 H    0.943
     8   7 N    3.046 --     3 C    1.566     9 C    1.196
     9   6 C    3.911 --    22 C    1.505     8 N    1.196    10 C    0.883
    10   6 C    3.933 --    12 O    1.194    11 C    0.944     9 C    0.883
                            13 N    0.859
    11   6 C    3.989 --    38 H    0.988    37 H    0.986    39 H    0.986
                            10 C    0.944
    12   8 O    1.499 --    10 C    1.194
    13   7 N    2.962 --    14 C    0.987    40 H    0.952    10 C    0.859
    14   6 C    3.988 --    15 C    1.002    13 N    0.987    42 H    0.976
                            41 H    0.961
    15   6 C    3.986 --    16 C    1.417    21 C    1.409    14 C    1.002
    16   6 C    3.992 --    17 C    1.438    15 C    1.417    43 H    0.972
                            20 C    0.109
    17   6 C    3.992 --    16 C    1.438    18 C    1.406    44 H    0.971
                            21 C    0.111
    18   6 C    3.854 --    17 C    1.406    20 C    1.399    19 F    0.913
    19   9 F    1.037 --    18 C    0.913
    20   6 C    3.991 --    21 C    1.447    18 C    1.399    45 H    0.970
                            16 C    0.109
    21   6 C    3.994 --    20 C    1.447    15 C    1.409    46 H    0.969
                            17 C    0.111
    22   6 C    3.908 --     9 C    1.505    24 C    1.145    23 O    1.025
    23   8 O    2.015 --    22 C    1.025    47 H    0.830
    24   6 C    3.914 --    25 O    1.488    22 C    1.145     2 N    1.114
    25   8 O    1.834 --    24 C    1.488     2 N    0.119
    26   1 H    1.007 --     1 C    0.979
    27   1 H    1.014 --     1 C    0.978
    28   1 H    1.032 --     1 C    0.970
    29   1 H    1.019 --     5 C    0.979
    30   1 H    1.012 --     5 C    0.984
    31   1 H    1.005 --     5 C    0.986
    32   1 H    1.005 --     6 C    0.986
    33   1 H    1.005 --     6 C    0.983
    34   1 H    1.001 --     6 C    0.984
    35   1 H    0.959 --     7 N    0.943
    36   1 H    0.958 --     7 N    0.943
    37   1 H    1.014 --    11 C    0.986
    38   1 H    1.020 --    11 C    0.988
    39   1 H    1.028 --    11 C    0.986
    40   1 H    1.001 --    13 N    0.952
    41   1 H    1.020 --    14 C    0.961
    42   1 H    1.020 --    14 C    0.976
    43   1 H    1.003 --    16 C    0.972
    44   1 H    1.000 --    17 C    0.971
    45   1 H    1.000 --    20 C    0.970
    46   1 H    1.005 --    21 C    0.969
    47   1 H    0.875 --    23 O    0.830
 ---------------------------------------------------------------------------

           -------------------------------------------------
          | TOTAL ENERGY              -80.198512186541 Eh   |
          | GRADIENT NORM               0.000562668550 Eh/α |
          | HOMO-LUMO GAP               1.854019645164 eV   |
           -------------------------------------------------

 * finished run on 2023/06/20 at 14:56:15.726
