   * xtb version 6.5.1 (579679a) compiled by 'ehlert@majestix' on 2022-07-11
          program call               : /lustre/hpc/kemi/ree/PhD/git/ReactivityQM/dep/xtb-6.5.1/bin/xtb --gfn 1 /lustre/hpc/kemi/ree/PhD/git/ReactivityQM/calculations/R01/reac01prodE03/conf01/R01_reac01prodE03_conf01_gfn1.xyz --opt --vfukui --chrg -1 --uhf 0 --alpb DMSO

   ID    Z sym.   atoms
    1    6 C      1, 3, 5, 6, 9, 10
    2    8 O      2, 4, 11
    3    7 N      7, 8
    4    1 H      12-20

      * Solvation model:               ALPB
        Solvent                        DMSO
        Solvent mass                       7.8130E+01 g/mol
          :  Hamiltonian                  GFN1-xTB          :
 * total energy  :   -38.3075202 Eh     change       -0.9954704E-11 Eh
 * total energy  :   -38.3193017 Eh     change       -0.1178156E-01 Eh
 * total energy  :   -38.3229262 Eh     change       -0.3624457E-02 Eh
 * total energy  :   -38.3236324 Eh     change       -0.7061581E-03 Eh
 * total energy  :   -38.3242569 Eh     change       -0.6245611E-03 Eh
 * total energy  :   -38.3246039 Eh     change       -0.3470086E-03 Eh
 * total energy  :   -38.3251033 Eh     change       -0.4993408E-03 Eh
 * total energy  :   -38.3257679 Eh     change       -0.6646415E-03 Eh
 * total energy  :   -38.3264670 Eh     change       -0.6990775E-03 Eh
 * total energy  :   -38.3270511 Eh     change       -0.5841334E-03 Eh
 * total energy  :   -38.3286346 Eh     change       -0.7891621E-05 Eh
 * total energy  :   -38.3286556 Eh     change       -0.2092527E-04 Eh
 * total energy  :   -38.3286623 Eh     change       -0.6737165E-05 Eh
 * total energy  :   -38.3286725 Eh     change       -0.1019593E-04 Eh
 * total energy  :   -38.3286773 Eh     change       -0.4791605E-05 Eh
 * total energy  :   -38.3286842 Eh     change       -0.6940714E-05 Eh
 * total energy  :   -38.3286883 Eh     change       -0.4067859E-05 Eh
 * total energy  :   -38.3286920 Eh     change       -0.3690719E-05 Eh
 * total energy  :   -38.3286937 Eh     change       -0.1699734E-05 Eh
   *** GEOMETRY OPTIMIZATION CONVERGED AFTER 32 ITERATIONS ***

 final structure:
================
20
 xtb: 6.5.1 (579679a)
C            3.38571133353860        0.13685275552856        0.31322197643241
O            2.16225911390254       -0.58171743628406        0.22783765781809
C            1.10560031451416        0.09068003874650       -0.32681715109969
O            1.24202087821338        1.21306052258143       -0.79751130916616
C           -0.21638593891243       -0.60847732873143       -0.03060425905231
C           -0.18005725255363       -2.13560155223745       -0.12088843562209
N           -0.33723368170663       -0.08696449200194        1.32992296316507
N           -1.38403624108130        0.80054468826387        1.28076832800246
C           -1.90316483005717        0.80682866159193        0.11292263075615
C           -3.07188362356523        1.59754648928148       -0.36047467763437
O           -1.28159829907381       -0.06472294314606       -0.79062317146497
H            3.67354328309598        0.53158964441541       -0.66689303248419
H            3.30110738558113        0.97052680330461        1.01906831655938
H            4.14467115868416       -0.56240488753796        0.66244673200405
H           -1.13520840569455       -2.53300918538165        0.21741843058843
H           -0.00534497747388       -2.45128057398284       -1.14800745283762
H            0.61265206399450       -2.52038801058221        0.51668240616423
H           -3.85896271026679        0.93972794787908       -0.73418380493296
H           -3.46542301413537        2.18514267515073        0.46704427009554
H           -2.78826655700348        2.27206618314203       -1.17133041729146

          :  Hamiltonian                  GFN1-xTB          :
         :: total energy             -38.328693686811 Eh    ::
         :: gradient norm              0.000391973623 Eh/a0 ::
         :: HOMO-LUMO gap              2.119144528682 eV    ::
         :: SCC energy               -38.635759801109 Eh    ::
         :: -> Gsolv                  -0.105300259412 Eh    ::
         :: repulsion energy           0.315858332829 Eh    ::

    * Orbital Energies and Occupations

         #    Occupation            Energy/Eh            Energy/eV
      -------------------------------------------------------------
         1        2.0000           -0.7913910             -21.5348
       ...           ...                  ...                  ...
        19        2.0000           -0.5038466             -13.7104
        20        2.0000           -0.4976777             -13.5425
        21        2.0000           -0.4938359             -13.4380
        22        2.0000           -0.4893319             -13.3154
        23        2.0000           -0.4811861             -13.0937
        24        2.0000           -0.4642979             -12.6342
        25        2.0000           -0.4605983             -12.5335
        26        2.0000           -0.4577089             -12.4549
        27        2.0000           -0.4187374             -11.3944
        28        2.0000           -0.4131368             -11.2420
        29        2.0000           -0.3889639             -10.5842
        30        2.0000           -0.3630818              -9.8800
        31        2.0000           -0.2898996              -7.8886 (HOMO)
        32                         -0.2120224              -5.7694 (LUMO)
        33                         -0.1703259              -4.6348
        34                         -0.1216675              -3.3107
        35                         -0.1126886              -3.0664
        36                         -0.0979778              -2.6661
        37                         -0.0592412              -1.6120
        38                         -0.0559897              -1.5236
        39                         -0.0465287              -1.2661
        40                         -0.0449789              -1.2239
        41                         -0.0403772              -1.0987
        42                         -0.0349488              -0.9510
       ...                                ...                  ...
        62                          0.6865969              18.6833
      -------------------------------------------------------------
                  HL-Gap            0.0778771 Eh            2.1191 eV

Wiberg/Mayer (AO) data.
largest (>0.10) Wiberg bond orders for each atom

     #   Z sym  total        # sym  WBO       # sym  WBO       # sym  WBO
 ---------------------------------------------------------------------------
     1   6 C    3.903 --    14 H    0.987    13 H    0.981    12 H    0.981
                             2 O    0.925
     2   8 O    2.133 --     3 C    1.018     1 C    0.925     4 O    0.102
     3   6 C    3.815 --     4 O    1.588     2 O    1.018     5 C    0.921
                             7 N    0.186
     4   8 O    1.867 --     3 C    1.588     2 O    0.102
     5   6 C    3.900 --     6 C    0.980     7 N    0.967    11 O    0.927
                             3 C    0.921
     6   6 C    3.996 --    16 H    0.987    17 H    0.986    15 H    0.985
                             5 C    0.980
     7   7 N    2.663 --     8 N    1.158     5 C    0.967     3 C    0.186
                             9 C    0.157
     8   7 N    3.013 --     9 C    1.691     7 N    1.158
     9   6 C    3.880 --     8 N    1.691    10 C    1.018    11 O    0.941
                             7 N    0.157
    10   6 C    3.996 --     9 C    1.018    19 H    0.987    18 H    0.976
                            20 H    0.976
    11   8 O    2.070 --     9 C    0.941     5 C    0.927
    12   1 H    1.016 --     1 C    0.981
    13   1 H    1.012 --     1 C    0.981
    14   1 H    1.016 --     1 C    0.987
    15   1 H    1.017 --     6 C    0.985
    16   1 H    1.010 --     6 C    0.987
    17   1 H    1.019 --     6 C    0.986
    18   1 H    1.008 --    10 C    0.976
    19   1 H    1.009 --    10 C    0.987
    20   1 H    1.008 --    10 C    0.976
 ---------------------------------------------------------------------------

           -------------------------------------------------
          | TOTAL ENERGY              -38.328693686811 Eh   |
          | GRADIENT NORM               0.000391973623 Eh/α |
          | HOMO-LUMO GAP               2.119144528682 eV   |
           -------------------------------------------------

 * finished run on 2023/06/20 at 14:53:22.640
