                         Program Version 5.0.1 -  RELEASE  -
|  1> # ORCA input file
|  2> ! SP r2SCAN-3c CPCM
|  3>
|  4> %maxcore 1875.0
|  5> %pal nprocs 4 end
|  6> %cpcm smd true SMDsolvent "DMSO" end
|  7>
|  8> *xyz 1 1
|  9> C       3.744882    0.250860    0.259009
| 10> F       2.721104   -0.748501    0.419979
| 11> C       1.269625   -0.569966    0.262527
| 12> C       0.740208   -0.941790   -0.945725
| 13> C      -0.637495   -0.800649   -1.070663
| 14> C      -1.407274   -0.305633   -0.016890
| 15> C      -2.890063   -0.074352   -0.200828
| 16> N      -3.112367    1.286476   -0.683113
| 17> C      -0.788168    0.051726    1.182200
| 18> C       0.586683   -0.076651    1.343648
| 19> H       3.605743    0.957820    1.071604
| 20> H       3.586427    0.689488   -0.721732
| 21> H       4.669085   -0.314476    0.333194
| 22> H       1.354999   -1.323463   -1.748282
| 23> H      -1.108845   -1.080466   -2.004956
| 24> H      -3.416319   -0.199555    0.749164
| 25> H      -3.298830   -0.776468   -0.932248
| 26> H      -2.719304    1.936277   -0.015056
| 27> H      -2.607348    1.409140   -1.550692
| 28> H      -1.377720    0.437023    2.005254
| 29> H       1.084979    0.193160    2.263609
| 30> **                         ****END OF INPUT****

CARTESIAN COORDINATES (ANGSTROEM)
---------------------------------
  C      3.744882    0.250860    0.259009
  F      2.721104   -0.748501    0.419979
  C      1.269625   -0.569966    0.262527
  C      0.740208   -0.941790   -0.945725
  C     -0.637495   -0.800649   -1.070663
  C     -1.407274   -0.305633   -0.016890
  C     -2.890063   -0.074352   -0.200828
  N     -3.112367    1.286476   -0.683113
  C     -0.788168    0.051726    1.182200
  C      0.586683   -0.076651    1.343648
  H      3.605743    0.957820    1.071604
  H      3.586427    0.689488   -0.721732
  H      4.669085   -0.314476    0.333194
  H      1.354999   -1.323463   -1.748282
  H     -1.108845   -1.080466   -2.004956
  H     -3.416319   -0.199555    0.749164
  H     -3.298830   -0.776468   -0.932248
  H     -2.719304    1.936277   -0.015056
  H     -2.607348    1.409140   -1.550692
  H     -1.377720    0.437023    2.005254
  H      1.084979    0.193160    2.263609

 Total Charge           Charge          ....    1
 Multiplicity           Mult            ....    1
 Number of Electrons    NEL             ....   74
 Basis Dimension        Dim             ....  255

ORBITAL ENERGIES
----------------

  NO   OCC          E(Eh)            E(eV)
   0   2.0000     -24.635329      -670.3614
   1   2.0000     -14.142533      -384.8379
   2   2.0000     -10.157762      -276.4068
   3   2.0000     -10.142507      -275.9916
   4   2.0000     -10.072555      -274.0881
   5   2.0000     -10.072475      -274.0860
   6   2.0000     -10.061703      -273.7928
   7   2.0000     -10.060202      -273.7520
   8   2.0000     -10.060120      -273.7498
   9   2.0000     -10.059483      -273.7325
  10   2.0000      -1.314415       -35.7671
  11   2.0000      -0.874862       -23.8062
  12   2.0000      -0.852646       -23.2017
  13   2.0000      -0.785529       -21.3753
  14   2.0000      -0.752361       -20.4728
  15   2.0000      -0.726125       -19.7589
  16   2.0000      -0.645137       -17.5551
  17   2.0000      -0.620450       -16.8833
  18   2.0000      -0.597934       -16.2706
  19   2.0000      -0.558440       -15.1959
  20   2.0000      -0.550594       -14.9824
  21   2.0000      -0.537352       -14.6221
  22   2.0000      -0.474654       -12.9160
  23   2.0000      -0.473432       -12.8827
  24   2.0000      -0.443371       -12.0647
  25   2.0000      -0.432996       -11.7824
  26   2.0000      -0.419182       -11.4065
  27   2.0000      -0.408055       -11.1037
  28   2.0000      -0.401522       -10.9260
  29   2.0000      -0.391761       -10.6604
  30   2.0000      -0.375962       -10.2305
  31   2.0000      -0.361306        -9.8316
  32   2.0000      -0.348537        -9.4842
  33   2.0000      -0.327657        -8.9160
  34   2.0000      -0.268010        -7.2929
  35   2.0000      -0.266528        -7.2526
  36   2.0000      -0.216156        -5.8819
  37   0.0000      -0.065374        -1.7789
  38   0.0000      -0.061065        -1.6617
  39   0.0000      -0.051584        -1.4037
  40   0.0000       0.035382         0.9628
  41   0.0000       0.085339         2.3222

MULLIKEN ATOMIC CHARGES
-----------------------
   0 C :   -0.113518
   1 F :   -0.064624
   2 C :    0.348541
   3 C :   -0.228475
   4 C :   -0.172832
   5 C :    0.115810
   6 C :   -0.284909
   7 N :   -0.646250
   8 C :   -0.171255
   9 C :   -0.233596
  10 H :    0.214253
  11 H :    0.211404
  12 H :    0.219869
  13 H :    0.218433
  14 H :    0.201849
  15 H :    0.177284
  16 H :    0.176549
  17 H :    0.306628
  18 H :    0.304936
  19 H :    0.202011
  20 H :    0.217892
Sum of atomic charges:    1.0000000

LOEWDIN ATOMIC CHARGES
----------------------
   0 C :    0.068302
   1 F :   -0.250525
   2 C :    0.216064
   3 C :   -0.114140
   4 C :   -0.126066
   5 C :   -0.058493
   6 C :   -0.054095
   7 N :   -0.718024
   8 C :   -0.125151
   9 C :   -0.114995
  10 H :    0.193505
  11 H :    0.193713
  12 H :    0.200746
  13 H :    0.210485
  14 H :    0.195965
  15 H :    0.190192
  16 H :    0.190025
  17 H :    0.248120
  18 H :    0.247833
  19 H :    0.196049
  20 H :    0.210490

  Mayer bond orders larger than 0.100000
B(  0-C ,  1-F ) :   0.6422 B(  0-C , 10-H ) :   0.9405 B(  0-C , 11-H ) :   0.9402
B(  0-C , 12-H ) :   0.9414 B(  1-F ,  2-C ) :   0.5363 B(  2-C ,  3-C ) :   1.4331
B(  2-C ,  9-C ) :   1.4301 B(  3-C ,  4-C ) :   1.3734 B(  3-C , 13-H ) :   0.9190
B(  4-C ,  5-C ) :   1.3859 B(  4-C , 14-H ) :   0.9394 B(  5-C ,  6-C ) :   0.8638
B(  5-C ,  8-C ) :   1.3802 B(  6-C ,  7-N ) :   0.9810 B(  6-C , 15-H ) :   0.9869
B(  6-C , 16-H ) :   0.9874 B(  7-N , 17-H ) :   0.8977 B(  7-N , 18-H ) :   0.8981
B(  8-C ,  9-C ) :   1.3787 B(  8-C , 19-H ) :   0.9399 B(  9-C , 20-H ) :   0.9178

Dispersion correction           -0.006542719
FINAL SINGLE POINT ENERGY      -465.703783743667

DIPOLE MOMENT
-------------
                                X             Y             Z
Electronic contribution:      8.00675      -3.86759       1.72482
Nuclear contribution   :     -3.77721       4.11104      -1.42020
                        -----------------------------------------
Total Dipole Moment    :      4.22954       0.24344       0.30462
                        -----------------------------------------
Magnitude (a.u.)       :      4.24748
Magnitude (Debye)      :     10.79623

Rotational constants in cm-1:     0.119993     0.021950     0.020637
Rotational constants in MHz :  3597.302516   658.037864   618.683274

                             ****ORCA TERMINATED NORMALLY****
TOTAL RUN TIME: 0 days 0 hours 0 minutes 19 seconds 730 msec
