   * xtb version 6.5.1 (579679a) compiled by 'ehlert@majestix' on 2022-07-11
          program call               : /lustre/hpc/kemi/ree/PhD/git/ReactivityQM/dep/xtb-6.5.1/bin/xtb --gfn 1 /lustre/hpc/kemi/ree/PhD/git/ReactivityQM/calculations/R03/reac01prodN06/conf12/R03_reac01prodN06_conf12_gfn1.xyz --opt --vfukui --chrg 1 --uhf 0 --alpb DMSO

   ID    Z sym.   atoms
    1    6 C      1, 3-7, 9, 10
    2    9 F      2
    3    7 N      8
    4    1 H      11-21

      * Solvation model:               ALPB
        Solvent                        DMSO
        Solvent mass                       7.8130E+01 g/mol
          :  Hamiltonian                  GFN1-xTB          :
 * total energy  :   -30.7201494 Eh     change       -0.2003731E-11 Eh
 * total energy  :   -30.7309675 Eh     change       -0.1081806E-01 Eh
 * total energy  :   -30.7343249 Eh     change       -0.3357482E-02 Eh
 * total energy  :   -30.7348610 Eh     change       -0.5360924E-03 Eh
 * total energy  :   -30.7351870 Eh     change       -0.3259871E-03 Eh
 * total energy  :   -30.7353147 Eh     change       -0.1276828E-03 Eh
 * total energy  :   -30.7353691 Eh     change       -0.5442340E-04 Eh
 * total energy  :   -30.7353974 Eh     change       -0.2824178E-04 Eh
 * total energy  :   -30.7354273 Eh     change       -0.2994982E-04 Eh
 * total energy  :   -30.7354578 Eh     change       -0.3045846E-04 Eh
 * total energy  :   -30.7355692 Eh     change       -0.1778047E-04 Eh
 * total energy  :   -30.7355775 Eh     change       -0.8271795E-05 Eh
 * total energy  :   -30.7355897 Eh     change       -0.1226592E-04 Eh
 * total energy  :   -30.7356061 Eh     change       -0.1635020E-04 Eh
 * total energy  :   -30.7356198 Eh     change       -0.1371308E-04 Eh
 * total energy  :   -30.7356346 Eh     change       -0.1478955E-04 Eh
 * total energy  :   -30.7356461 Eh     change       -0.1147811E-04 Eh
 * total energy  :   -30.7356505 Eh     change       -0.4468230E-05 Eh
 * total energy  :   -30.7356529 Eh     change       -0.2361440E-05 Eh
   *** GEOMETRY OPTIMIZATION CONVERGED AFTER 22 ITERATIONS ***

 final structure:
================
21
 xtb: 6.5.1 (579679a)
C            3.74488249575978        0.25086024688380        0.25900862029800
F            2.72110431167779       -0.74850064838459        0.41997874283560
C            1.26962490208731       -0.56996568235700        0.26252704864313
C            0.74020833069572       -0.94178987585271       -0.94572533012111
C           -0.63749488187949       -0.80064851370475       -1.07066261630731
C           -1.40727449568186       -0.30563250549661       -0.01689025409872
C           -2.89006328831562       -0.07435217299053       -0.20082798574138
N           -3.11236725220090        1.28647559742622       -0.68311345037529
C           -0.78816829644364        0.05172594529669        1.18220040452466
C            0.58668268205740       -0.07665135460117        1.34364824650818
H            3.60574281737764        0.95782008007780        1.07160408614723
H            3.58642693507103        0.68948783494370       -0.72173168426035
H            4.66908471356682       -0.31447563910329        0.33319374331005
H            1.35499857599076       -1.32346297171524       -1.74828234423267
H           -1.10884461238593       -1.08046557247284       -2.00495649129216
H           -3.41631895260275       -0.19955462606104        0.74916398780164
H           -3.29882963679016       -0.77646780702788       -0.93224782865826
H           -2.71930424903668        1.93627693123649       -0.01505607889516
H           -2.60734772698812        1.40914012903591       -1.55069188430894
H           -1.37771955508889        0.43702259146101        2.00525439393615
H            1.08497918313328        0.19316001340576        2.26360867428905

          :  Hamiltonian                  GFN1-xTB          :
         :: total energy             -30.735652880366 Eh    ::
         :: gradient norm              0.000469272249 Eh/a0 ::
         :: HOMO-LUMO gap              2.986501379642 eV    ::
         :: SCC energy               -31.144368047417 Eh    ::
         :: -> Gsolv                  -0.086572832238 Eh    ::
         :: repulsion energy           0.418286426480 Eh    ::

    * Orbital Energies and Occupations

         #    Occupation            Energy/Eh            Energy/eV
      -------------------------------------------------------------
         1        2.0000           -1.0061245             -27.3780
       ...           ...                  ...                  ...
        15        2.0000           -0.5899209             -16.0526
        16        2.0000           -0.5845948             -15.9076
        17        2.0000           -0.5740187             -15.6198
        18        2.0000           -0.5722447             -15.5716
        19        2.0000           -0.5679063             -15.4535
        20        2.0000           -0.5602464             -15.2451
        21        2.0000           -0.5347753             -14.5520
        22        2.0000           -0.5283499             -14.3771
        23        2.0000           -0.5149954             -14.0137
        24        2.0000           -0.4969780             -13.5235
        25        2.0000           -0.4871030             -13.2547
        26        2.0000           -0.4813297             -13.0976
        27        2.0000           -0.4215495             -11.4709 (HOMO)
        28                         -0.3117976              -8.4844 (LUMO)
        29                         -0.3097103              -8.4276
        30                         -0.2567829              -6.9874
        31                         -0.1884592              -5.1282
        32                         -0.1810838              -4.9275
        33                         -0.1419037              -3.8614
        34                         -0.1403842              -3.8200
        35                         -0.1290275              -3.5110
        36                         -0.1258349              -3.4241
        37                         -0.1236479              -3.3646
        38                         -0.1182782              -3.2185
       ...                                ...                  ...
        62                          0.6138452              16.7036
      -------------------------------------------------------------
                  HL-Gap            0.1097519 Eh            2.9865 eV

Wiberg/Mayer (AO) data.
largest (>0.10) Wiberg bond orders for each atom

     #   Z sym  total        # sym  WBO       # sym  WBO       # sym  WBO
 ---------------------------------------------------------------------------
     1   6 C    3.678 --    11 H    0.980    12 H    0.980    13 H    0.974
                             2 F    0.718
     2   9 F    1.437 --     1 C    0.718     3 C    0.632
     3   6 C    3.687 --     4 C    1.432    10 C    1.431     2 F    0.632
     4   6 C    3.984 --     3 C    1.432     5 C    1.425    14 H    0.961
                             9 C    0.109
     5   6 C    3.988 --     4 C    1.425     6 C    1.411    15 H    0.967
                            10 C    0.109
     6   6 C    3.979 --     5 C    1.411     9 C    1.410     7 C    0.998
     7   6 C    3.977 --     6 C    0.998     8 N    0.987    17 H    0.977
                            16 H    0.976
     8   7 N    2.970 --     7 C    0.987    18 H    0.946    19 H    0.946
     9   6 C    3.988 --    10 C    1.426     6 C    1.410    20 H    0.967
                             4 C    0.109
    10   6 C    3.985 --     3 C    1.431     9 C    1.426    21 H    0.961
                             5 C    0.109
    11   1 H    0.993 --     1 C    0.980
    12   1 H    0.993 --     1 C    0.980
    13   1 H    0.992 --     1 C    0.974
    14   1 H    0.990 --     4 C    0.961
    15   1 H    0.995 --     5 C    0.967
    16   1 H    1.007 --     7 C    0.976
    17   1 H    1.007 --     7 C    0.977
    18   1 H    0.958 --     8 N    0.946
    19   1 H    0.958 --     8 N    0.946
    20   1 H    0.994 --     9 C    0.967
    21   1 H    0.990 --    10 C    0.961
 ---------------------------------------------------------------------------

           -------------------------------------------------
          | TOTAL ENERGY              -30.735652880366 Eh   |
          | GRADIENT NORM               0.000469272249 Eh/α |
          | HOMO-LUMO GAP               2.986501379642 eV   |
           -------------------------------------------------

 * finished run on 2023/06/20 at 15:14:57.498
