   * xtb version 6.5.1 (579679a) compiled by 'ehlert@majestix' on 2022-07-11
          program call               : /lustre/hpc/kemi/ree/PhD/git/ReactivityQM/dep/xtb-6.5.1/bin/xtb --gfn 1 /lustre/hpc/kemi/ree/PhD/git/ReactivityQM/calculations/R03/reac02prodE06/conf02/R03_reac02prodE06_conf02_gfn1.xyz --opt --vfukui --chrg -1 --uhf 0 --alpb DMSO

   ID    Z sym.   atoms
    1    6 C      1, 3, 5, 6, 8, 11-16, 18, 20, 23, 24
    2    8 O      2, 4, 7, 9, 19, 25
    3    7 N      10, 17, 21, 22, 26
    4    1 H      27-46

      * Solvation model:               ALPB
        Solvent                        DMSO
        Solvent mass                       7.8130E+01 g/mol
          :  Hamiltonian                  GFN1-xTB          :
 * total energy  :   -87.0454088 Eh     change       -0.3637979E-11 Eh
 * total energy  :   -87.0559224 Eh     change       -0.1051361E-01 Eh
 * total energy  :   -87.0594280 Eh     change       -0.3505573E-02 Eh
 * total energy  :   -87.0601086 Eh     change       -0.6806021E-03 Eh
 * total energy  :   -87.0608892 Eh     change       -0.7806363E-03 Eh
 * total energy  :   -87.0612929 Eh     change       -0.4037037E-03 Eh
 * total energy  :   -87.0616675 Eh     change       -0.3745904E-03 Eh
 * total energy  :   -87.0619913 Eh     change       -0.3238199E-03 Eh
 * total energy  :   -87.0621691 Eh     change       -0.1777397E-03 Eh
 * total energy  :   -87.0622573 Eh     change       -0.8824474E-04 Eh
 * total energy  :   -87.0625631 Eh     change       -0.1741916E-04 Eh
 * total energy  :   -87.0625809 Eh     change       -0.1783528E-04 Eh
 * total energy  :   -87.0625797 Eh     change        0.1199312E-05 Eh
 * total energy  :   -87.0625914 Eh     change       -0.1165306E-04 Eh
 * total energy  :   -87.0626019 Eh     change       -0.1054729E-04 Eh
 * total energy  :   -87.0626063 Eh     change       -0.4388870E-05 Eh
 * total energy  :   -87.0626117 Eh     change       -0.5321894E-05 Eh
 * total energy  :   -87.0626151 Eh     change       -0.3446541E-05 Eh
 * total energy  :   -87.0626192 Eh     change       -0.4095420E-05 Eh
   *** GEOMETRY OPTIMIZATION CONVERGED AFTER 27 ITERATIONS ***

 final structure:
================
46
 xtb: 6.5.1 (579679a)
C           -5.07888940249174       -0.41982702962902       -3.27007454790403
O           -3.98160543430505       -0.32266493878403       -2.36728761466677
C           -4.23463252884971       -0.65032901072923       -1.08923001615321
O           -5.35391540692702       -0.99808901105592       -0.73994957860974
C           -3.05568376279804       -0.54575415579785       -0.20128907414728
C           -3.19117450195666       -0.73083969182592        1.17291908250659
O           -4.38605045879939       -1.10227101890790        1.78501821561268
C           -2.09986589082119       -0.42698693976295        2.04666082529222
O           -2.16945427258396       -0.44139456031643        3.28855932607085
N           -0.92591321153316        0.00874945202714        1.41100784878276
C            0.24289294110495        0.13339641838805        2.28185345824136
C           -0.69505576071574       -0.29231911463227       -0.01571335282420
C           -0.11481289102388       -1.72477983560555       -0.16964249169981
C            0.22324626517432        0.79753688757531       -0.68243597992025
C           -0.40058504331152        2.17298393449945       -0.41564707375478
C            0.31667373977727        0.55660243437979       -2.19808037316505
N            1.59520494026866        0.73132302320497       -0.15312185891179
C            2.56455624891406        1.61812677499469       -0.42832360519900
O            2.43729646575567        2.67674865040440       -1.02767252312360
C            3.88985664577006        1.19791260953474        0.11155161807749
N            5.00479284330036        1.85903381806090        0.06004026143352
N            5.95110166039049        1.08473534376707        0.66678645309770
C            5.35475666068707       -0.00056686073031        1.04896239280168
C            5.94970080448774       -1.16138881960857        1.74679501954185
O            4.04949828132338        0.00691376051743        0.73020740434665
N           -1.90956013037101       -0.23737566500073       -0.79831260724509
H           -5.88268948531002        0.25863787574386       -2.97031792391619
H           -4.70556898887016       -0.14316869692665       -4.25463759361261
H           -5.46640514899071       -1.44225683107851       -3.29073767515395
H           -5.06554602302303       -1.22615424651015        1.09753420165810
H           -0.09894186890754        0.16987667912627        3.31794005104015
H            0.78979868754259        1.05240041170072        2.07047868827413
H            0.92092582860644       -0.71714455241758        2.17153906416543
H            0.90690741267443       -1.81066972525196        0.19288288710887
H           -0.14117846127993       -2.01007804841982       -1.21930426841668
H           -0.73994832090104       -2.41845917820445        0.39125773527439
H           -1.45346702166180        2.13021522767858       -0.69755178453070
H           -0.33110618635341        2.43450313069440        0.63931203503808
H            0.08558195613590        2.94892900073285       -1.00324845715771
H           -0.68401396025868        0.47155671861160       -2.62014414201659
H            0.86878275323828       -0.35855860247825       -2.40586109867883
H            0.83576412186607        1.38837060779214       -2.67363971906757
H            1.89666127665049       -0.15155837595062        0.22749991542219
H            5.41996024024033       -1.34904236777667        2.68041190172107
H            5.86355094255641       -2.05289612184737        1.12541834328455
H            6.99855344557626       -0.96398136018864        1.95448563107896

          :  Hamiltonian                  GFN1-xTB          :
         :: total energy             -87.062619199693 Eh    ::
         :: gradient norm              0.000833547560 Eh/a0 ::
         :: HOMO-LUMO gap              0.484797560743 eV    ::
         :: SCC energy               -87.851059756061 Eh    ::
         :: -> Gsolv                  -0.112317923751 Eh    ::
         :: repulsion energy           0.819498525950 Eh    ::

    * Orbital Energies and Occupations

         #    Occupation            Energy/Eh            Energy/eV
      -------------------------------------------------------------
         1        2.0000           -0.8579214             -23.3452
       ...           ...                  ...                  ...
        59        2.0000           -0.4727348             -12.8638
        60        2.0000           -0.4719714             -12.8430
        61        2.0000           -0.4639444             -12.6246
        62        2.0000           -0.4517477             -12.2927
        63        2.0000           -0.4502913             -12.2531
        64        2.0000           -0.4439640             -12.0809
        65        2.0000           -0.4385870             -11.9346
        66        2.0000           -0.4283535             -11.6561
        67        2.0000           -0.4255260             -11.5792
        68        2.0000           -0.3993083             -10.8657
        69        2.0000           -0.3827253             -10.4145
        70        2.0000           -0.3737283             -10.1697
        71        1.9998           -0.3171305              -8.6296 (HOMO)
        72        0.0002           -0.2993145              -8.1448 (LUMO)
        73                         -0.2693614              -7.3297
        74                         -0.2503154              -6.8114
        75                         -0.1890430              -5.1441
        76                         -0.1883305              -5.1247
        77                         -0.1386522              -3.7729
        78                         -0.1254196              -3.4128
        79                         -0.1192425              -3.2448
        80                         -0.1123022              -3.0559
        81                         -0.1039266              -2.8280
        82                         -0.0979781              -2.6661
       ...                                ...                  ...
       144                          0.7392675              20.1165
      -------------------------------------------------------------
                  HL-Gap            0.0178160 Eh            0.4848 eV

Wiberg/Mayer (AO) data.
largest (>0.10) Wiberg bond orders for each atom

     #   Z sym  total        # sym  WBO       # sym  WBO       # sym  WBO
 ---------------------------------------------------------------------------
     1   6 C    3.890 --    28 H    0.987    27 H    0.980    29 H    0.980
                             2 O    0.914
     2   8 O    2.189 --     3 C    1.091     1 C    0.914     4 O    0.118
     3   6 C    3.820 --     4 O    1.599     2 O    1.091     5 C    1.026
     4   8 O    1.918 --     3 C    1.599     2 O    0.118
     5   6 C    3.971 --    26 N    1.386     6 C    1.339     3 C    1.026
     6   6 C    3.878 --     5 C    1.339     8 C    1.174     7 O    0.989
                            26 N    0.187
     7   8 O    1.961 --     6 C    0.989    30 H    0.829
     8   6 C    3.917 --     9 O    1.484     6 C    1.174    10 N    1.094
     9   8 O    1.810 --     8 C    1.484    10 N    0.115
    10   7 N    3.251 --     8 C    1.094    11 C    0.962    12 C    0.924
                             9 O    0.115
    11   6 C    3.963 --    32 H    0.983    33 H    0.980    31 H    0.974
                            10 N    0.962
    12   6 C    3.946 --    26 N    1.007    13 C    0.971    14 C    0.948
                            10 N    0.924
    13   6 C    3.995 --    36 H    0.984    35 H    0.982    34 H    0.977
                            12 C    0.971
    14   6 C    3.916 --    15 C    1.000    16 C    0.992    12 C    0.948
                            17 N    0.907
    15   6 C    3.994 --    14 C    1.000    38 H    0.983    39 H    0.983
                            37 H    0.981
    16   6 C    3.992 --    14 C    0.992    41 H    0.985    42 H    0.984
                            40 H    0.979
    17   7 N    3.377 --    18 C    1.286    14 C    0.907    43 H    0.898
                            19 O    0.182
    18   6 C    3.922 --    19 O    1.567    17 N    1.286    20 C    0.984
    19   8 O    1.886 --    18 C    1.567    17 N    0.182
    20   6 C    3.867 --    21 N    1.627    25 O    1.047    18 C    0.984
    21   7 N    2.995 --    20 C    1.627    22 N    1.192
    22   7 N    2.980 --    23 C    1.617    21 N    1.192
    23   6 C    3.871 --    22 N    1.617    25 O    1.071    24 C    1.031
    24   6 C    3.987 --    23 C    1.031    46 H    0.983    44 H    0.965
                            45 H    0.963
    25   8 O    2.316 --    23 C    1.071    20 C    1.047
    26   7 N    2.918 --     5 C    1.386    12 C    1.007     6 C    0.187
    27   1 H    1.011 --     1 C    0.980
    28   1 H    1.014 --     1 C    0.987
    29   1 H    1.011 --     1 C    0.980
    30   1 H    0.891 --     7 O    0.829
    31   1 H    1.021 --    11 C    0.974
    32   1 H    1.020 --    11 C    0.983
    33   1 H    1.005 --    11 C    0.980
    34   1 H    1.002 --    13 C    0.977
    35   1 H    1.014 --    13 C    0.982
    36   1 H    1.006 --    13 C    0.984
    37   1 H    1.021 --    15 C    0.981
    38   1 H    1.009 --    15 C    0.983
    39   1 H    1.018 --    15 C    0.983
    40   1 H    1.030 --    16 C    0.979
    41   1 H    1.007 --    16 C    0.985
    42   1 H    1.009 --    16 C    0.984
    43   1 H    0.959 --    17 N    0.898
    44   1 H    0.997 --    24 C    0.965
    45   1 H    0.997 --    24 C    0.963
    46   1 H    0.999 --    24 C    0.983
 ---------------------------------------------------------------------------

           -------------------------------------------------
          | TOTAL ENERGY              -87.062619199693 Eh   |
          | GRADIENT NORM               0.000833547560 Eh/α |
          | HOMO-LUMO GAP               0.484797560743 eV   |
           -------------------------------------------------

 * finished run on 2023/06/20 at 15:20:21.617
