   * xtb version 6.5.1 (579679a) compiled by 'ehlert@majestix' on 2022-07-11
          program call               : /lustre/hpc/kemi/ree/PhD/git/ReactivityQM/dep/xtb-6.5.1/bin/xtb --gfn 1 /lustre/hpc/kemi/ree/PhD/git/ReactivityQM/calculations/R03/reac02prodE12/conf15/R03_reac02prodE12_conf15_gfn1.xyz --opt --vfukui --chrg -1 --uhf 0 --alpb DMSO

   ID    Z sym.   atoms
    1    6 C      1, 3, 5, 6, 8, 9, 12-16, 18, 20, 23, 24
    2    8 O      2, 4, 7, 10, 19, 25
    3    7 N      11, 17, 21, 22, 26
    4    1 H      27-46

      * Solvation model:               ALPB
        Solvent                        DMSO
        Solvent mass                       7.8130E+01 g/mol
          :  Hamiltonian                  GFN1-xTB          :
 * total energy  :   -87.0217018 Eh     change       -0.1114131E-10 Eh
 * total energy  :   -87.0360607 Eh     change       -0.1435898E-01 Eh
 * total energy  :   -87.0423619 Eh     change       -0.6301201E-02 Eh
 * total energy  :   -87.0436812 Eh     change       -0.1319238E-02 Eh
 * total energy  :   -87.0444768 Eh     change       -0.7955807E-03 Eh
 * total energy  :   -87.0447929 Eh     change       -0.3161590E-03 Eh
 * total energy  :   -87.0449882 Eh     change       -0.1952893E-03 Eh
 * total energy  :   -87.0451132 Eh     change       -0.1250264E-03 Eh
 * total energy  :   -87.0452131 Eh     change       -0.9991165E-04 Eh
 * total energy  :   -87.0452933 Eh     change       -0.8016962E-04 Eh
 * total energy  :   -87.0459181 Eh     change       -0.8838860E-05 Eh
 * total energy  :   -87.0459356 Eh     change       -0.1751560E-04 Eh
 * total energy  :   -87.0459515 Eh     change       -0.1590147E-04 Eh
 * total energy  :   -87.0459296 Eh     change        0.2198463E-04 Eh
 * total energy  :   -87.0459652 Eh     change       -0.3560432E-04 Eh
 * total energy  :   -87.0459719 Eh     change       -0.6751962E-05 Eh
 * total energy  :   -87.0459824 Eh     change       -0.1049381E-04 Eh
 * total energy  :   -87.0459891 Eh     change       -0.6692068E-05 Eh
 * total energy  :   -87.0459916 Eh     change       -0.2479898E-05 Eh
   *** GEOMETRY OPTIMIZATION CONVERGED AFTER 44 ITERATIONS ***

 final structure:
================
46
 xtb: 6.5.1 (579679a)
C           -4.37316240954922        2.19385404145624        2.96119103181856
O           -3.47447137013400        1.63066299449161        2.01224692015931
C           -3.70514900558718        0.34730519288213        1.66810899024811
O           -4.63480704546417       -0.28395718192086        2.17227395064342
C           -2.78586491728840       -0.19253991097547        0.68070838357279
C           -2.90868656186087       -1.47379656695244        0.23092124036552
O           -3.86058918337895       -2.31206687345049        0.66204570183682
C           -2.01463392964658       -2.03926770998661       -0.91133921733599
C           -2.67511831555924       -1.54138315274423       -2.25091647643268
O           -1.74526424761793       -3.29147494440282       -0.87258410112820
N           -0.69285651732664       -1.14366447900738       -0.78799149981634
C            0.47649530585133       -1.76793910928864       -1.37948797418492
C           -0.77690653580411        0.15243630481605       -0.43931392803224
C            0.28896849719267        1.18564832235814       -0.84427045436931
C            0.10223899740371        2.47550710525662       -0.03271552816566
C            0.13069258821208        1.50944502825953       -2.33456693852703
N            1.65482094013478        0.69573224936644       -0.63453082558630
C            2.16014174751142        0.37011335901983        0.56962805390031
O            1.55473482059634        0.37797622294760        1.62799707777579
C            3.58880218400014       -0.03956064164611        0.44893315618982
N            4.26232726895170       -0.15390519365649       -0.65670896351699
N            5.51633967045663       -0.56631532948764       -0.31306579609537
C            5.52679005868515       -0.67642170606221        0.98010732430324
C            6.66148955808180       -1.08054446990002        1.83955972574018
O            4.33970048857977       -0.36021003040286        1.51956110764408
N           -1.77194547333514        0.66248592382668        0.21952664081605
H           -4.35304411607939        1.62528062170653        3.89560920576998
H           -5.39395629674844        2.19375773502086        2.56822072784396
H           -4.04584070620497        3.21656921072337        3.14136129020109
H           -4.42383034707529       -1.86303324447986        1.33453888742503
H           -2.81293643040847       -0.46212787883027       -2.25403653906293
H           -3.64065878576908       -2.03292684403429       -2.35877880976141
H           -2.03575007440447       -1.82893962203317       -3.08294606904068
H            0.81217758393479       -1.24813314819969       -2.27928575721534
H            0.20774071376004       -2.79469774451459       -1.64872674776602
H            1.30415257271802       -1.80811336462316       -0.66719459375963
H           -0.86220466374121        2.91906582397887       -0.27430609958135
H            0.89337834818629        3.18198149010592       -0.27890322729408
H            0.12797325046211        2.26357665405151        1.03523532843976
H           -0.88479040970183        1.85584628346624       -2.52179730830363
H            0.82674081270963        2.29581236656307       -2.62286713764826
H            0.31992565868459        0.63550472433389       -2.95457474010108
H            2.28216972498364        0.70326909015539       -1.42213038914037
H            7.47333675140247       -1.45228237970116        1.21949241460044
H            6.34695210281898       -1.85356012816548        2.53957254543190
H            7.01437669736065       -0.22497009032097        2.41589441714446

          :  Hamiltonian                  GFN1-xTB          :
         :: total energy             -87.045991581957 Eh    ::
         :: gradient norm              0.000344382198 Eh/a0 ::
         :: HOMO-LUMO gap              1.127533650343 eV    ::
         :: SCC energy               -87.840748641986 Eh    ::
         :: -> Gsolv                  -0.128165025735 Eh    ::
         :: repulsion energy           0.824976576641 Eh    ::

    * Orbital Energies and Occupations

         #    Occupation            Energy/Eh            Energy/eV
      -------------------------------------------------------------
         1        2.0000           -0.8580029             -23.3474
       ...           ...                  ...                  ...
        59        2.0000           -0.4690138             -12.7625
        60        2.0000           -0.4649229             -12.6512
        61        2.0000           -0.4572868             -12.4434
        62        2.0000           -0.4551619             -12.3856
        63        2.0000           -0.4514052             -12.2834
        64        2.0000           -0.4441020             -12.0846
        65        2.0000           -0.4415560             -12.0154
        66        2.0000           -0.4298638             -11.6972
        67        2.0000           -0.4117353             -11.2039
        68        2.0000           -0.3896530             -10.6030
        69        2.0000           -0.3687731             -10.0348
        70        2.0000           -0.3561117              -9.6903
        71        2.0000           -0.3425459              -9.3211 (HOMO)
        72                         -0.3011098              -8.1936 (LUMO)
        73                         -0.2655696              -7.2265
        74                         -0.2520479              -6.8586
        75                         -0.2201490              -5.9906
        76                         -0.1898600              -5.1664
        77                         -0.1405975              -3.8259
        78                         -0.1354211              -3.6850
        79                         -0.1257546              -3.4220
        80                         -0.1245515              -3.3892
        81                         -0.1100307              -2.9941
        82                         -0.1020648              -2.7773
       ...                                ...                  ...
       144                          0.7342880              19.9810
      -------------------------------------------------------------
                  HL-Gap            0.0414361 Eh            1.1275 eV

Wiberg/Mayer (AO) data.
largest (>0.10) Wiberg bond orders for each atom

     #   Z sym  total        # sym  WBO       # sym  WBO       # sym  WBO
 ---------------------------------------------------------------------------
     1   6 C    3.891 --    29 H    0.987    28 H    0.980    27 H    0.980
                             2 O    0.917
     2   8 O    2.175 --     3 C    1.073     1 C    0.917     4 O    0.108
     3   6 C    3.840 --     4 O    1.544     5 C    1.101     2 O    1.073
     4   8 O    1.899 --     3 C    1.544     2 O    0.108
     5   6 C    3.946 --     6 C    1.539     3 C    1.101    26 N    1.072
     6   6 C    3.871 --     5 C    1.539     7 O    1.116     8 C    0.905
     7   8 O    2.087 --     6 C    1.116    30 H    0.791
     8   6 C    3.924 --    10 O    1.287     9 C    0.919     6 C    0.905
                            11 N    0.727
     9   6 C    3.990 --    31 H    0.990    32 H    0.985    33 H    0.985
                             8 C    0.919
    10   8 O    1.576 --     8 C    1.287
    11   7 N    3.341 --    13 C    1.271    12 C    0.968     8 C    0.727
                            26 N    0.176
    12   6 C    3.962 --    36 H    0.983    34 H    0.976    35 H    0.971
                            11 N    0.968
    13   6 C    3.952 --    26 N    1.552    11 N    1.271    14 C    0.952
    14   6 C    3.924 --    15 C    0.993    16 C    0.991    13 C    0.952
                            17 N    0.915
    15   6 C    3.993 --    14 C    0.993    38 H    0.987    37 H    0.984
                            39 H    0.981
    16   6 C    3.994 --    14 C    0.991    41 H    0.984    40 H    0.984
                            42 H    0.979
    17   7 N    3.366 --    18 C    1.267    14 C    0.915    43 H    0.901
                            19 O    0.183
    18   6 C    3.921 --    19 O    1.586    17 N    1.267    20 C    0.982
    19   8 O    1.893 --    18 C    1.586    17 N    0.183
    20   6 C    3.870 --    21 N    1.614    25 O    1.062    18 C    0.982
    21   7 N    3.013 --    20 C    1.614    22 N    1.194
    22   7 N    2.980 --    23 C    1.611    21 N    1.194
    23   6 C    3.873 --    22 N    1.611    25 O    1.081    24 C    1.030
    24   6 C    3.987 --    23 C    1.030    44 H    0.982    45 H    0.969
                            46 H    0.961
    25   8 O    2.326 --    23 C    1.081    20 C    1.062
    26   7 N    2.968 --    13 C    1.552     5 C    1.072    11 N    0.176
    27   1 H    1.012 --     1 C    0.980
    28   1 H    1.012 --     1 C    0.980
    29   1 H    1.014 --     1 C    0.987
    30   1 H    0.877 --     7 O    0.791
    31   1 H    1.010 --     9 C    0.990
    32   1 H    1.013 --     9 C    0.985
    33   1 H    1.013 --     9 C    0.985
    34   1 H    1.011 --    12 C    0.976
    35   1 H    1.027 --    12 C    0.971
    36   1 H    1.016 --    12 C    0.983
    37   1 H    1.021 --    15 C    0.984
    38   1 H    1.004 --    15 C    0.987
    39   1 H    1.023 --    15 C    0.981
    40   1 H    1.006 --    16 C    0.984
    41   1 H    1.000 --    16 C    0.984
    42   1 H    1.004 --    16 C    0.979
    43   1 H    0.958 --    17 N    0.901
    44   1 H    0.999 --    24 C    0.982
    45   1 H    0.997 --    24 C    0.969
    46   1 H    0.997 --    24 C    0.961
 ---------------------------------------------------------------------------

           -------------------------------------------------
          | TOTAL ENERGY              -87.045991581957 Eh   |
          | GRADIENT NORM               0.000344382198 Eh/α |
          | HOMO-LUMO GAP               1.127533650343 eV   |
           -------------------------------------------------

 * finished run on 2023/06/20 at 15:32:31.520
