   * xtb version 6.5.1 (579679a) compiled by 'ehlert@majestix' on 2022-07-11
          program call               : /lustre/hpc/kemi/ree/PhD/git/ReactivityQM/dep/xtb-6.5.1/bin/xtb --gfn 1 /lustre/hpc/kemi/ree/PhD/git/ReactivityQM/calculations/R02/reac01/conf02/R02_reac01_conf02_gfn1.xyz --opt --vfukui --chrg 0 --uhf 0 --alpb DMSO

   ID    Z sym.   atoms
    1    6 C      1, 3, 5, 7-10, 12, 14, 17, 18, 21, 23
    2    8 O      2, 4, 13, 19, 22, 24
    3    7 N      6, 11, 15, 16, 20
    4    1 H      25-39

      * Solvation model:               ALPB
        Solvent                        DMSO
        Solvent mass                       7.8130E+01 g/mol
          :  Hamiltonian                  GFN1-xTB          :
 * total energy  :   -79.8134419 Eh     change       -0.1013234E-10 Eh
 * total energy  :   -79.8238992 Eh     change       -0.1045736E-01 Eh
 * total energy  :   -79.8278646 Eh     change       -0.3965346E-02 Eh
 * total energy  :   -79.8285196 Eh     change       -0.6550497E-03 Eh
 * total energy  :   -79.8289676 Eh     change       -0.4479780E-03 Eh
 * total energy  :   -79.8291867 Eh     change       -0.2191130E-03 Eh
 * total energy  :   -79.8293632 Eh     change       -0.1765374E-03 Eh
 * total energy  :   -79.8294971 Eh     change       -0.1338256E-03 Eh
 * total energy  :   -79.8295941 Eh     change       -0.9702348E-04 Eh
 * total energy  :   -79.8296605 Eh     change       -0.6645046E-04 Eh
 * total energy  :   -79.8300887 Eh     change       -0.1849095E-04 Eh
 * total energy  :   -79.8300958 Eh     change       -0.7129206E-05 Eh
 * total energy  :   -79.8301103 Eh     change       -0.1445765E-04 Eh
 * total energy  :   -79.8301221 Eh     change       -0.1179377E-04 Eh
 * total energy  :   -79.8301354 Eh     change       -0.1339098E-04 Eh
 * total energy  :   -79.8301503 Eh     change       -0.1486406E-04 Eh
 * total energy  :   -79.8301338 Eh     change        0.1646943E-04 Eh
 * total energy  :   -79.8301784 Eh     change       -0.4457252E-04 Eh
 * total energy  :   -79.8301833 Eh     change       -0.4934872E-05 Eh
   *** GEOMETRY OPTIMIZATION CONVERGED AFTER 31 ITERATIONS ***

 final structure:
================
39
 xtb: 6.5.1 (579679a)
C           -6.02997865724732        0.96292933383331        1.95605010406056
O           -4.77137130632743        0.27579440642327        1.88487836708342
C           -3.97777655966768        0.60977371510234        0.85739411699842
O           -4.28832600018449        1.43562656660554        0.03321349830539
C           -2.69221127364286       -0.14271747962296        0.83734626330478
N           -1.87760536728721        0.22902656022832       -0.20589655191024
C           -0.73198759023741       -0.33803119128954       -0.35623557092825
C            0.13124073821746        0.00869307781498       -1.54986665364266
C           -0.26092445749233        1.37915757208649       -2.11007791192157
C           -0.07119506628245       -1.09983136972929       -2.59540399204515
N            1.52841086971292        0.03406454150912       -1.10171238607559
C            2.56574783948729        0.24217135101305       -1.94486525389362
O            2.48831690658456        0.31802027824964       -3.15873027705088
C            3.86327732047813        0.35131674933009       -1.23314766193809
N            5.04090834607633        0.50493896718898       -1.75379693918935
N            5.92536475521153        0.55676538220397       -0.71931959487660
C            5.23376802097101        0.43295808056606        0.37068070959368
C            5.72909846685405        0.42517564024147        1.76411582991314
O            3.92158903467246        0.29852965133676        0.11588323161876
N           -0.29442839646879       -1.32086231601923        0.48311607896946
C           -1.01373457616866       -1.78703113765520        1.56647225078003
O           -0.57159107080575       -2.66774827260552        2.28148562838101
C           -2.31332538860696       -1.11869318593814        1.72430337100340
O           -3.02964843300043       -1.55787096261957        2.76361621830170
H           -6.54814885488703        0.57322041799540        2.82858976402023
H           -6.60894228569581        0.77093593079590        1.05007533220736
H           -5.86011833799315        2.03667911461636        2.06088205738650
H           -0.06275081801944        2.15240557084157       -1.36978300672863
H            0.31022358298203        1.58892855005465       -3.01252792344967
H           -1.32362780366120        1.38167296311159       -2.34729651930430
H            0.26556468612217       -2.05377745642251       -2.19409095772927
H           -1.12998688907879       -1.17089795035260       -2.83984242767821
H            0.48770218357422       -0.87466667664150       -3.50130532383553
H            1.70291636655315        0.12579411180870       -0.11477890142717
H            6.80113868548030        0.60795583070355        1.77374003536077
H            5.51885065534255       -0.53912988699293        2.22711590167639
H            5.21909899084402        1.19400207014176        2.34370259999992
H            0.60705343837732       -1.74803768392660        0.33202310764258
H           -3.88259175479260       -1.09802086398762        2.85399638701095

          :  Hamiltonian                  GFN1-xTB          :
         :: total energy             -79.830183345224 Eh    ::
         :: gradient norm              0.000661667848 Eh/a0 ::
         :: HOMO-LUMO gap              2.880477623166 eV    ::
         :: SCC energy               -80.578428386320 Eh    ::
         :: -> Gsolv                  -0.061376254978 Eh    ::
         :: repulsion energy           0.771596626734 Eh    ::

    * Orbital Energies and Occupations

         #    Occupation            Energy/Eh            Energy/eV
      -------------------------------------------------------------
         1        2.0000           -0.8661127             -23.5681
       ...           ...                  ...                  ...
        52        2.0000           -0.5056410             -13.7592
        53        2.0000           -0.5013839             -13.6434
        54        2.0000           -0.4999898             -13.6054
        55        2.0000           -0.4883552             -13.2888
        56        2.0000           -0.4868727             -13.2485
        57        2.0000           -0.4805834             -13.0773
        58        2.0000           -0.4678676             -12.7313
        59        2.0000           -0.4618787             -12.5684
        60        2.0000           -0.4596247             -12.5070
        61        2.0000           -0.4522900             -12.3074
        62        2.0000           -0.4517407             -12.2925
        63        2.0000           -0.4481124             -12.1938
        64        2.0000           -0.4314608             -11.7406 (HOMO)
        65                         -0.3256052              -8.8602 (LUMO)
        66                         -0.3121589              -8.4943
        67                         -0.2841496              -7.7321
        68                         -0.2571639              -6.9978
        69                         -0.2422367              -6.5916
        70                         -0.1999271              -5.4403
        71                         -0.1603547              -4.3635
        72                         -0.1421877              -3.8691
        73                         -0.1373058              -3.7363
        74                         -0.1273708              -3.4659
        75                         -0.1237860              -3.3684
       ...                                ...                  ...
       126                          0.7332456              19.9526
      -------------------------------------------------------------
                  HL-Gap            0.1058556 Eh            2.8805 eV

Wiberg/Mayer (AO) data.
largest (>0.10) Wiberg bond orders for each atom

     #   Z sym  total        # sym  WBO       # sym  WBO       # sym  WBO
 ---------------------------------------------------------------------------
     1   6 C    3.861 --    25 H    0.986    26 H    0.980    27 H    0.980
                             2 O    0.884
     2   8 O    2.204 --     3 C    1.088     1 C    0.884     4 O    0.130
     3   6 C    3.847 --     4 O    1.672     2 O    1.088     5 C    1.006
     4   8 O    1.933 --     3 C    1.672     2 O    0.130
     5   6 C    3.963 --    23 C    1.503     6 N    1.171     3 C    1.006
     6   7 N    3.028 --     7 C    1.596     5 C    1.171
     7   6 C    3.930 --     6 N    1.596    20 N    1.166     8 C    0.982
     8   6 C    3.934 --     9 C    0.990     7 C    0.982    10 C    0.975
                            11 N    0.923
     9   6 C    3.988 --     8 C    0.990    28 H    0.985    29 H    0.983
                            30 H    0.983
    10   6 C    3.987 --    32 H    0.985    31 H    0.985    33 H    0.977
                             8 C    0.975
    11   7 N    3.335 --    12 C    1.245     8 C    0.923    34 H    0.894
                            13 O    0.173
    12   6 C    3.915 --    13 O    1.593    11 N    1.245    14 C    0.993
    13   8 O    1.909 --    12 C    1.593    11 N    0.173
    14   6 C    3.872 --    15 N    1.622    19 O    1.046    12 C    0.993
    15   7 N    3.000 --    14 C    1.622    16 N    1.199
    16   7 N    2.982 --    17 C    1.610    15 N    1.199
    17   6 C    3.868 --    16 N    1.610    19 O    1.072    18 C    1.032
    18   6 C    3.986 --    17 C    1.032    35 H    0.982    37 H    0.964
                            36 H    0.961
    19   8 O    2.316 --    17 C    1.072    14 C    1.046
    20   7 N    3.459 --     7 C    1.166    21 C    1.121    38 H    0.883
                            22 O    0.135
    21   6 C    3.908 --    22 O    1.605    20 N    1.121    23 C    1.053
    22   8 O    1.901 --    21 C    1.605    20 N    0.135
    23   6 C    3.919 --     5 C    1.503    24 O    1.112    21 C    1.053
    24   8 O    2.092 --    23 C    1.112    39 H    0.799
    25   1 H    1.009 --     1 C    0.986
    26   1 H    1.006 --     1 C    0.980
    27   1 H    1.006 --     1 C    0.980
    28   1 H    1.003 --     9 C    0.985
    29   1 H    1.007 --     9 C    0.983
    30   1 H    1.011 --     9 C    0.983
    31   1 H    1.001 --    10 C    0.985
    32   1 H    1.001 --    10 C    0.985
    33   1 H    1.010 --    10 C    0.977
    34   1 H    0.938 --    11 N    0.894
    35   1 H    0.998 --    18 C    0.982
    36   1 H    0.996 --    18 C    0.961
    37   1 H    0.997 --    18 C    0.964
    38   1 H    0.928 --    20 N    0.883
    39   1 H    0.851 --    24 O    0.799
 ---------------------------------------------------------------------------

           -------------------------------------------------
          | TOTAL ENERGY              -79.830183345224 Eh   |
          | GRADIENT NORM               0.000661667848 Eh/α |
          | HOMO-LUMO GAP               2.880477623166 eV   |
           -------------------------------------------------

 * finished run on 2023/06/20 at 14:52:02.763
