                         Program Version 5.0.1 -  RELEASE  -
|  1> # ORCA input file
|  2> ! SP r2SCAN-3c CPCM
|  3>
|  4> %maxcore 1875.0
|  5> %pal nprocs 4 end
|  6> %cpcm smd true SMDsolvent "DMSO" end
|  7>
|  8> *xyz 1 1
|  9> C       5.910726    3.052411    0.451933
| 10> F       5.997212    1.638933    0.730383
| 11> C       4.913046    0.666196    0.903066
| 12> C       4.656309   -0.152829   -0.166505
| 13> C       3.656401   -1.099624    0.022677
| 14> C       2.972250   -1.180096    1.236020
| 15> C       1.870444   -2.204067    1.407928
| 16> N       0.649146   -1.735591    0.775239
| 17> C       0.423614   -1.929989   -0.537039
| 18> O       1.178879   -2.585287   -1.259114
| 19> C      -0.830027   -1.325706   -1.039360
| 20> N      -1.558440   -0.587485   -0.152509
| 21> C      -2.673083   -0.024507   -0.512235
| 22> C      -3.410218    0.740739    0.580924
| 23> C      -2.485425    0.899956    1.798177
| 24> C      -4.663180   -0.042646    0.998923
| 25> N      -3.799224    2.064748    0.099002
| 26> N      -3.164402   -0.168698   -1.780153
| 27> C      -4.429538    0.415556   -2.240672
| 28> C      -2.512717   -0.918482   -2.761802
| 29> O      -3.002481   -1.044439   -3.876804
| 30> C      -1.251324   -1.506858   -2.330000
| 31> O      -0.576698   -2.219570   -3.241219
| 32> C       3.286761   -0.306051    2.274800
| 33> C       4.284637    0.651313    2.120920
| 34> H       6.455519    3.526206    1.263389
| 35> H       4.852953    3.297522    0.447134
| 36> H       6.383493    3.174861   -0.518500
| 37> H       5.202686   -0.069823   -1.095291
| 38> H       3.406563   -1.777488   -0.785304
| 39> H       1.664183   -2.374276    2.465853
| 40> H       2.156912   -3.146231    0.930568
| 41> H       0.064109   -1.081845    1.274587
| 42> H      -2.230687   -0.072054    2.216836
| 43> H      -1.567478    1.406005    1.506090
| 44> H      -2.988457    1.494091    2.559305
| 45> H      -5.118257    0.437741    1.863830
| 46> H      -4.389000   -1.061960    1.268623
| 47> H      -5.395233   -0.073638    0.194098
| 48> H      -4.328597    2.528158    0.825570
| 49> H      -2.964933    2.612264   -0.063536
| 50> H      -4.288313    0.774011   -3.261165
| 51> H      -5.203355   -0.353243   -2.236737
| 52> H      -4.713409    1.244571   -1.600186
| 53> H       0.255164   -2.557784   -2.835261
| 54> H       2.756535   -0.362820    3.217150
| 55> H       4.546933    1.337806    2.912930
| 56> **                         ****END OF INPUT****

CARTESIAN COORDINATES (ANGSTROEM)
---------------------------------
  C      5.910726    3.052411    0.451933
  F      5.997212    1.638933    0.730383
  C      4.913046    0.666196    0.903066
  C      4.656309   -0.152829   -0.166505
  C      3.656401   -1.099624    0.022677
  C      2.972250   -1.180096    1.236020
  C      1.870444   -2.204067    1.407928
  N      0.649146   -1.735591    0.775239
  C      0.423614   -1.929989   -0.537039
  O      1.178879   -2.585287   -1.259114
  C     -0.830027   -1.325706   -1.039360
  N     -1.558440   -0.587485   -0.152509
  C     -2.673083   -0.024507   -0.512235
  C     -3.410218    0.740739    0.580924
  C     -2.485425    0.899956    1.798177
  C     -4.663180   -0.042646    0.998923
  N     -3.799224    2.064748    0.099002
  N     -3.164402   -0.168698   -1.780153
  C     -4.429538    0.415556   -2.240672
  C     -2.512717   -0.918482   -2.761802
  O     -3.002481   -1.044439   -3.876804
  C     -1.251324   -1.506858   -2.330000
  O     -0.576698   -2.219570   -3.241219
  C      3.286761   -0.306051    2.274800
  C      4.284637    0.651313    2.120920
  H      6.455519    3.526206    1.263389
  H      4.852953    3.297522    0.447134
  H      6.383493    3.174861   -0.518500
  H      5.202686   -0.069823   -1.095291
  H      3.406563   -1.777488   -0.785304
  H      1.664183   -2.374276    2.465853
  H      2.156912   -3.146231    0.930568
  H      0.064109   -1.081845    1.274587
  H     -2.230687   -0.072054    2.216836
  H     -1.567478    1.406005    1.506090
  H     -2.988457    1.494091    2.559305
  H     -5.118257    0.437741    1.863830
  H     -4.389000   -1.061960    1.268623
  H     -5.395233   -0.073638    0.194098
  H     -4.328597    2.528158    0.825570
  H     -2.964933    2.612264   -0.063536
  H     -4.288313    0.774011   -3.261165
  H     -5.203355   -0.353243   -2.236737
  H     -4.713409    1.244571   -1.600186
  H      0.255164   -2.557784   -2.835261
  H      2.756535   -0.362820    3.217150
  H      4.546933    1.337806    2.912930

 Total Charge           Charge          ....    1
 Multiplicity           Mult            ....    1
 Number of Electrons    NEL             ....  184
 Basis Dimension        Dim             ....  625

ORBITAL ENERGIES
----------------

  NO   OCC          E(Eh)            E(eV)
   0   2.0000     -24.635026      -670.3531
   1   2.0000     -18.988272      -516.6972
   2   2.0000     -18.938743      -515.3494
   3   2.0000     -18.925492      -514.9888
   4   2.0000     -14.234523      -387.3411
   5   2.0000     -14.194862      -386.2618
   6   2.0000     -14.161384      -385.3508
   7   2.0000     -14.136941      -384.6857
   8   2.0000     -10.161341      -276.5041
   9   2.0000     -10.144472      -276.0451
  10   2.0000     -10.143191      -276.0102
  11   2.0000     -10.140992      -275.9504
  12   2.0000     -10.119539      -275.3667
  13   2.0000     -10.115245      -275.2498
  14   2.0000     -10.082717      -274.3647
  15   2.0000     -10.082567      -274.3606
  16   2.0000     -10.077504      -274.2228
  17   2.0000     -10.074494      -274.1409
  18   2.0000     -10.074154      -274.1317
  19   2.0000     -10.068276      -273.9717
  20   2.0000     -10.063846      -273.8512
  21   2.0000     -10.061959      -273.7998
  22   2.0000     -10.050392      -273.4851
  23   2.0000     -10.019880      -272.6548
  24   2.0000     -10.011283      -272.4209
  25   2.0000      -1.314446       -35.7679
  26   2.0000      -1.047627       -28.5074
  27   2.0000      -1.021279       -27.7904
  28   2.0000      -1.012590       -27.5540
  29   2.0000      -0.961653       -26.1679
  30   2.0000      -0.908549       -24.7229
  31   2.0000      -0.881190       -23.9784
  32   2.0000      -0.870188       -23.6790
  33   2.0000      -0.865774       -23.5589
  34   2.0000      -0.794188       -21.6110
  35   2.0000      -0.764368       -20.7995
  36   2.0000      -0.754582       -20.5332
  37   2.0000      -0.740244       -20.1431
  38   2.0000      -0.716220       -19.4893
  39   2.0000      -0.704210       -19.1625
  40   2.0000      -0.672080       -18.2882
  41   2.0000      -0.655619       -17.8403
  42   2.0000      -0.634201       -17.2575
  43   2.0000      -0.629652       -17.1337
  44   2.0000      -0.623237       -16.9591
  45   2.0000      -0.608118       -16.5477
  46   2.0000      -0.567131       -15.4324
  47   2.0000      -0.558905       -15.2086
  48   2.0000      -0.557960       -15.1829
  49   2.0000      -0.550482       -14.9794
  50   2.0000      -0.538649       -14.6574
  51   2.0000      -0.531612       -14.4659
  52   2.0000      -0.519788       -14.1441
  53   2.0000      -0.497900       -13.5485
  54   2.0000      -0.478090       -13.0095
  55   2.0000      -0.468411       -12.7461
  56   2.0000      -0.460550       -12.5322
  57   2.0000      -0.457588       -12.4516
  58   2.0000      -0.445783       -12.1304
  59   2.0000      -0.438027       -11.9193
  60   2.0000      -0.435792       -11.8585
  61   2.0000      -0.425982       -11.5916
  62   2.0000      -0.423405       -11.5214
  63   2.0000      -0.413643       -11.2558
  64   2.0000      -0.411241       -11.1904
  65   2.0000      -0.405805       -11.0425
  66   2.0000      -0.404539       -11.0081
  67   2.0000      -0.394151       -10.7254
  68   2.0000      -0.393549       -10.7090
  69   2.0000      -0.385512       -10.4903
  70   2.0000      -0.375255       -10.2112
  71   2.0000      -0.374468       -10.1898
  72   2.0000      -0.366654        -9.9772
  73   2.0000      -0.364872        -9.9287
  74   2.0000      -0.360991        -9.8231
  75   2.0000      -0.355670        -9.6783
  76   2.0000      -0.353610        -9.6222
  77   2.0000      -0.343397        -9.3443
  78   2.0000      -0.340604        -9.2683
  79   2.0000      -0.338901        -9.2220
  80   2.0000      -0.335632        -9.1330
  81   2.0000      -0.327834        -8.9208
  82   2.0000      -0.312646        -8.5075
  83   2.0000      -0.274097        -7.4586
  84   2.0000      -0.269310        -7.3283
  85   2.0000      -0.268062        -7.2943
  86   2.0000      -0.261999        -7.1294
  87   2.0000      -0.244498        -6.6531
  88   2.0000      -0.240495        -6.5442
  89   2.0000      -0.233485        -6.3534
  90   2.0000      -0.212250        -5.7756
  91   2.0000      -0.204358        -5.5609
  92   0.0000      -0.086240        -2.3467
  93   0.0000      -0.068474        -1.8633
  94   0.0000      -0.062821        -1.7095
  95   0.0000      -0.055333        -1.5057
  96   0.0000      -0.037295        -1.0148

MULLIKEN ATOMIC CHARGES
-----------------------
   0 C :   -0.105797
   1 F :   -0.067689
   2 C :    0.362404
   3 C :   -0.262002
   4 C :   -0.145243
   5 C :    0.120586
   6 C :   -0.382796
   7 N :   -0.099868
   8 C :    0.107864
   9 O :   -0.538787
  10 C :    0.122006
  11 N :   -0.146200
  12 C :    0.036321
  13 C :    0.250994
  14 C :   -0.604278
  15 C :   -0.524862
  16 N :   -0.691180
  17 N :    0.242677
  18 C :   -0.477025
  19 C :    0.090981
  20 O :   -0.433593
  21 C :    0.049382
  22 O :   -0.362069
  23 C :   -0.184473
  24 C :   -0.218847
  25 H :    0.217356
  26 H :    0.211300
  27 H :    0.217594
  28 H :    0.219047
  29 H :    0.214499
  30 H :    0.191264
  31 H :    0.214068
  32 H :    0.319135
  33 H :    0.177571
  34 H :    0.178468
  35 H :    0.170819
  36 H :    0.180663
  37 H :    0.184553
  38 H :    0.178583
  39 H :    0.294473
  40 H :    0.287822
  41 H :    0.186270
  42 H :    0.195372
  43 H :    0.227863
  44 H :    0.373831
  45 H :    0.202097
  46 H :    0.218847
Sum of atomic charges:    1.0000000

LOEWDIN ATOMIC CHARGES
----------------------
   0 C :    0.069352
   1 F :   -0.248683
   2 C :    0.222359
   3 C :   -0.110344
   4 C :   -0.114259
   5 C :   -0.044873
   6 C :    0.007425
   7 N :   -0.586978
   8 C :    0.373439
   9 O :   -0.529110
  10 C :    0.197017
  11 N :   -0.603815
  12 C :    0.371094
  13 C :    0.063731
  14 C :   -0.363246
  15 C :   -0.354083
  16 N :   -0.709186
  17 N :   -0.627820
  18 C :   -0.096497
  19 C :    0.378109
  20 O :   -0.466669
  21 C :    0.275174
  22 O :   -0.452759
  23 C :   -0.117283
  24 C :   -0.112450
  25 H :    0.196795
  26 H :    0.196242
  27 H :    0.196329
  28 H :    0.211255
  29 H :    0.205845
  30 H :    0.205742
  31 H :    0.213770
  32 H :    0.299969
  33 H :    0.168164
  34 H :    0.169823
  35 H :    0.162054
  36 H :    0.170067
  37 H :    0.172008
  38 H :    0.171375
  39 H :    0.256395
  40 H :    0.254065
  41 H :    0.203097
  42 H :    0.191025
  43 H :    0.215604
  44 H :    0.311463
  45 H :    0.197524
  46 H :    0.211749

  Mayer bond orders larger than 0.100000
B(  0-C ,  1-F ) :   0.6309 B(  0-C , 25-H ) :   0.9429 B(  0-C , 26-H ) :   0.9393
B(  0-C , 27-H ) :   0.9415 B(  1-F ,  2-C ) :   0.5247 B(  2-C ,  3-C ) :   1.4201
B(  2-C , 24-C ) :   1.4398 B(  3-C ,  4-C ) :   1.3694 B(  3-C , 28-H ) :   0.9186
B(  4-C ,  5-C ) :   1.3875 B(  4-C , 29-H ) :   0.9298 B(  5-C ,  6-C ) :   0.8385
B(  5-C , 23-C ) :   1.4134 B(  6-C ,  7-N ) :   0.8436 B(  6-C ,  9-O ) :   0.1092
B(  6-C , 30-H ) :   0.9690 B(  6-C , 31-H ) :   0.9767 B(  7-N ,  8-C ) :   1.2692
B(  7-N , 32-H ) :   0.8807 B(  8-C ,  9-O ) :   1.6791 B(  8-C , 10-C ) :   1.0011
B( 10-C , 11-N ) :   1.0131 B( 10-C , 21-C ) :   1.2568 B( 11-N , 12-C ) :   1.6681
B( 11-N , 13-C ) :  -0.1266 B( 12-C , 13-C ) :   0.8994 B( 12-C , 17-N ) :   1.2695
B( 12-C , 21-C ) :   0.1088 B( 13-C , 14-C ) :   0.9611 B( 13-C , 15-C ) :   0.9244
B( 13-C , 16-N ) :   0.7658 B( 14-C , 33-H ) :   0.9789 B( 14-C , 34-H ) :   0.9664
B( 14-C , 35-H ) :   0.9661 B( 15-C , 36-H ) :   0.9616 B( 15-C , 37-H ) :   0.9741
B( 15-C , 38-H ) :   0.9480 B( 16-N , 39-H ) :   0.9116 B( 16-N , 40-H ) :   0.9096
B( 17-N , 18-C ) :   0.8444 B( 17-N , 19-C ) :   1.0743 B( 18-C , 41-H ) :   0.9398
B( 18-C , 42-H ) :   0.9398 B( 18-C , 43-H ) :   0.9210 B( 19-C , 20-O ) :   1.8968
B( 19-C , 21-C ) :   1.0213 B( 21-C , 22-O ) :   1.1451 B( 22-O , 44-H ) :   0.7656
B( 23-C , 24-C ) :   1.3534 B( 23-C , 45-H ) :   0.9394 B( 24-C , 46-H ) :   0.9173

Dispersion correction           -0.020687936
FINAL SINGLE POINT ENERGY     -1205.150946615826

DIPOLE MOMENT
-------------
                                X             Y             Z
Electronic contribution:     23.33210      -7.49189      -9.13839
Nuclear contribution   :    -15.07262      13.01011      14.62937
                        -----------------------------------------
Total Dipole Moment    :      8.25948       5.51822       5.49098
                        -----------------------------------------
Magnitude (a.u.)       :     11.34992
Magnitude (Debye)      :     28.84920

Rotational constants in cm-1:     0.011303     0.003448     0.003139
Rotational constants in MHz :   338.869432   103.360972    94.106453

                             ****ORCA TERMINATED NORMALLY****
TOTAL RUN TIME: 0 days 0 hours 2 minutes 29 seconds 708 msec
