   * xtb version 6.5.1 (579679a) compiled by 'ehlert@majestix' on 2022-07-11
          program call               : /lustre/hpc/kemi/ree/PhD/git/ReactivityQM/dep/xtb-6.5.1/bin/xtb --gfn 1 /lustre/hpc/kemi/ree/PhD/git/ReactivityQM/calculations/RaltegravirCLI/reac02prodN16/conf04/RaltegravirCLI_reac02prodN16_conf04_gfn1.xyz --opt --vfukui --chrg 1 --uhf 0 --alpb DMSO

   ID    Z sym.   atoms
    1    6 C      1, 3-7, 9, 11, 13-16, 19, 20, 22, 24, 25
    2    9 F      2
    3    7 N      8, 12, 17, 18
    4    8 O      10, 21, 23
    5    1 H      26-47

      * Solvation model:               ALPB
        Solvent                        DMSO
        Solvent mass                       7.8130E+01 g/mol
          :  Hamiltonian                  GFN1-xTB          :
 * total energy  :   -79.4328062 Eh     change       -0.1261924E-10 Eh
 * total energy  :   -79.4480622 Eh     change       -0.1525605E-01 Eh
 * total energy  :   -79.4526308 Eh     change       -0.4568582E-02 Eh
 * total energy  :   -79.4533438 Eh     change       -0.7129916E-03 Eh
 * total energy  :   -79.4538461 Eh     change       -0.5023226E-03 Eh
 * total energy  :   -79.4541352 Eh     change       -0.2890727E-03 Eh
 * total energy  :   -79.4543690 Eh     change       -0.2338167E-03 Eh
 * total energy  :   -79.4545529 Eh     change       -0.1838793E-03 Eh
 * total energy  :   -79.4547123 Eh     change       -0.1593913E-03 Eh
 * total energy  :   -79.4548442 Eh     change       -0.1319016E-03 Eh
 * total energy  :   -79.4553093 Eh     change       -0.8138511E-05 Eh
 * total energy  :   -79.4553349 Eh     change       -0.2553506E-04 Eh
 * total energy  :   -79.4553463 Eh     change       -0.1139041E-04 Eh
 * total energy  :   -79.4553644 Eh     change       -0.1815795E-04 Eh
 * total energy  :   -79.4553796 Eh     change       -0.1517053E-04 Eh
 * total energy  :   -79.4553912 Eh     change       -0.1161616E-04 Eh
 * total energy  :   -79.4554026 Eh     change       -0.1137165E-04 Eh
 * total energy  :   -79.4554100 Eh     change       -0.7402808E-05 Eh
 * total energy  :   -79.4554148 Eh     change       -0.4801374E-05 Eh
   *** GEOMETRY OPTIMIZATION CONVERGED AFTER 34 ITERATIONS ***

 final structure:
================
47
 xtb: 6.5.1 (579679a)
C            5.91072562255926        3.05241134867975        0.45193282320549
F            5.99721248594826        1.63893254592736        0.73038271819280
C            4.91304556849474        0.66619553273258        0.90306584607174
C            4.65630903408013       -0.15282879372035       -0.16650455354594
C            3.65640094322125       -1.09962379010006        0.02267681024638
C            2.97225047468924       -1.18009587029135        1.23602029411173
C            1.87044444544175       -2.20406700714353        1.40792796299233
N            0.64914573676785       -1.73559088923708        0.77523894538914
C            0.42361391102890       -1.92998948752782       -0.53703891602323
O            1.17887927705514       -2.58528712726467       -1.25911442091580
C           -0.83002738492436       -1.32570645297984       -1.03936036974658
N           -1.55843980144468       -0.58748511191504       -0.15250911493590
C           -2.67308333074855       -0.02450684988280       -0.51223451130263
C           -3.41021840335556        0.74073944882952        0.58092374109206
C           -2.48542450494913        0.89995603504325        1.79817719512630
C           -4.66317985159778       -0.04264640199653        0.99892300296261
N           -3.79922425169995        2.06474760776567        0.09900245702706
N           -3.16440206181790       -0.16869803667780       -1.78015272846795
C           -4.42953778411468        0.41555551071545       -2.24067180659297
C           -2.51271749278563       -0.91848174533621       -2.76180166767177
O           -3.00248087970533       -1.04443851595735       -3.87680435151642
C           -1.25132352338285       -1.50685791104867       -2.32999951714029
O           -0.57669753001569       -2.21956954081020       -3.24121871989879
C            3.28676136096427       -0.30605105488939        2.27480030337477
C            4.28463714491676        0.65131259024626        2.12091962263567
H            6.45551897063952        3.52620623292582        1.26338916721650
H            4.85295347832986        3.29752171205127        0.44713442471637
H            6.38349294148704        3.17486117258723       -0.51850000099346
H            5.20268584658159       -0.06982302544533       -1.09529064765673
H            3.40656295246763       -1.77748797104701       -0.78530353425642
H            1.66418303598316       -2.37427566499334        2.46585322669930
H            2.15691173844878       -3.14623143922481        0.93056791943180
H            0.06410931260642       -1.08184545294689        1.27458676352114
H           -2.23068712049225       -0.07205413607402        2.21683620680815
H           -1.56747788792165        1.40600477016348        1.50609025537578
H           -2.98845687280544        1.49409111820002        2.55930505237931
H           -5.11825674639784        0.43774122529076        1.86383042303414
H           -4.38900022214356       -1.06196008854706        1.26862345342110
H           -5.39523307143186       -0.07363785191791        0.19409793386204
H           -4.32859687500442        2.52815757339026        0.82557029723691
H           -2.96493316260955        2.61226421116064       -0.06353612073016
H           -4.28831280232943        0.77401099478945       -3.26116459684489
H           -5.20335538795324       -0.35324300835110       -2.23673744712520
H           -4.71340948706850        1.24457085886733       -1.60018645038332
H            0.25516414109824       -2.55778353064662       -2.83526120972832
H            2.75653528872603       -0.36281964109622        3.21714982975855
H            4.54693272517699        1.33780590771057        2.91293000961949

          :  Hamiltonian                  GFN1-xTB          :
         :: total energy             -79.455414775937 Eh    ::
         :: gradient norm              0.000976472571 Eh/a0 ::
         :: HOMO-LUMO gap              2.612953857926 eV    ::
         :: SCC energy               -80.350973045961 Eh    ::
         :: -> Gsolv                  -0.120207268344 Eh    ::
         :: repulsion energy           0.925129668460 Eh    ::

    * Orbital Energies and Occupations

         #    Occupation            Energy/Eh            Energy/eV
      -------------------------------------------------------------
         1        2.0000           -1.0091502             -27.4604
       ...           ...                  ...                  ...
        55        2.0000           -0.5116430             -13.9225
        56        2.0000           -0.5025767             -13.6758
        57        2.0000           -0.4964806             -13.5099
        58        2.0000           -0.4919990             -13.3880
        59        2.0000           -0.4902155             -13.3394
        60        2.0000           -0.4880459             -13.2804
        61        2.0000           -0.4752970             -12.9335
        62        2.0000           -0.4695230             -12.7764
        63        2.0000           -0.4542196             -12.3599
        64        2.0000           -0.4522522             -12.3064
        65        2.0000           -0.4367702             -11.8851
        66        2.0000           -0.4213982             -11.4668
        67        2.0000           -0.4154383             -11.3047 (HOMO)
        68                         -0.3194140              -8.6917 (LUMO)
        69                         -0.3150862              -8.5739
        70                         -0.3141438              -8.5483
        71                         -0.2783900              -7.5754
        72                         -0.2629849              -7.1562
        73                         -0.2343799              -6.3778
        74                         -0.1930857              -5.2541
        75                         -0.1836188              -4.9965
        76                         -0.1519525              -4.1348
        77                         -0.1432539              -3.8981
        78                         -0.1393968              -3.7932
       ...                                ...                  ...
       144                          0.7108096              19.3421
      -------------------------------------------------------------
                  HL-Gap            0.0960243 Eh            2.6130 eV

Wiberg/Mayer (AO) data.
largest (>0.10) Wiberg bond orders for each atom

     #   Z sym  total        # sym  WBO       # sym  WBO       # sym  WBO
 ---------------------------------------------------------------------------
     1   6 C    3.674 --    27 H    0.980    28 H    0.977    26 H    0.977
                             2 F    0.712
     2   9 F    1.435 --     1 C    0.712     3 C    0.636
     3   6 C    3.689 --    25 C    1.436     4 C    1.430     2 F    0.636
     4   6 C    3.983 --     3 C    1.430     5 C    1.425    29 H    0.961
                            24 C    0.110
     5   6 C    3.983 --     4 C    1.425     6 C    1.415    30 H    0.960
                            25 C    0.112
     6   6 C    3.983 --    24 C    1.424     5 C    1.415     7 C    0.994
     7   6 C    3.949 --     6 C    0.994    31 H    0.975    32 H    0.966
                             8 N    0.946
     8   7 N    3.350 --     9 C    1.266     7 C    0.946    33 H    0.890
                            10 O    0.157
     9   6 C    3.902 --    10 O    1.528     8 N    1.266    11 C    1.022
    10   8 O    1.909 --     9 C    1.528     8 N    0.157
    11   6 C    3.964 --    22 C    1.480    12 N    1.191     9 C    1.022
    12   7 N    3.045 --    13 C    1.545    11 C    1.191
    13   6 C    3.922 --    12 N    1.545    18 N    1.190    14 C    0.975
    14   6 C    3.965 --    15 C    0.992    16 C    0.984    17 N    0.981
                            13 C    0.975
    15   6 C    3.994 --    14 C    0.992    36 H    0.984    35 H    0.984
                            34 H    0.983
    16   6 C    3.993 --    38 H    0.986    14 C    0.984    37 H    0.983
                            39 H    0.982
    17   7 N    2.995 --    14 C    0.981    41 H    0.941    40 H    0.939
    18   7 N    3.511 --    13 C    1.190    20 C    1.110    19 C    0.928
                            21 O    0.134
    19   6 C    3.920 --    43 H    0.977    42 H    0.977    44 H    0.968
                            18 N    0.928
    20   6 C    3.914 --    21 O    1.573    18 N    1.110    22 C    1.079
    21   8 O    1.887 --    20 C    1.573    18 N    0.134
    22   6 C    3.922 --    11 C    1.480    23 O    1.109    20 C    1.079
    23   8 O    2.076 --    22 C    1.109    45 H    0.780
    24   6 C    3.987 --     6 C    1.424    25 C    1.418    46 H    0.965
                             4 C    0.110
    25   6 C    3.984 --     3 C    1.436    24 C    1.418    47 H    0.961
                             5 C    0.112
    26   1 H    0.992 --     1 C    0.977
    27   1 H    0.994 --     1 C    0.980
    28   1 H    0.992 --     1 C    0.977
    29   1 H    0.990 --     4 C    0.961
    30   1 H    1.007 --     5 C    0.960
    31   1 H    0.999 --     7 C    0.975
    32   1 H    1.004 --     7 C    0.966
    33   1 H    0.956 --     8 N    0.890
    34   1 H    1.012 --    15 C    0.983
    35   1 H    1.010 --    15 C    0.984
    36   1 H    1.003 --    15 C    0.984
    37   1 H    0.999 --    16 C    0.983
    38   1 H    1.003 --    16 C    0.986
    39   1 H    1.003 --    16 C    0.982
    40   1 H    0.953 --    17 N    0.939
    41   1 H    0.956 --    17 N    0.941
    42   1 H    1.009 --    19 C    0.977
    43   1 H    1.004 --    19 C    0.977
    44   1 H    1.028 --    19 C    0.968
    45   1 H    0.858 --    23 O    0.780
    46   1 H    0.993 --    24 C    0.965
    47   1 H    0.989 --    25 C    0.961
 ---------------------------------------------------------------------------

           -------------------------------------------------
          | TOTAL ENERGY              -79.455414775937 Eh   |
          | GRADIENT NORM               0.000976472571 Eh/α |
          | HOMO-LUMO GAP               2.612953857926 eV   |
           -------------------------------------------------

 * finished run on 2023/06/20 at 15:39:01.753
