   * xtb version 6.5.1 (579679a) compiled by 'ehlert@majestix' on 2022-07-11
          program call               : /lustre/hpc/kemi/ree/PhD/git/ReactivityQM/dep/xtb-6.5.1/bin/xtb --gfn 1 /lustre/hpc/kemi/ree/PhD/git/ReactivityQM/calculations/R01/reac01prodN06/conf13/R01_reac01prodN06_conf13_gfn1.xyz --opt --vfukui --chrg 1 --uhf 0 --alpb DMSO

   ID    Z sym.   atoms
    1    6 C      1, 3, 5, 6, 9, 10
    2    8 O      2, 4, 11
    3    7 N      7, 8
    4    1 H      12-20

      * Solvation model:               ALPB
        Solvent                        DMSO
        Solvent mass                       7.8130E+01 g/mol
          :  Hamiltonian                  GFN1-xTB          :
 * total energy  :   -37.5805892 Eh     change       -0.1016076E-11 Eh
 * total energy  :   -37.5921151 Eh     change       -0.1152589E-01 Eh
 * total energy  :   -37.5964463 Eh     change       -0.4331259E-02 Eh
 * total energy  :   -37.5971009 Eh     change       -0.6546063E-03 Eh
 * total energy  :   -37.5975330 Eh     change       -0.4320903E-03 Eh
 * total energy  :   -37.5976716 Eh     change       -0.1386038E-03 Eh
 * total energy  :   -37.5978032 Eh     change       -0.1315183E-03 Eh
 * total energy  :   -37.5979049 Eh     change       -0.1017403E-03 Eh
 * total energy  :   -37.5979738 Eh     change       -0.6887771E-04 Eh
 * total energy  :   -37.5980314 Eh     change       -0.5765890E-04 Eh
 * total energy  :   -37.5980905 Eh     change       -0.5903287E-04 Eh
 * total energy  :   -37.5981448 Eh     change       -0.5428298E-04 Eh
 * total energy  :   -37.5981790 Eh     change       -0.3425721E-04 Eh
 * total energy  :   -37.5982017 Eh     change       -0.2273732E-04 Eh
 * total energy  :   -37.5982110 Eh     change       -0.9278084E-05 Eh
 * total energy  :   -37.5982146 Eh     change       -0.3537044E-05 Eh
 * total energy  :   -37.5982180 Eh     change       -0.3487507E-05 Eh
   *** GEOMETRY OPTIMIZATION CONVERGED AFTER 17 ITERATIONS ***

 final structure:
================
20
 xtb: 6.5.1 (579679a)
C            2.51256608056084        1.71965780718119        0.02420266277887
O            1.30673697671905        0.91575421265558        0.05217928932526
C            1.41159004083252       -0.33962834487472       -0.21736174489373
O            2.36813797686311       -0.99533343539042       -0.47348058094216
C           -0.03608184676816       -1.04265585365925       -0.14067524503975
C           -0.04591906066276       -2.30312299366045       -0.99102890902294
N           -0.25162436147208       -1.21841751291121        1.24793392901502
N           -1.16616339771133       -0.44712137481217        1.63920903127263
C           -1.63980324431971        0.23807551738490        0.53995931004265
C           -2.70569991495687        1.22837987509076        0.56532549626526
O           -1.01691371126228       -0.11015219462530       -0.52106657417508
H            2.92583799084091        1.70838626234172       -0.98429696020533
H            3.23293201080307        1.31262676691820        0.73412839155231
H            2.20242438814036        2.72154426015923        0.30861042158158
H           -1.00272470894719       -2.80609081088181       -0.87243153810828
H            0.76422158343686       -2.95080020035939       -0.66198847619318
H            0.10080890177347       -2.02942404632585       -2.03355110938036
H           -2.80845299340857        1.71673594475679       -0.40105791478271
H           -2.51074358077448        1.95592333869783        1.35564707679863
H           -3.64113012968687        0.72566278231419        0.82974344411147

          :  Hamiltonian                  GFN1-xTB          :
         :: total energy             -37.598218049713 Eh    ::
         :: gradient norm              0.000749225066 Eh/a0 ::
         :: HOMO-LUMO gap              2.234699671093 eV    ::
         :: SCC energy               -37.939390697111 Eh    ::
         :: -> Gsolv                  -0.080486980232 Eh    ::
         :: repulsion energy           0.350038415447 Eh    ::

    * Orbital Energies and Occupations

         #    Occupation            Energy/Eh            Energy/eV
      -------------------------------------------------------------
         1        2.0000           -0.9437359             -25.6804
       ...           ...                  ...                  ...
        18        2.0000           -0.6165546             -16.7773
        19        2.0000           -0.6119475             -16.6519
        20        2.0000           -0.6012534             -16.3609
        21        2.0000           -0.6010861             -16.3564
        22        2.0000           -0.5856939             -15.9375
        23        2.0000           -0.5806251             -15.7996
        24        2.0000           -0.5719953             -15.5648
        25        2.0000           -0.5668947             -15.4260
        26        2.0000           -0.5645254             -15.3615
        27        2.0000           -0.5507277             -14.9861
        28        2.0000           -0.5403093             -14.7026
        29        2.0000           -0.5357328             -14.5780
        30        2.0000           -0.5167091             -14.0604 (HOMO)
        31                         -0.4345854             -11.8257 (LUMO)
        32                         -0.3418524              -9.3023
        33                         -0.3171976              -8.6314
        34                         -0.1810771              -4.9274
        35                         -0.1648902              -4.4869
        36                         -0.1600280              -4.3546
        37                         -0.1132664              -3.0821
        38                         -0.1096387              -2.9834
        39                         -0.1020736              -2.7776
        40                         -0.0984874              -2.6800
        41                         -0.0981561              -2.6710
       ...                                ...                  ...
        62                          0.7488120              20.3762
      -------------------------------------------------------------
                  HL-Gap            0.0821237 Eh            2.2347 eV

Wiberg/Mayer (AO) data.
largest (>0.10) Wiberg bond orders for each atom

     #   Z sym  total        # sym  WBO       # sym  WBO       # sym  WBO
 ---------------------------------------------------------------------------
     1   6 C    3.814 --    14 H    0.981    13 H    0.978    12 H    0.977
                             2 O    0.836
     2   8 O    2.264 --     3 C    1.229     1 C    0.836     4 O    0.154
     3   6 C    3.864 --     4 O    1.744     2 O    1.229     5 C    0.744
     4   8 O    2.074 --     3 C    1.744     2 O    0.154
     5   6 C    3.837 --     7 N    1.076     6 C    0.935    11 O    0.905
                             3 C    0.744
     6   6 C    3.949 --    17 H    0.976    15 H    0.975    16 H    0.973
                             5 C    0.935
     7   7 N    3.010 --     8 N    1.682     5 C    1.076
     8   7 N    3.022 --     7 N    1.682     9 C    1.176
     9   6 C    3.801 --    11 O    1.307     8 N    1.176    10 C    1.086
    10   6 C    3.962 --     9 C    1.086    18 H    0.970    19 H    0.927
                            20 H    0.906
    11   8 O    2.395 --     9 C    1.307     5 C    0.905
    12   1 H    0.996 --     1 C    0.977
    13   1 H    0.997 --     1 C    0.978
    14   1 H    1.002 --     1 C    0.981
    15   1 H    0.989 --     6 C    0.975
    16   1 H    0.995 --     6 C    0.973
    17   1 H    0.990 --     6 C    0.976
    18   1 H    0.984 --    10 C    0.970
    19   1 H    0.980 --    10 C    0.927
    20   1 H    0.977 --    10 C    0.906
 ---------------------------------------------------------------------------

           -------------------------------------------------
          | TOTAL ENERGY              -37.598218049713 Eh   |
          | GRADIENT NORM               0.000749225066 Eh/α |
          | HOMO-LUMO GAP               2.234699671093 eV   |
           -------------------------------------------------

 * finished run on 2023/06/20 at 14:56:07.475
