   * xtb version 6.5.1 (579679a) compiled by 'ehlert@majestix' on 2022-07-11
          program call               : /lustre/hpc/kemi/ree/PhD/git/ReactivityQM/dep/xtb-6.5.1/bin/xtb --gfn 1 /lustre/hpc/kemi/ree/PhD/git/ReactivityQM/calculations/R02oxygendeprot/reac01prodN14/conf02/R02oxygendeprot_reac01prodN14_conf02_gfn1.xyz --opt --vfukui --chrg 0 --uhf 0 --alpb DMSO

   ID    Z sym.   atoms
    1    6 C      1, 3, 5, 6, 8, 9, 12-15, 17, 19, 22, 23
    2    8 O      2, 4, 7, 10, 18, 24
    3    7 N      11, 16, 20, 21, 25
    4    1 H      26-42

      * Solvation model:               ALPB
        Solvent                        DMSO
        Solvent mass                       7.8130E+01 g/mol
          :  Hamiltonian                  GFN1-xTB          :
 * total energy  :   -82.8984937 Eh     change       -0.6563994E-10 Eh
 * total energy  :   -82.9141909 Eh     change       -0.1569722E-01 Eh
 * total energy  :   -82.9240761 Eh     change       -0.9885130E-02 Eh
 * total energy  :   -82.9265259 Eh     change       -0.2449850E-02 Eh
 * total energy  :   -82.9289286 Eh     change       -0.2402708E-02 Eh
 * total energy  :   -82.9304181 Eh     change       -0.1489450E-02 Eh
 * total energy  :   -82.9320803 Eh     change       -0.1662177E-02 Eh
 * total energy  :   -82.9334024 Eh     change       -0.1322140E-02 Eh
 * total energy  :   -82.9344464 Eh     change       -0.1044040E-02 Eh
 * total energy  :   -82.9352999 Eh     change       -0.8534458E-03 Eh
 * total energy  :   -82.9746430 Eh     change       -0.6538704E-05 Eh
 * total energy  :   -82.9746519 Eh     change       -0.8842406E-05 Eh
 * total energy  :   -82.9746616 Eh     change       -0.9754238E-05 Eh
 * total energy  :   -82.9746701 Eh     change       -0.8464584E-05 Eh
 * total energy  :   -82.9746783 Eh     change       -0.8240858E-05 Eh
 * total energy  :   -82.9746863 Eh     change       -0.7994198E-05 Eh
 * total energy  :   -82.9746914 Eh     change       -0.5123582E-05 Eh
 * total energy  :   -82.9746968 Eh     change       -0.5377528E-05 Eh
 * total energy  :   -82.9747004 Eh     change       -0.3550307E-05 Eh
   *** GEOMETRY OPTIMIZATION CONVERGED AFTER 87 ITERATIONS ***

 final structure:
================
42
 xtb: 6.5.1 (579679a)
C           -5.45454988556295        1.87639406325430       -1.45061196278117
O           -4.27367483292772        1.12676330619491       -1.14394438271327
C           -4.44617404293198        0.04204135330996       -0.39656497031060
O           -5.51588178700385       -0.32477034715842        0.03149351123533
C           -3.15986021406135       -0.65754226102567       -0.13762169153365
C           -3.14640332266201       -1.78190569869736        0.54973573301408
O           -3.18408010083221       -2.77601190961009        1.13989453410157
C           -0.57508477598645       -1.08069718579922        1.94028521999882
C           -1.37792737256596        0.11491184841186        2.37045690672593
O           -0.01514117478523       -1.81455304558586        2.72688424038603
N           -0.49182903025102       -1.35669939546401        0.58557549330132
C           -0.83011949464777       -0.47073269054976       -0.45327713549422
C            0.30475196048417       -0.01937741680792       -1.35724640165477
C            0.41866102200100       -1.01912977664943       -2.51421411288163
C            0.03462930257843        1.39149073140753       -1.89071730038736
N            1.56472485655582       -0.05208116329237       -0.61828737701497
C            1.76933398652798        0.68450767184173        0.49400808759677
O            0.92147815555200        1.37403473394659        1.03842075173573
C            3.14717908282533        0.55479322075349        1.02423813749499
N            3.63895687968945        1.08211231083231        2.10180549337827
N            4.93860249299522        0.68134828995011        2.17839505144749
C            5.16134194811390       -0.06560678161167        1.14212330883721
C            6.41986776634532       -0.74225931847782        0.76234980154320
O            4.06806118881026       -0.18722732547488        0.37157729118798
N           -2.01257015999802       -0.12475620520524       -0.76252629521214
H           -6.14553404459233        1.26317713596105       -2.03290491630157
H           -5.13116658876273        2.73723850741984       -2.03090308222646
H           -5.94346663802118        2.19971625300286       -0.52911495700496
H           -0.89168827426653        0.55513868507145        3.23846497213108
H           -1.46195042769897        0.85506932842451        1.58133115640061
H           -2.37269547829709       -0.21376685574955        2.66669828258963
H            0.27479600615663       -1.97897880744197        0.36920207531477
H            0.62956283981464       -2.01671532294388       -2.13353161141684
H            1.22143493540252       -0.71918697307114       -3.18484918933878
H           -0.51787527999104       -1.04213718028260       -3.06922154882994
H            0.85437249371257        1.70212549728244       -2.53516759475016
H           -0.89201223261091        1.38586967583906       -2.46214986601464
H           -0.06245150369151        2.09650689894254       -1.06653351314406
H            2.34124629053532       -0.53716846396889       -1.03366372158249
H            6.25808505632641       -1.81797243835889        0.69823059578721
H            6.74577091362987       -0.39380519459313       -0.21731977004253
H            7.18927948408041       -0.53015475402933        1.50085375642029

          :  Hamiltonian                  GFN1-xTB          :
         :: total energy             -82.974700358812 Eh    ::
         :: gradient norm              0.000819647357 Eh/a0 ::
         :: HOMO-LUMO gap              2.771143779532 eV    ::
         :: SCC energy               -83.806202138944 Eh    ::
         :: -> Gsolv                  -0.059105086039 Eh    ::
         :: repulsion energy           0.859276650466 Eh    ::

    * Orbital Energies and Occupations

         #    Occupation            Energy/Eh            Energy/eV
      -------------------------------------------------------------
         1        2.0000           -0.8723318             -23.7374
       ...           ...                  ...                  ...
        55        2.0000           -0.5057832             -13.7631
        56        2.0000           -0.5041095             -13.7175
        57        2.0000           -0.5007204             -13.6253
        58        2.0000           -0.4886766             -13.2976
        59        2.0000           -0.4816600             -13.1066
        60        2.0000           -0.4754681             -12.9381
        61        2.0000           -0.4675626             -12.7230
        62        2.0000           -0.4666904             -12.6993
        63        2.0000           -0.4626811             -12.5902
        64        2.0000           -0.4563080             -12.4168
        65        2.0000           -0.4530511             -12.3281
        66        2.0000           -0.4499479             -12.2437
        67        2.0000           -0.4311969             -11.7335 (HOMO)
        68                         -0.3293592              -8.9623 (LUMO)
        69                         -0.3129627              -8.5161
        70                         -0.3052430              -8.3061
        71                         -0.2846008              -7.7444
        72                         -0.2570855              -6.9957
        73                         -0.2560597              -6.9677
        74                         -0.2005464              -5.4571
        75                         -0.1792874              -4.8787
        76                         -0.1417456              -3.8571
        77                         -0.1399694              -3.8088
        78                         -0.1354668              -3.6862
       ...                                ...                  ...
       134                          1.2020207              32.7086
      -------------------------------------------------------------
                  HL-Gap            0.1018377 Eh            2.7711 eV

Wiberg/Mayer (AO) data.
largest (>0.10) Wiberg bond orders for each atom

     #   Z sym  total        # sym  WBO       # sym  WBO       # sym  WBO
 ---------------------------------------------------------------------------
     1   6 C    3.864 --    27 H    0.985    26 H    0.980    28 H    0.980
                             2 O    0.890
     2   8 O    2.206 --     3 C    1.119     1 C    0.890     4 O    0.129
     3   6 C    3.868 --     4 O    1.639     2 O    1.119     5 C    0.988
     4   8 O    1.915 --     3 C    1.639     2 O    0.129
     5   6 C    3.903 --     6 C    1.577    25 N    1.026     3 C    0.988
                             7 O    0.167
     6   6 C    3.801 --     7 O    1.989     5 C    1.577
     7   8 O    2.288 --     6 C    1.989     5 C    0.167
     8   6 C    3.868 --    10 O    1.663    11 N    1.132     9 C    1.000
     9   6 C    3.991 --     8 C    1.000    30 H    0.978    29 H    0.972
                            31 H    0.957
    10   8 O    1.923 --     8 C    1.663    11 N    0.126
    11   7 N    3.316 --     8 C    1.132    12 C    1.019    32 H    0.888
                            10 O    0.126
    12   6 C    3.933 --    25 N    1.748    11 N    1.019    13 C    0.968
    13   6 C    3.937 --    15 C    0.985    14 C    0.980    12 C    0.968
                            16 N    0.931
    14   6 C    3.988 --    33 H    0.984    35 H    0.984    34 H    0.981
                            13 C    0.980
    15   6 C    3.987 --    36 H    0.985    13 C    0.985    37 H    0.983
                            38 H    0.981
    16   7 N    3.348 --    17 C    1.255    13 C    0.931    39 H    0.891
                            18 O    0.173
    17   6 C    3.916 --    18 O    1.578    16 N    1.255    19 C    0.996
    18   8 O    1.899 --    17 C    1.578    16 N    0.173
    19   6 C    3.873 --    20 N    1.621    24 O    1.047    17 C    0.996
    20   7 N    3.001 --    19 C    1.621    21 N    1.200
    21   7 N    2.982 --    22 C    1.609    20 N    1.200
    22   6 C    3.868 --    21 N    1.609    24 O    1.073    23 C    1.032
    23   6 C    3.986 --    22 C    1.032    42 H    0.982    40 H    0.963
                            41 H    0.962
    24   8 O    2.317 --    22 C    1.073    19 C    1.047
    25   7 N    3.056 --    12 C    1.748     5 C    1.026
    26   1 H    1.006 --     1 C    0.980
    27   1 H    1.009 --     1 C    0.985
    28   1 H    1.006 --     1 C    0.980
    29   1 H    1.005 --     9 C    0.972
    30   1 H    1.014 --     9 C    0.978
    31   1 H    1.003 --     9 C    0.957
    32   1 H    0.941 --    11 N    0.888
    33   1 H    0.997 --    14 C    0.984
    34   1 H    0.996 --    14 C    0.981
    35   1 H    1.002 --    14 C    0.984
    36   1 H    1.000 --    15 C    0.985
    37   1 H    1.010 --    15 C    0.983
    38   1 H    1.010 --    15 C    0.981
    39   1 H    0.933 --    16 N    0.891
    40   1 H    0.996 --    23 C    0.963
    41   1 H    0.996 --    23 C    0.962
    42   1 H    0.998 --    23 C    0.982
 ---------------------------------------------------------------------------

           -------------------------------------------------
          | TOTAL ENERGY              -82.974700358812 Eh   |
          | GRADIENT NORM               0.000819647357 Eh/α |
          | HOMO-LUMO GAP               2.771143779532 eV   |
           -------------------------------------------------

 * finished run on 2023/06/21 at 17:33:09.842
