   * xtb version 6.5.1 (579679a) compiled by 'ehlert@majestix' on 2022-07-11
          program call               : /lustre/hpc/kemi/ree/PhD/git/ReactivityQM/dep/xtb-6.5.1/bin/xtb --gfn 1 /lustre/hpc/kemi/ree/PhD/git/ReactivityQM/calculations/R03/reac01prodE02/conf05/R03_reac01prodE02_conf05_gfn1.xyz --opt --vfukui --chrg -1 --uhf 0 --alpb DMSO

   ID    Z sym.   atoms
    1    6 C      1-4, 6-9
    2    9 F      5
    3    7 N      10
    4    1 H      11-21

      * Solvation model:               ALPB
        Solvent                        DMSO
        Solvent mass                       7.8130E+01 g/mol
          :  Hamiltonian                  GFN1-xTB          :
 * total energy  :   -31.4563440 Eh     change       -0.4504841E-11 Eh
 * total energy  :   -31.4615389 Eh     change       -0.5194846E-02 Eh
 * total energy  :   -31.4625334 Eh     change       -0.9945427E-03 Eh
 * total energy  :   -31.4626630 Eh     change       -0.1295626E-03 Eh
 * total energy  :   -31.4627830 Eh     change       -0.1200153E-03 Eh
 * total energy  :   -31.4628688 Eh     change       -0.8576938E-04 Eh
 * total energy  :   -31.4629687 Eh     change       -0.9997207E-04 Eh
 * total energy  :   -31.4630492 Eh     change       -0.8046349E-04 Eh
 * total energy  :   -31.4631039 Eh     change       -0.5464045E-04 Eh
 * total energy  :   -31.4631560 Eh     change       -0.5219050E-04 Eh
 * total energy  :   -31.4631800 Eh     change       -0.2393966E-04 Eh
 * total energy  :   -31.4632129 Eh     change       -0.3289602E-04 Eh
 * total energy  :   -31.4632374 Eh     change       -0.2451954E-04 Eh
 * total energy  :   -31.4632570 Eh     change       -0.1964879E-04 Eh
 * total energy  :   -31.4632740 Eh     change       -0.1694624E-04 Eh
 * total energy  :   -31.4632888 Eh     change       -0.1484945E-04 Eh
 * total energy  :   -31.4633013 Eh     change       -0.1242377E-04 Eh
 * total energy  :   -31.4633089 Eh     change       -0.7595632E-05 Eh
 * total energy  :   -31.4633128 Eh     change       -0.3961376E-05 Eh
   *** GEOMETRY OPTIMIZATION CONVERGED AFTER 19 ITERATIONS ***

 final structure:
================
21
 xtb: 6.5.1 (579679a)
C            0.30440839102929        1.67608511001994        0.97742421036318
C            0.58740260573192        0.85301903002624       -0.31807365014268
C            1.99850399851928        0.29789486974391       -0.29233685670950
C            2.20757220734152       -1.01726903417185       -0.03598692659860
F            3.51457993585052       -1.43706717697769        0.08232545039636
C            1.22086529904331       -2.00522567074150        0.04871809961184
C           -0.09344300425257       -1.57658152252572       -0.24801327650129
C           -0.42409327459471       -0.27343111697020       -0.48790063161150
C           -1.83676605565193        0.10260562975248       -0.88108008523031
N           -2.78643048935242        0.10556132325417        0.25525606083823
H            0.32344706623116        1.02120408361498        1.84908479626968
H           -0.67352112546790        2.15588764046786        0.92016641471048
H            1.06379901911324        2.44976204791700        1.10497668055337
H            0.48996882755028        1.57222314101604       -1.15692531808922
H            2.82471980309085        0.99186001666387       -0.39687356853583
H            1.46557684539750       -3.04380231855617        0.22337872471756
H           -0.87042614374940       -2.33790384149735       -0.32825643843698
H           -2.23564700677277       -0.60272970083372       -1.62591622462551
H           -1.86312059606075        1.10447661137764       -1.33165288233360
H           -2.45972234424103        0.77118316270286        0.94751010338749
H           -2.75767495875535       -0.80775228428269        0.69417531796690

          :  Hamiltonian                  GFN1-xTB          :
         :: total energy             -31.463312822325 Eh    ::
         :: gradient norm              0.000452351220 Eh/a0 ::
         :: HOMO-LUMO gap              2.660617601477 eV    ::
         :: SCC energy               -31.834280608046 Eh    ::
         :: -> Gsolv                  -0.075601331806 Eh    ::
         :: repulsion energy           0.381418991275 Eh    ::

    * Orbital Energies and Occupations

         #    Occupation            Energy/Eh            Energy/eV
      -------------------------------------------------------------
         1        2.0000           -0.7884574             -21.4550
       ...           ...                  ...                  ...
        16        2.0000           -0.4790029             -13.0343
        17        2.0000           -0.4777692             -13.0008
        18        2.0000           -0.4685889             -12.7510
        19        2.0000           -0.4612842             -12.5522
        20        2.0000           -0.4539516             -12.3527
        21        2.0000           -0.4444307             -12.0936
        22        2.0000           -0.4309481             -11.7267
        23        2.0000           -0.4224986             -11.4968
        24        2.0000           -0.4030752             -10.9682
        25        2.0000           -0.3992131             -10.8631
        26        2.0000           -0.3731259             -10.1533
        27        2.0000           -0.3573993              -9.7253
        28        2.0000           -0.2763626              -7.5202 (HOMO)
        29                         -0.1785867              -4.8596 (LUMO)
        30                         -0.1084253              -2.9504
        31                         -0.0853941              -2.3237
        32                         -0.0792400              -2.1562
        33                         -0.0699172              -1.9025
        34                         -0.0585248              -1.5925
        35                         -0.0467073              -1.2710
        36                         -0.0377208              -1.0264
        37                         -0.0260530              -0.7089
        38                         -0.0202369              -0.5507
        39                         -0.0152688              -0.4155
       ...                                ...                  ...
        62                          0.6581790              17.9100
      -------------------------------------------------------------
                  HL-Gap            0.0977759 Eh            2.6606 eV

Wiberg/Mayer (AO) data.
largest (>0.10) Wiberg bond orders for each atom

     #   Z sym  total        # sym  WBO       # sym  WBO       # sym  WBO
 ---------------------------------------------------------------------------
     1   6 C    3.992 --    11 H    0.989    13 H    0.987    12 H    0.984
                             2 C    0.967
     2   6 C    3.992 --     3 C    1.005     8 C    0.998    14 H    0.969
                             1 C    0.967
     3   6 C    3.901 --     4 C    1.586     2 C    1.005    15 H    0.975
                             6 C    0.108
     4   6 C    3.824 --     3 C    1.586     6 C    1.299     5 F    0.852
     5   9 F    0.960 --     4 C    0.852
     6   6 C    3.875 --     4 C    1.299     7 C    1.292    16 H    0.977
                             3 C    0.108     8 C    0.106
     7   6 C    3.994 --     8 C    1.617     6 C    1.292    17 H    0.972
     8   6 C    3.930 --     7 C    1.617     9 C    1.002     2 C    0.998
                             6 C    0.106
     9   6 C    3.967 --     8 C    1.002    19 H    0.982    18 H    0.980
                            10 N    0.967
    10   7 N    2.947 --     9 C    0.967    21 H    0.957    20 H    0.957
    11   1 H    1.023 --     1 C    0.989
    12   1 H    1.014 --     1 C    0.984
    13   1 H    1.016 --     1 C    0.987
    14   1 H    1.022 --     2 C    0.969
    15   1 H    1.004 --     3 C    0.975
    16   1 H    1.005 --     6 C    0.977
    17   1 H    1.006 --     7 C    0.972
    18   1 H    1.019 --     9 C    0.980
    19   1 H    1.016 --     9 C    0.982
    20   1 H    0.985 --    10 N    0.957
    21   1 H    0.981 --    10 N    0.957
 ---------------------------------------------------------------------------

           -------------------------------------------------
          | TOTAL ENERGY              -31.463312822325 Eh   |
          | GRADIENT NORM               0.000452351220 Eh/α |
          | HOMO-LUMO GAP               2.660617601477 eV   |
           -------------------------------------------------

 * finished run on 2023/06/20 at 15:12:59.426
