   * xtb version 6.5.1 (579679a) compiled by 'ehlert@majestix' on 2022-07-11
          program call               : /lustre/hpc/kemi/ree/PhD/git/ReactivityQM/dep/xtb-6.5.1/bin/xtb --gfn 1 /lustre/hpc/kemi/ree/PhD/git/ReactivityQM/calculations/R02oxygendeprot/reac01prodE05/conf15/R02oxygendeprot_reac01prodE05_conf15_gfn1.xyz --opt --vfukui --chrg -2 --uhf 0 --alpb DMSO

   ID    Z sym.   atoms
    1    6 C      1, 3, 5, 6, 8, 11-14, 16, 18, 21, 22, 25
    2    8 O      2, 4, 7, 9, 17, 23
    3    7 N      10, 15, 19, 20, 24
    4    1 H      26-42

      * Solvation model:               ALPB
        Solvent                        DMSO
        Solvent mass                       7.8130E+01 g/mol
          :  Hamiltonian                  GFN1-xTB          :
 * total energy  :   -83.5564418 Eh     change       -0.4812080E-09 Eh
 * total energy  :   -83.5689707 Eh     change       -0.1252881E-01 Eh
 * total energy  :   -83.5743530 Eh     change       -0.5382315E-02 Eh
 * total energy  :   -83.5756531 Eh     change       -0.1300123E-02 Eh
 * total energy  :   -83.5764393 Eh     change       -0.7862078E-03 Eh
 * total energy  :   -83.5768127 Eh     change       -0.3733602E-03 Eh
 * total energy  :   -83.5771075 Eh     change       -0.2948011E-03 Eh
 * total energy  :   -83.5773588 Eh     change       -0.2513709E-03 Eh
 * total energy  :   -83.5775816 Eh     change       -0.2227438E-03 Eh
 * total energy  :   -83.5777849 Eh     change       -0.2033016E-03 Eh
 * total energy  :   -83.5885812 Eh     change       -0.8243445E-05 Eh
 * total energy  :   -83.5886059 Eh     change       -0.2467446E-04 Eh
 * total energy  :   -83.5886206 Eh     change       -0.1469991E-04 Eh
 * total energy  :   -83.5886376 Eh     change       -0.1695302E-04 Eh
 * total energy  :   -83.5886565 Eh     change       -0.1893053E-04 Eh
 * total energy  :   -83.5886692 Eh     change       -0.1270935E-04 Eh
 * total energy  :   -83.5886759 Eh     change       -0.6699030E-05 Eh
 * total energy  :   -83.5886810 Eh     change       -0.5150105E-05 Eh
 * total energy  :   -83.5886853 Eh     change       -0.4272942E-05 Eh
   *** GEOMETRY OPTIMIZATION CONVERGED AFTER 104 ITERATIONS ***

 final structure:
================
42
 xtb: 6.5.1 (579679a)
C           -1.01871925341683        3.05543244082590        1.05979197832324
O           -1.30258952575551        1.73750867284808        0.63726702845081
C           -2.08710463025463        1.62985047345416       -0.51564354670529
O           -2.48145170218147        2.66554299441349       -1.05923947662368
C           -2.31594855115119        0.27920283531910       -0.88857411217002
C           -3.02134685666978       -0.12166349819571       -2.04568516886320
O           -3.55455441766483        0.63621290989643       -2.89098485150244
C           -3.04200585188762       -1.62467601147398       -2.29553235196550
O           -3.90752166411454       -2.19557671833541       -2.99420919015514
N           -2.00496357709283       -2.31523676697587       -1.77827821103756
C           -1.19343680807943       -1.88698707225875       -0.66386933298730
C            0.27249760145488       -1.62882828737947       -1.08077285231297
C            1.00984548322181       -2.98094716547539       -1.08015796161478
C            0.44207060204247       -0.95235330381656       -2.46090516966786
N            0.84815780444176       -0.76171419992007       -0.04812164677920
C            2.12387598117312       -0.36478035186053        0.02731179183369
O            3.03461252638172       -0.70562380793976       -0.73532880599059
C            2.35148677404248        0.55392859075529        1.16531096835957
N            1.45988704151369        0.99184920959892        2.01657696471256
N            2.11667193955821        1.81678448827880        2.88706088849889
C            3.35778366432991        1.83362608645578        2.51981634171604
C            4.47096125828954        2.58422256441233        3.14578960061977
O            3.58246385838461        1.06099504596107        1.44138880992063
N           -1.78376945029097       -0.74095762942598        0.00506358353034
C           -2.80045422481113       -1.18261513817786        0.97623886071976
H           -1.93555065268270        3.59351096486720        1.33111191824268
H           -0.37050315764079        2.98267133714042        1.93507067651646
H           -0.50302553857353        3.62487110051066        0.27597421241428
H           -1.99507230988880       -3.30190306127360       -1.98477548134533
H            0.92802143444499       -3.43451757333847       -0.09260235102299
H            2.06328350396187       -2.87197489223368       -1.33758055552692
H            0.53941199590349       -3.64473181173037       -1.80441846203270
H           -0.02606517542832       -1.57227337407009       -3.22540235369168
H           -0.03320962390079        0.02981440030735       -2.45907770272708
H            1.49759237684640       -0.83564543902486       -2.70677176188669
H            0.17218658957817       -0.37867759580759        0.61584157376407
H            4.09543223540429        3.15347646678507        3.99196856240547
H            5.24384952768443        1.89626420589582        3.48709246111369
H            4.92087355866642        3.26415368173918        2.42279576235777
H           -3.10316266143074       -0.33668892359243        1.59853225994973
H           -3.69339909107331       -1.59798278191684        0.48546416751790
H           -2.35711103332343       -1.95356406522028        1.60901293565216

          :  Hamiltonian                  GFN1-xTB          :
         :: total energy             -83.588685313314 Eh    ::
         :: gradient norm              0.000362028330 Eh/a0 ::
         :: HOMO-LUMO gap              0.123676325690 eV    ::
         :: SCC energy               -84.307616896756 Eh    ::
         :: -> Gsolv                  -0.277217733210 Eh    ::
         :: repulsion energy           0.748145264592 Eh    ::

    * Orbital Energies and Occupations

         #    Occupation            Energy/Eh            Energy/eV
      -------------------------------------------------------------
         1        2.0000           -0.8329920             -22.6669
       ...           ...                  ...                  ...
        56        2.0000           -0.4378108             -11.9134
        57        2.0000           -0.4343438             -11.8191
        58        2.0000           -0.4296385             -11.6911
        59        2.0000           -0.4274601             -11.6318
        60        2.0000           -0.4140690             -11.2674
        61        2.0000           -0.4121823             -11.2161
        62        2.0000           -0.4035668             -10.9816
        63        2.0000           -0.4004776             -10.8976
        64        2.0000           -0.3810995             -10.3702
        65        2.0000           -0.3560021              -9.6873
        66        2.0000           -0.3368496              -9.1661
        67        2.0000           -0.3217976              -8.7566
        68        1.8324           -0.2810431              -7.6476 (HOMO)
        69        0.1676           -0.2764981              -7.5239 (LUMO)
        70                         -0.2324769              -6.3260
        71                         -0.2258730              -6.1463
        72                         -0.1615922              -4.3971
        73                         -0.1605841              -4.3697
        74                         -0.1333699              -3.6292
        75                         -0.1058113              -2.8793
        76                         -0.1000381              -2.7222
        77                         -0.0923754              -2.5137
        78                         -0.0853587              -2.3227
        79                         -0.0794231              -2.1612
       ...                                ...                  ...
       134                          0.7701771              20.9576
      -------------------------------------------------------------
                  HL-Gap            0.0045450 Eh            0.1237 eV

Wiberg/Mayer (AO) data.
largest (>0.10) Wiberg bond orders for each atom

     #   Z sym  total        # sym  WBO       # sym  WBO       # sym  WBO
 ---------------------------------------------------------------------------
     1   6 C    3.916 --    27 H    0.985    26 H    0.981    28 H    0.980
                             2 O    0.946
     2   8 O    2.103 --     3 C    0.958     1 C    0.946
     3   6 C    3.853 --     4 O    1.517     5 C    1.248     2 O    0.958
     4   8 O    1.817 --     3 C    1.517
     5   6 C    3.889 --     6 C    1.306     3 C    1.248    24 N    0.966
                             7 O    0.127
     6   6 C    3.932 --     7 O    1.486     5 C    1.306     8 C    0.951
     7   8 O    1.782 --     6 C    1.486     5 C    0.127
     8   6 C    3.883 --     9 O    1.475    10 N    1.271     6 C    0.951
     9   8 O    1.752 --     8 C    1.475    10 N    0.155
    10   7 N    3.377 --     8 C    1.271    11 C    0.943    29 H    0.918
                             9 O    0.155
    11   6 C    3.205 --    24 N    0.966    12 C    0.955    10 N    0.943
    12   6 C    3.900 --    13 C    0.988    14 C    0.976    11 C    0.955
                            15 N    0.913
    13   6 C    3.992 --    12 C    0.988    30 H    0.987    32 H    0.987
                            31 H    0.984
    14   6 C    3.987 --    33 H    0.986    34 H    0.985    35 H    0.985
                            12 C    0.976
    15   7 N    3.359 --    16 C    1.294    12 C    0.913    36 H    0.880
                            17 O    0.177
    16   6 C    3.884 --    17 O    1.505    15 N    1.294    18 C    1.011
    17   8 O    1.808 --    16 C    1.505    15 N    0.177
    18   6 C    3.791 --    19 N    1.558    23 O    1.030    16 C    1.011
    19   7 N    2.931 --    18 C    1.558    20 N    1.184
    20   7 N    2.982 --    21 C    1.623    19 N    1.184
    21   6 C    3.857 --    20 N    1.623    23 O    1.071    22 C    1.027
    22   6 C    3.991 --    21 C    1.027    37 H    0.984    39 H    0.968
                            38 H    0.968
    23   8 O    2.273 --    21 C    1.071    18 C    1.030
    24   7 N    3.087 --    25 C    0.972     5 C    0.966    11 C    0.966
    25   6 C    3.985 --    42 H    0.989    40 H    0.988    41 H    0.981
                            24 N    0.972
    26   1 H    1.019 --     1 C    0.981
    27   1 H    1.030 --     1 C    0.985
    28   1 H    1.020 --     1 C    0.980
    29   1 H    0.984 --    10 N    0.918
    30   1 H    1.023 --    13 C    0.987
    31   1 H    1.017 --    13 C    0.984
    32   1 H    1.011 --    13 C    0.987
    33   1 H    1.015 --    14 C    0.986
    34   1 H    1.018 --    14 C    0.985
    35   1 H    1.015 --    14 C    0.985
    36   1 H    0.999 --    15 N    0.880
    37   1 H    1.001 --    22 C    0.984
    38   1 H    0.999 --    22 C    0.968
    39   1 H    0.999 --    22 C    0.968
    40   1 H    1.025 --    25 C    0.988
    41   1 H    1.013 --    25 C    0.981
    42   1 H    1.037 --    25 C    0.989
 ---------------------------------------------------------------------------

           -------------------------------------------------
          | TOTAL ENERGY              -83.588685313314 Eh   |
          | GRADIENT NORM               0.000362028330 Eh/α |
          | HOMO-LUMO GAP               0.123676325690 eV   |
           -------------------------------------------------

 * finished run on 2023/06/21 at 17:06:12.898
