   * xtb version 6.5.1 (579679a) compiled by 'ehlert@majestix' on 2022-07-11
          program call               : /lustre/hpc/kemi/ree/PhD/git/ReactivityQM/dep/xtb-6.5.1/bin/xtb --gfn 1 /lustre/hpc/kemi/ree/PhD/git/ReactivityQM/calculations/R01/reac01prodE04/conf09/R01_reac01prodE04_conf09_gfn1.xyz --opt --vfukui --chrg -1 --uhf 0 --alpb DMSO

   ID    Z sym.   atoms
    1    6 C      1, 3, 5, 7, 8, 11
    2    8 O      2, 4, 6
    3    7 N      9, 10
    4    1 H      12-20

      * Solvation model:               ALPB
        Solvent                        DMSO
        Solvent mass                       7.8130E+01 g/mol
          :  Hamiltonian                  GFN1-xTB          :
 * total energy  :   -38.2879763 Eh     change       -0.5982770E-11 Eh
 * total energy  :   -38.3022966 Eh     change       -0.1432037E-01 Eh
 * total energy  :   -38.3061441 Eh     change       -0.3847479E-02 Eh
 * total energy  :   -38.3074123 Eh     change       -0.1268187E-02 Eh
 * total energy  :   -38.3105451 Eh     change       -0.3132804E-02 Eh
 * total energy  :   -38.3122688 Eh     change       -0.1723684E-02 Eh
 * total energy  :   -38.3162057 Eh     change       -0.3936901E-02 Eh
 * total energy  :   -38.3183421 Eh     change       -0.2136449E-02 Eh
 * total energy  :   -38.3193519 Eh     change       -0.1009754E-02 Eh
 * total energy  :   -38.3203240 Eh     change       -0.9721491E-03 Eh
 * total energy  :   -38.3245435 Eh     change       -0.5777635E-04 Eh
 * total energy  :   -38.3246038 Eh     change       -0.6032353E-04 Eh
 * total energy  :   -38.3246449 Eh     change       -0.4111018E-04 Eh
 * total energy  :   -38.3246810 Eh     change       -0.3607839E-04 Eh
 * total energy  :   -38.3247079 Eh     change       -0.2693544E-04 Eh
 * total energy  :   -38.3247342 Eh     change       -0.2626822E-04 Eh
 * total energy  :   -38.3247463 Eh     change       -0.1208133E-04 Eh
 * total energy  :   -38.3247604 Eh     change       -0.1415228E-04 Eh
 * total energy  :   -38.3247622 Eh     change       -0.1765641E-05 Eh
   *** GEOMETRY OPTIMIZATION CONVERGED AFTER 32 ITERATIONS ***

 final structure:
================
20
 xtb: 6.5.1 (579679a)
C            3.55615175610861       -0.71708918434305        0.24218621328605
O            2.28913708402900       -0.18359813994386       -0.07503765355247
C            1.18676041782409       -0.98831888034973        0.36470703546658
O            1.43023148618187       -2.08208247221751        0.93365533981471
C            0.00268634476233       -0.30571597141799        0.25211310997817
O           -1.26316519130806       -0.95412037633894        0.40242017986705
C           -2.09827537191417       -0.24348023436845       -0.35983352717790
C           -3.52333477162653       -0.67358976011304       -0.43797701532499
N           -1.61746933134097        0.76837373646778       -0.97599012505687
N           -0.21589552295173        0.84034478820940       -0.63611795875430
C           -0.00220954552414        2.12332462452592        0.05399261180877
H            4.30800269547965       -0.01277783233064       -0.12065658023862
H            3.71796680145324       -1.69138003737671       -0.23996977404831
H            3.68087801382699       -0.84524271728951        1.32617017729444
H           -3.96449742818808       -0.67921651680805        0.55823658664040
H           -3.59145049973347       -1.68294278762080       -0.84349846302157
H           -4.07892304064527        0.01011263035504       -1.07506558201262
H            1.04969111667299        2.17720955750352        0.33016148897873
H           -0.62277211727325        2.20683223074833        0.95167318773942
H           -0.24350989583242        2.93335934270842       -0.63294525168677

          :  Hamiltonian                  GFN1-xTB          :
         :: total energy             -38.324762197446 Eh    ::
         :: gradient norm              0.000460904322 Eh/a0 ::
         :: HOMO-LUMO gap              2.422005950947 eV    ::
         :: SCC energy               -38.639240355292 Eh    ::
         :: -> Gsolv                  -0.102619056581 Eh    ::
         :: repulsion energy           0.322911641104 Eh    ::

    * Orbital Energies and Occupations

         #    Occupation            Energy/Eh            Energy/eV
      -------------------------------------------------------------
         1        2.0000           -0.7808348             -21.2476
       ...           ...                  ...                  ...
        19        2.0000           -0.5083043             -13.8317
        20        2.0000           -0.5035366             -13.7019
        21        2.0000           -0.4889888             -13.3061
        22        2.0000           -0.4832082             -13.1488
        23        2.0000           -0.4752294             -12.9316
        24        2.0000           -0.4682682             -12.7422
        25        2.0000           -0.4520998             -12.3023
        26        2.0000           -0.4254865             -11.5781
        27        2.0000           -0.4214342             -11.4678
        28        2.0000           -0.4160537             -11.3214
        29        2.0000           -0.3882774             -10.5656
        30        2.0000           -0.3848141             -10.4713
        31        2.0000           -0.2978670              -8.1054 (HOMO)
        32                         -0.2088599              -5.6834 (LUMO)
        33                         -0.1393177              -3.7910
        34                         -0.1235447              -3.3618
        35                         -0.1057146              -2.8766
        36                         -0.0929746              -2.5300
        37                         -0.0569317              -1.5492
        38                         -0.0563168              -1.5325
        39                         -0.0450979              -1.2272
        40                         -0.0422997              -1.1510
        41                         -0.0418576              -1.1390
        42                         -0.0369540              -1.0056
       ...                                ...                  ...
        62                          0.6997919              19.0423
      -------------------------------------------------------------
                  HL-Gap            0.0890071 Eh            2.4220 eV

Wiberg/Mayer (AO) data.
largest (>0.10) Wiberg bond orders for each atom

     #   Z sym  total        # sym  WBO       # sym  WBO       # sym  WBO
 ---------------------------------------------------------------------------
     1   6 C    3.923 --    12 H    0.986    13 H    0.981    14 H    0.980
                             2 O    0.957
     2   8 O    2.029 --     1 C    0.957     3 C    0.886
     3   6 C    3.880 --     5 C    1.488     4 O    1.390     2 O    0.886
     4   8 O    1.717 --     3 C    1.390     5 C    0.173
     5   6 C    3.635 --     3 C    1.488    10 N    0.950     6 O    0.875
                             4 O    0.173
     6   8 O    2.186 --     7 C    1.095     5 C    0.875     9 N    0.135
     7   6 C    3.908 --     9 N    1.708     6 O    1.095     8 C    1.014
     8   6 C    3.995 --     7 C    1.014    17 H    0.987    16 H    0.973
                            15 H    0.973
     9   7 N    2.945 --     7 C    1.708    10 N    0.984     6 O    0.135
    10   7 N    3.058 --     9 N    0.984    11 C    0.970     5 C    0.950
    11   6 C    3.982 --    20 H    0.989    18 H    0.987    19 H    0.984
                            10 N    0.970
    12   1 H    1.021 --     1 C    0.986
    13   1 H    1.024 --     1 C    0.981
    14   1 H    1.023 --     1 C    0.980
    15   1 H    1.003 --     8 C    0.973
    16   1 H    1.004 --     8 C    0.973
    17   1 H    1.006 --     8 C    0.987
    18   1 H    1.033 --    11 C    0.987
    19   1 H    1.021 --    11 C    0.984
    20   1 H    1.024 --    11 C    0.989
 ---------------------------------------------------------------------------

           -------------------------------------------------
          | TOTAL ENERGY              -38.324762197446 Eh   |
          | GRADIENT NORM               0.000460904322 Eh/α |
          | HOMO-LUMO GAP               2.422005950947 eV   |
           -------------------------------------------------

 * finished run on 2023/06/20 at 14:53:39.627
