   * xtb version 6.5.1 (579679a) compiled by 'ehlert@majestix' on 2022-07-11
          program call               : /lustre/hpc/kemi/ree/PhD/git/ReactivityQM/dep/xtb-6.5.1/bin/xtb --gfn 1 /lustre/hpc/kemi/ree/PhD/git/ReactivityQM/calculations/R02/reac01prodN17/conf12/R02_reac01prodN17_conf12_gfn1.xyz --opt --vfukui --chrg 1 --uhf 0 --alpb DMSO

   ID    Z sym.   atoms
    1    6 C      1, 3, 5, 7-10, 12, 13, 15, 18, 19, 22, 24
    2    8 O      2, 4, 14, 20, 23, 25
    3    7 N      6, 11, 16, 17, 21
    4    1 H      26-43

      * Solvation model:               ALPB
        Solvent                        DMSO
        Solvent mass                       7.8130E+01 g/mol
          :  Hamiltonian                  GFN1-xTB          :
 * total energy  :   -83.1271935 Eh     change       -0.2704326E-10 Eh
 * total energy  :   -83.1405770 Eh     change       -0.1338351E-01 Eh
 * total energy  :   -83.1457583 Eh     change       -0.5181235E-02 Eh
 * total energy  :   -83.1468687 Eh     change       -0.1110375E-02 Eh
 * total energy  :   -83.1473930 Eh     change       -0.5243553E-03 Eh
 * total energy  :   -83.1476813 Eh     change       -0.2882782E-03 Eh
 * total energy  :   -83.1479792 Eh     change       -0.2979032E-03 Eh
 * total energy  :   -83.1483063 Eh     change       -0.3271394E-03 Eh
 * total energy  :   -83.1486237 Eh     change       -0.3173478E-03 Eh
 * total energy  :   -83.1489191 Eh     change       -0.2953827E-03 Eh
 * total energy  :   -83.1530190 Eh     change       -0.8146617E-05 Eh
 * total energy  :   -83.1530295 Eh     change       -0.1052067E-04 Eh
 * total energy  :   -83.1530372 Eh     change       -0.7716453E-05 Eh
 * total energy  :   -83.1530427 Eh     change       -0.5470460E-05 Eh
 * total energy  :   -83.1530488 Eh     change       -0.6129602E-05 Eh
 * total energy  :   -83.1530572 Eh     change       -0.8394232E-05 Eh
 * total energy  :   -83.1530657 Eh     change       -0.8486902E-05 Eh
 * total energy  :   -83.1530716 Eh     change       -0.5895259E-05 Eh
 * total energy  :   -83.1530750 Eh     change       -0.3453822E-05 Eh
   *** GEOMETRY OPTIMIZATION CONVERGED AFTER 79 ITERATIONS ***

 final structure:
================
43
 xtb: 6.5.1 (579679a)
C           -2.63592276463935        2.13011959735457        2.71470776155882
O           -2.29437174576572        1.21308848022182        1.66763778738395
C           -3.30247474689417        0.78393964032066        0.90616920689376
O           -4.44763435871212        1.13165498319672        1.05915924410849
C           -2.83341212392569       -0.17039217447897       -0.14124394518155
N           -1.47780910871452       -0.40917232140257       -0.16728002705649
C           -0.97943442202693       -1.22605848116399       -1.03065603919702
C            0.52695622364178       -1.38370646926886       -1.05759145066333
C            1.00205610075890       -2.79842787148741       -1.35963653477751
C            1.09466072032678       -0.37608544036644       -2.06356322386306
N            0.95592681830106       -0.94726677123745        0.33197011082214
C            0.70474910609525       -1.95089697160597        1.39898844676647
C            2.40172173427454       -0.53513185217858        0.39304707488438
O            3.25822227785204       -1.35689634933295        0.31800450302018
C            2.49281085296023        0.89030315339211        0.57556857211392
N            1.47337161153560        1.71285645926086        0.64420601677751
N            1.97266790527525        2.94085137127597        0.81257621431615
C            3.28125980121598        2.82115537232972        0.84189006904981
C            4.27637945401282        3.89562278226215        1.00698168661915
O            3.65658731155272        1.55261319437102        0.69542010782426
N           -1.73444863628229       -1.87520672779220       -1.95478215314654
C           -3.10604490197447       -1.72333061889510       -2.02692702351674
O           -3.78775946545011       -2.31304337069081       -2.84378161287490
C           -3.65806394005448       -0.79296877691469       -1.03848305493164
O           -4.97566062454818       -0.61456234763679       -1.08535831657984
H           -1.70715004147172        2.37359224568717        3.22581852645171
H           -3.08587302688290        3.03151781674242        2.29113704752442
H           -3.33920885814869        1.66129636829939        3.40716160204792
H            0.84801121145708       -3.00419031773519       -2.41744842749939
H            2.06584058441525       -2.88733770138836       -1.14584055136568
H            0.45230496046955       -3.53404882176583       -0.77655940761031
H            0.66034554594337       -0.57563752081207       -3.04176898336364
H            0.84019055163481        0.63976992860628       -1.76398851289864
H            2.17626338063224       -0.47446683920289       -2.13443447340036
H            0.35492399732774       -0.12443231432794        0.53808155112877
H            1.39513350378760       -2.78003095264555        1.27662855987053
H            0.87058629520156       -1.45816599070317        2.35405210759584
H           -0.32713269644581       -2.27838797535010        1.31328957794424
H            4.85006357091387        4.00816300201191        0.08574417664605
H            4.97353402517705        3.63472006523182        1.80313682506933
H            3.77440919977980        4.83179419025925        1.23963368927129
H           -1.31282337986620       -2.50482643496159       -2.62021931546176
H           -5.35375090272304       -1.15838823745788       -1.80083941229676

          :  Hamiltonian                  GFN1-xTB          :
         :: total energy             -83.153075025201 Eh    ::
         :: gradient norm              0.000233781516 Eh/a0 ::
         :: HOMO-LUMO gap              1.741578677011 eV    ::
         :: SCC energy               -83.948841574994 Eh    ::
         :: -> Gsolv                  -0.118053887812 Eh    ::
         :: repulsion energy           0.824570028256 Eh    ::

    * Orbital Energies and Occupations

         #    Occupation            Energy/Eh            Energy/eV
      -------------------------------------------------------------
         1        2.0000           -0.9067222             -24.6732
       ...           ...                  ...                  ...
        55        2.0000           -0.5422419             -14.7552
        56        2.0000           -0.5346477             -14.5485
        57        2.0000           -0.5272130             -14.3462
        58        2.0000           -0.5238617             -14.2550
        59        2.0000           -0.5215119             -14.1911
        60        2.0000           -0.5113855             -13.9155
        61        2.0000           -0.5046958             -13.7335
        62        2.0000           -0.5004272             -13.6173
        63        2.0000           -0.4959145             -13.4945
        64        2.0000           -0.4938364             -13.4380
        65        2.0000           -0.4854638             -13.2101
        66        2.0000           -0.4705928             -12.8055
        67        2.0000           -0.4513620             -12.2822 (HOMO)
        68                         -0.3873602             -10.5406 (LUMO)
        69                         -0.3410161              -9.2795
        70                         -0.3107166              -8.4550
        71                         -0.2952668              -8.0346
        72                         -0.2620533              -7.1308
        73                         -0.2554210              -6.9504
        74                         -0.1770189              -4.8169
        75                         -0.1738859              -4.7317
        76                         -0.1630670              -4.4373
        77                         -0.1581242              -4.3028
        78                         -0.1483620              -4.0371
       ...                                ...                  ...
       136                          0.7367692              20.0485
      -------------------------------------------------------------
                  HL-Gap            0.0640018 Eh            1.7416 eV

Wiberg/Mayer (AO) data.
largest (>0.10) Wiberg bond orders for each atom

     #   Z sym  total        # sym  WBO       # sym  WBO       # sym  WBO
 ---------------------------------------------------------------------------
     1   6 C    3.866 --    26 H    0.986    27 H    0.979    28 H    0.979
                             2 O    0.892
     2   8 O    2.197 --     3 C    1.111     1 C    0.892     4 O    0.136
     3   6 C    3.856 --     4 O    1.670     2 O    1.111     5 C    0.997
     4   8 O    1.936 --     3 C    1.670     2 O    0.136
     5   6 C    3.956 --    24 C    1.504     6 N    1.161     3 C    0.997
     6   7 N    3.065 --     7 C    1.584     5 C    1.161
     7   6 C    3.942 --     6 N    1.584    21 N    1.186     8 C    0.980
     8   6 C    3.892 --     9 C    1.000    10 C    0.982     7 C    0.980
                            11 N    0.856
     9   6 C    3.980 --     8 C    1.000    31 H    0.981    30 H    0.974
                            29 H    0.974
    10   6 C    3.980 --     8 C    0.982    33 H    0.981    32 H    0.977
                            34 H    0.977
    11   7 N    3.597 --    12 C    0.898    13 C    0.860     8 C    0.856
                            35 H    0.848
    12   6 C    3.884 --    37 H    0.980    36 H    0.980    38 H    0.980
                            11 N    0.898
    13   6 C    3.881 --    14 O    1.792    15 C    1.085    11 N    0.860
    14   8 O    2.069 --    13 C    1.792
    15   6 C    3.890 --    16 N    1.510    13 C    1.085    20 O    1.059
    16   7 N    3.050 --    15 C    1.510    17 N    1.290
    17   7 N    2.991 --    18 C    1.507    16 N    1.290
    18   6 C    3.850 --    17 N    1.507    20 O    1.116    19 C    1.042
    19   6 C    3.976 --    18 C    1.042    41 H    0.979    40 H    0.957
                            39 H    0.948
    20   8 O    2.360 --    18 C    1.116    15 C    1.059
    21   7 N    3.467 --     7 C    1.186    22 C    1.116    42 H    0.875
                            23 O    0.131
    22   6 C    3.905 --    23 O    1.607    21 N    1.116    24 C    1.052
    23   8 O    1.929 --    22 C    1.607    21 N    0.131
    24   6 C    3.921 --     5 C    1.504    25 O    1.129    22 C    1.052
    25   8 O    2.106 --    24 C    1.129    43 H    0.801
    26   1 H    1.011 --     1 C    0.986
    27   1 H    1.006 --     1 C    0.979
    28   1 H    1.006 --     1 C    0.979
    29   1 H    0.993 --     9 C    0.974
    30   1 H    0.998 --     9 C    0.974
    31   1 H    0.995 --     9 C    0.981
    32   1 H    0.994 --    10 C    0.977
    33   1 H    1.001 --    10 C    0.981
    34   1 H    0.993 --    10 C    0.977
    35   1 H    0.974 --    11 N    0.848
    36   1 H    0.995 --    12 C    0.980
    37   1 H    0.989 --    12 C    0.980
    38   1 H    0.996 --    12 C    0.980
    39   1 H    0.990 --    19 C    0.948
    40   1 H    0.990 --    19 C    0.957
    41   1 H    0.994 --    19 C    0.979
    42   1 H    0.916 --    21 N    0.875
    43   1 H    0.837 --    25 O    0.801
 ---------------------------------------------------------------------------

           -------------------------------------------------
          | TOTAL ENERGY              -83.153075025201 Eh   |
          | GRADIENT NORM               0.000233781516 Eh/α |
          | HOMO-LUMO GAP               1.741578677011 eV   |
           -------------------------------------------------

 * finished run on 2023/06/20 at 15:43:25.300
