   * xtb version 6.5.1 (579679a) compiled by 'ehlert@majestix' on 2022-07-11
          program call               : /lustre/hpc/kemi/ree/PhD/git/ReactivityQM/dep/xtb-6.5.1/bin/xtb --gfn 1 /lustre/hpc/kemi/ree/PhD/git/ReactivityQM/calculations/R02methylcation/reac01prodN13/conf17/R02methylcation_reac01prodN13_conf17_gfn1.xyz --opt --vfukui --chrg 0 --uhf 0 --alpb DMSO

   ID    Z sym.   atoms
    1    6 C      1, 3, 5, 7-10, 12, 14, 17-19, 22, 24
    2    8 O      2, 4, 13, 20, 23, 25
    3    7 N      6, 11, 15, 16, 21
    4    1 H      26-42

      * Solvation model:               ALPB
        Solvent                        DMSO
        Solvent mass                       7.8130E+01 g/mol
          :  Hamiltonian                  GFN1-xTB          :
 * total energy  :   -82.9267794 Eh     change       -0.6008349E-10 Eh
 * total energy  :   -82.9355231 Eh     change       -0.8743653E-02 Eh
 * total energy  :   -82.9386922 Eh     change       -0.3169180E-02 Eh
 * total energy  :   -82.9392885 Eh     change       -0.5962273E-03 Eh
 * total energy  :   -82.9398022 Eh     change       -0.5137209E-03 Eh
 * total energy  :   -82.9400979 Eh     change       -0.2957524E-03 Eh
 * total energy  :   -82.9402899 Eh     change       -0.1919383E-03 Eh
 * total energy  :   -82.9403757 Eh     change       -0.8580652E-04 Eh
 * total energy  :   -82.9404155 Eh     change       -0.3984193E-04 Eh
 * total energy  :   -82.9404433 Eh     change       -0.2779762E-04 Eh
 * total energy  :   -82.9404658 Eh     change       -0.2249061E-04 Eh
 * total energy  :   -82.9404824 Eh     change       -0.1657920E-04 Eh
 * total energy  :   -82.9404968 Eh     change       -0.1437297E-04 Eh
 * total energy  :   -82.9405048 Eh     change       -0.8010821E-05 Eh
 * total energy  :   -82.9405138 Eh     change       -0.8999677E-05 Eh
 * total energy  :   -82.9405193 Eh     change       -0.5553680E-05 Eh
 * total energy  :   -82.9405247 Eh     change       -0.5327817E-05 Eh
 * total energy  :   -82.9405298 Eh     change       -0.5191667E-05 Eh
 * total energy  :   -82.9405334 Eh     change       -0.3521094E-05 Eh
   *** GEOMETRY OPTIMIZATION CONVERGED AFTER 19 ITERATIONS ***

 final structure:
================
42
 xtb: 6.5.1 (579679a)
C           -6.16221934843025        1.34266777438492       -0.56571714344240
O           -4.89019346150568        0.70553425100505       -0.44024521378183
C           -4.60554388869846       -0.23456625607606       -1.35597243038543
O           -5.37682143496549       -0.53653445605100       -2.23908550126437
C           -3.26116276347949       -0.82411251885350       -1.14097264722326
N           -2.56546329896361       -0.33048308330767       -0.09535804859367
C           -1.37000947115562       -0.76512762093873        0.17748577256470
C           -0.65030764755407       -0.23324845601158        1.39298664807324
C           -0.79734449761140       -1.27723914793480        2.51335701839356
C           -1.23885339610596        1.11817415081009        1.81016251459629
N            0.76534953336094       -0.06307693795896        1.04495279568734
C            1.69701338058637        0.31955464522192        1.94522232396795
O            1.52242097043260        0.47056401933611        3.14139169868354
C            3.02313273917492        0.55267795981049        1.31894866960703
N            4.11798681704981        0.97428633498886        1.97184356316550
N            5.07392207613585        1.10020981317198        1.12716092338619
C            4.60021750865546        0.74499086992546       -0.18410768344102
C            4.68080517567127        1.94954907661503       -1.12488005335056
C            5.36609265351908       -0.46728888554319       -0.71888648489246
O            3.22907268967078        0.39396092770666        0.03189767894486
N           -0.77399180289473       -1.74559255403907       -0.55125120477394
C           -1.35614658241867       -2.35661191302091       -1.65270085882146
O           -0.75772487232298       -3.22542347240114       -2.25358125487476
C           -2.74442161851120       -1.85681964106977       -2.00318195758743
O           -3.33571816271812       -2.34170582008317       -2.96367953874389
H           -6.96541095199829        0.60710974131275       -0.47134691886292
H           -6.24138218326068        1.84052681805006       -1.53569507733586
H           -6.22523938434405        2.07341527381280        0.23792966621529
H           -1.85437897915583       -1.49270353490240        2.66413698751587
H           -0.37654662655218       -0.89793070597450        3.44199472612795
H           -0.28177252505999       -2.19393504713060        2.23324125014957
H           -2.30448596242506        1.00244787909935        2.00162975784165
H           -1.09904322532512        1.84405017009403        1.01110155448349
H           -0.74589403956933        1.47624671755483        2.71165478492597
H            1.02003885793119       -0.05152683309987        0.07095614236394
H            4.27865010098817        1.67306969422296       -2.09621075153965
H            4.09957031515007        2.77038343102915       -0.71028744080613
H            5.72001116146348        2.25142216904924       -1.22868794265522
H            5.26431684342365       -1.29553439892885       -0.02100253968613
H            6.41579301771371       -0.20558853855282       -0.82688306096616
H            4.95584440726491       -0.75248250345861       -1.68444183418986
H            0.14984087684413       -2.06330939186335       -0.30484188947094

          :  Hamiltonian                  GFN1-xTB          :
         :: total energy             -82.940533369051 Eh    ::
         :: gradient norm              0.000721375814 Eh/a0 ::
         :: HOMO-LUMO gap              0.043406958664 eV    ::
         :: SCC energy               -83.707294000648 Eh    ::
         :: -> Gsolv                  -0.073670134350 Eh    ::
         :: repulsion energy           0.792258625793 Eh    ::

    * Orbital Energies and Occupations

         #    Occupation            Energy/Eh            Energy/eV
      -------------------------------------------------------------
         1        2.0000           -0.8816813             -23.9918
       ...           ...                  ...                  ...
        55        2.0000           -0.5128654             -13.9558
        56        2.0000           -0.5097038             -13.8697
        57        2.0000           -0.5078544             -13.8194
        58        2.0000           -0.5038904             -13.7116
        59        2.0000           -0.4920563             -13.3895
        60        2.0000           -0.4862021             -13.2302
        61        2.0000           -0.4822925             -13.1238
        62        2.0000           -0.4751231             -12.9288
        63        2.0000           -0.4681873             -12.7400
        64        2.0000           -0.4669207             -12.7056
        65        2.0000           -0.4605159             -12.5313
        66        2.0000           -0.4225487             -11.4981
        67        1.3967           -0.4072273             -11.0812 (HOMO)
        68        0.6033           -0.4056321             -11.0378 (LUMO)
        69                         -0.3219062              -8.7595
        70                         -0.3102308              -8.4418
        71                         -0.2850654              -7.7570
        72                         -0.2349300              -6.3928
        73                         -0.2223853              -6.0514
        74                         -0.1566805              -4.2635
        75                         -0.1428944              -3.8884
        76                         -0.1374292              -3.7396
        77                         -0.1345052              -3.6601
        78                         -0.1328434              -3.6149
       ...                                ...                  ...
       134                          0.7543963              20.5282
      -------------------------------------------------------------
                  HL-Gap            0.0015952 Eh            0.0434 eV

Wiberg/Mayer (AO) data.
largest (>0.10) Wiberg bond orders for each atom

     #   Z sym  total        # sym  WBO       # sym  WBO       # sym  WBO
 ---------------------------------------------------------------------------
     1   6 C    3.876 --    28 H    0.986    27 H    0.979    26 H    0.979
                             2 O    0.904
     2   8 O    2.176 --     3 C    1.089     1 C    0.904     4 O    0.130
     3   6 C    3.841 --     4 O    1.648     2 O    1.089     5 C    1.026
     4   8 O    1.890 --     3 C    1.648     2 O    0.130
     5   6 C    3.710 --     6 N    1.296    24 C    1.160     3 C    1.026
     6   7 N    2.986 --     7 C    1.477     5 C    1.296
     7   6 C    3.790 --     6 N    1.477    21 N    1.189     8 C    0.988
     8   6 C    3.924 --     7 C    0.988    10 C    0.985     9 C    0.967
                            11 N    0.920
     9   6 C    3.973 --    31 H    0.985    29 H    0.984    30 H    0.976
                             8 C    0.967
    10   6 C    3.983 --     8 C    0.985    33 H    0.985    34 H    0.982
                            32 H    0.982
    11   7 N    3.327 --    12 C    1.249     8 C    0.920    35 H    0.890
                            13 O    0.187
    12   6 C    3.908 --    13 O    1.585    11 N    1.249    14 C    0.992
    13   8 O    1.891 --    12 C    1.585    11 N    0.187
    14   6 C    3.624 --    15 N    1.315    20 O    1.174    12 C    0.992
    15   7 N    2.998 --    16 N    1.543    14 C    1.315
    16   7 N    2.687 --    15 N    1.543    17 C    1.024
    17   6 C    3.834 --    16 N    1.024    19 C    0.939    18 C    0.938
                            20 O    0.869
    18   6 C    3.938 --    37 H    0.982    38 H    0.982    36 H    0.980
                            17 C    0.938
    19   6 C    3.938 --    39 H    0.982    40 H    0.982    41 H    0.980
                            17 C    0.939
    20   8 O    2.198 --    14 C    1.174    17 C    0.869
    21   7 N    3.420 --     7 C    1.189    22 C    1.102    42 H    0.882
                            23 O    0.112
    22   6 C    3.837 --    23 O    1.658    21 N    1.102    24 C    0.947
    23   8 O    1.879 --    22 C    1.658    21 N    0.112
    24   6 C    3.866 --    25 O    1.620     5 C    1.160    22 C    0.947
    25   8 O    1.797 --    24 C    1.620
    26   1 H    1.007 --     1 C    0.979
    27   1 H    1.007 --     1 C    0.979
    28   1 H    1.012 --     1 C    0.986
    29   1 H    1.000 --     9 C    0.984
    30   1 H    1.007 --     9 C    0.976
    31   1 H    1.000 --     9 C    0.985
    32   1 H    1.010 --    10 C    0.982
    33   1 H    1.002 --    10 C    0.985
    34   1 H    1.005 --    10 C    0.982
    35   1 H    0.932 --    11 N    0.890
    36   1 H    0.996 --    18 C    0.980
    37   1 H    0.996 --    18 C    0.982
    38   1 H    0.997 --    18 C    0.982
    39   1 H    0.996 --    19 C    0.982
    40   1 H    0.997 --    19 C    0.982
    41   1 H    0.996 --    19 C    0.980
    42   1 H    0.927 --    21 N    0.882
 ---------------------------------------------------------------------------

           -------------------------------------------------
          | TOTAL ENERGY              -82.940533369051 Eh   |
          | GRADIENT NORM               0.000721375814 Eh/α |
          | HOMO-LUMO GAP               0.043406958664 eV   |
           -------------------------------------------------

 * finished run on 2023/06/21 at 17:46:52.567
