   * xtb version 6.5.1 (579679a) compiled by 'ehlert@majestix' on 2022-07-11
          program call               : /lustre/hpc/kemi/ree/PhD/git/ReactivityQM/dep/xtb-6.5.1/bin/xtb --gfn 1 /lustre/hpc/kemi/ree/PhD/git/ReactivityQM/calculations/R02methylcation/reac01/conf16/R02methylcation_reac01_conf16_gfn1.xyz --opt --vfukui --chrg -1 --uhf 0 --alpb DMSO

   ID    Z sym.   atoms
    1    6 C      1, 3, 5, 7-10, 12, 14, 17, 18, 21, 23
    2    8 O      2, 4, 13, 19, 22, 24
    3    7 N      6, 11, 15, 16, 20
    4    1 H      25-38

      * Solvation model:               ALPB
        Solvent                        DMSO
        Solvent mass                       7.8130E+01 g/mol
          :  Hamiltonian                  GFN1-xTB          :
 * total energy  :   -79.6019918 Eh     change       -0.3457501E-10 Eh
 * total energy  :   -79.6142685 Eh     change       -0.1227662E-01 Eh
 * total energy  :   -79.6184919 Eh     change       -0.4223468E-02 Eh
 * total energy  :   -79.6193572 Eh     change       -0.8652887E-03 Eh
 * total energy  :   -79.6200090 Eh     change       -0.6517787E-03 Eh
 * total energy  :   -79.6202998 Eh     change       -0.2907860E-03 Eh
 * total energy  :   -79.6204756 Eh     change       -0.1758478E-03 Eh
 * total energy  :   -79.6205791 Eh     change       -0.1035050E-03 Eh
 * total energy  :   -79.6206494 Eh     change       -0.7028347E-04 Eh
 * total energy  :   -79.6207082 Eh     change       -0.5882181E-04 Eh
 * total energy  :   -79.6215592 Eh     change       -0.6784558E-05 Eh
 * total energy  :   -79.6215655 Eh     change       -0.6340367E-05 Eh
 * total energy  :   -79.6215712 Eh     change       -0.5722518E-05 Eh
 * total energy  :   -79.6215790 Eh     change       -0.7784253E-05 Eh
 * total energy  :   -79.6215905 Eh     change       -0.1145835E-04 Eh
 * total energy  :   -79.6215981 Eh     change       -0.7637575E-05 Eh
 * total energy  :   -79.6216043 Eh     change       -0.6185944E-05 Eh
 * total energy  :   -79.6216168 Eh     change       -0.1250244E-04 Eh
 * total energy  :   -79.6216203 Eh     change       -0.3522076E-05 Eh
   *** GEOMETRY OPTIMIZATION CONVERGED AFTER 52 ITERATIONS ***

 final structure:
================
38
 xtb: 6.5.1 (579679a)
C            5.53029988377528        0.92484515871692        2.03813946538918
O            4.36998049658303        0.69155171790861        1.25244877140340
C            4.33290257983299        1.33792541616746        0.04643158334321
O            5.25345552297150        2.06645348524411       -0.28944063662145
C            3.12817949931916        1.03830969306213       -0.70914442131218
N            2.24302591600125        0.17490715926296       -0.09074127486595
C            1.15542647581473       -0.16889003812851       -0.67055739570010
C            0.18797623676846       -1.12646227518231       -0.00683490954566
C            0.19787209305200       -2.46727286318789       -0.75480273230827
C            0.57181940673179       -1.31562341234033        1.46361191101659
N           -1.15018478077943       -0.51985248911477       -0.09447853194406
C           -2.26969535785484       -1.09456154424816        0.38091752865734
O           -2.34932050850491       -2.19984093406048        0.88978321909962
C           -3.43967251558580       -0.18918407431316        0.20841538888733
N           -3.41354452028360        1.00818156709800       -0.29370486372563
N           -4.69114139006053        1.48296697435782       -0.24607380742957
C           -5.41358663745896        0.54398908362685        0.28354087476907
C           -6.86947158198321        0.56550241528409        0.54648952579104
O           -4.68169254744918       -0.53676111779244        0.59310073421854
N            0.82110355794113        0.28961608787147       -1.93134814776258
C            1.59925000945870        1.15682841155312       -2.65686178897406
O            1.23056063416965        1.51724921058878       -3.77155394056751
C            2.88543431409304        1.59869787833753       -1.99204287348131
O            3.62442635503593        2.39532009733347       -2.59605934772506
H            5.63953847697765        1.99050962721937        2.26448175166900
H            6.42887127626584        0.58117213035547        1.51513177229346
H            5.40697775339229        0.36358906039362        2.96343214124382
H           -0.47505995224614       -3.17558675572909       -0.27586663219459
H            1.20711808293376       -2.87662014233300       -0.74565875420486
H           -0.11699607118211       -2.32330716948830       -1.78677765748177
H            0.49937349782437       -0.36570912535451        1.99185125399129
H           -0.08631923732423       -2.04128303084914        1.93690174653817
H            1.59979421632625       -1.67097431338927        1.52176335459997
H           -1.22498528873539        0.42129081212836       -0.45286533027157
H           -7.37152032515244       -0.17568124623067       -0.07653105354145
H           -7.06519856124016        0.31660430224709        1.58933963538985
H           -7.26662596164091        1.55299647717051        0.32332580314628
H           -0.02837004778349       -0.02683023418621       -2.36776436180027

          :  Hamiltonian                  GFN1-xTB          :
         :: total energy             -79.621620320398 Eh    ::
         :: gradient norm              0.000899484043 Eh/a0 ::
         :: HOMO-LUMO gap              1.684664415816 eV    ::
         :: SCC energy               -80.349139036130 Eh    ::
         :: -> Gsolv                  -0.123819531936 Eh    ::
         :: repulsion energy           0.750284468592 Eh    ::

    * Orbital Energies and Occupations

         #    Occupation            Energy/Eh            Energy/eV
      -------------------------------------------------------------
         1        2.0000           -0.8600398             -23.4029
       ...           ...                  ...                  ...
        52        2.0000           -0.4847468             -13.1906
        53        2.0000           -0.4784922             -13.0204
        54        2.0000           -0.4654874             -12.6666
        55        2.0000           -0.4599055             -12.5147
        56        2.0000           -0.4565127             -12.4223
        57        2.0000           -0.4558229             -12.4036
        58        2.0000           -0.4475670             -12.1789
        59        2.0000           -0.4410332             -12.0011
        60        2.0000           -0.4402535             -11.9799
        61        2.0000           -0.4375522             -11.9064
        62        2.0000           -0.4180971             -11.3770
        63        2.0000           -0.3786650             -10.3040
        64        2.0000           -0.3668515              -9.9825 (HOMO)
        65                         -0.3049412              -8.2979 (LUMO)
        66                         -0.2711047              -7.3771
        67                         -0.2537214              -6.9041
        68                         -0.2410110              -6.5582
        69                         -0.1973752              -5.3709
        70                         -0.1932717              -5.2592
        71                         -0.1407860              -3.8310
        72                         -0.1224137              -3.3310
        73                         -0.1181477              -3.2150
        74                         -0.1136490              -3.0925
        75                         -0.1090833              -2.9683
       ...                                ...                  ...
       124                          0.7662751              20.8514
      -------------------------------------------------------------
                  HL-Gap            0.0619103 Eh            1.6847 eV

Wiberg/Mayer (AO) data.
largest (>0.10) Wiberg bond orders for each atom

     #   Z sym  total        # sym  WBO       # sym  WBO       # sym  WBO
 ---------------------------------------------------------------------------
     1   6 C    3.899 --    27 H    0.987    26 H    0.981    25 H    0.980
                             2 O    0.927
     2   8 O    2.137 --     3 C    1.026     1 C    0.927     4 O    0.109
     3   6 C    3.850 --     4 O    1.594     5 C    1.117     2 O    1.026
     4   8 O    1.869 --     3 C    1.594     2 O    0.109
     5   6 C    3.915 --    23 C    1.266     6 N    1.154     3 C    1.117
                            24 O    0.130
     6   7 N    3.031 --     7 C    1.637     5 C    1.154
     7   6 C    3.933 --     6 N    1.637    20 N    1.088     8 C    0.978
     8   6 C    3.929 --    10 C    0.994     9 C    0.983     7 C    0.978
                            11 N    0.910
     9   6 C    3.990 --    29 H    0.986    30 H    0.984     8 C    0.983
                            28 H    0.980
    10   6 C    3.992 --     8 C    0.994    31 H    0.986    32 H    0.984
                            33 H    0.984
    11   7 N    3.353 --    12 C    1.267     8 C    0.910    34 H    0.896
                            13 O    0.181
    12   6 C    3.919 --    13 O    1.586    11 N    1.267    14 C    0.984
    13   8 O    1.905 --    12 C    1.586    11 N    0.181
    14   6 C    3.873 --    15 N    1.614    19 O    1.063    12 C    0.984
    15   7 N    3.016 --    14 C    1.614    16 N    1.196
    16   7 N    2.980 --    17 C    1.609    15 N    1.196
    17   6 C    3.872 --    16 N    1.609    19 O    1.082    18 C    1.031
    18   6 C    3.987 --    17 C    1.031    37 H    0.983    36 H    0.966
                            35 H    0.962
    19   8 O    2.328 --    17 C    1.082    14 C    1.063
    20   7 N    3.422 --    21 C    1.157     7 C    1.088    38 H    0.898
                            22 O    0.135
    21   6 C    3.876 --    22 O    1.581    20 N    1.157    23 C    0.966
    22   8 O    1.859 --    21 C    1.581    20 N    0.135
    23   6 C    3.942 --    24 O    1.527     5 C    1.266    21 C    0.966
    24   8 O    1.831 --    23 C    1.527     5 C    0.130
    25   1 H    1.014 --     1 C    0.980
    26   1 H    1.013 --     1 C    0.981
    27   1 H    1.016 --     1 C    0.987
    28   1 H    1.010 --     9 C    0.980
    29   1 H    1.003 --     9 C    0.986
    30   1 H    1.003 --     9 C    0.984
    31   1 H    1.008 --    10 C    0.986
    32   1 H    1.009 --    10 C    0.984
    33   1 H    1.014 --    10 C    0.984
    34   1 H    0.956 --    11 N    0.896
    35   1 H    0.997 --    18 C    0.962
    36   1 H    0.997 --    18 C    0.966
    37   1 H    0.999 --    18 C    0.983
    38   1 H    0.945 --    20 N    0.898
 ---------------------------------------------------------------------------

           -------------------------------------------------
          | TOTAL ENERGY              -79.621620320398 Eh   |
          | GRADIENT NORM               0.000899484043 Eh/α |
          | HOMO-LUMO GAP               1.684664415816 eV   |
           -------------------------------------------------

 * finished run on 2023/06/21 at 17:04:07.120
