   * xtb version 6.5.1 (579679a) compiled by 'ehlert@majestix' on 2022-07-11
          program call               : /lustre/hpc/kemi/ree/PhD/git/ReactivityQM/dep/xtb-6.5.1/bin/xtb --gfn 1 /lustre/hpc/kemi/ree/PhD/git/ReactivityQM/calculations/R02oxygendeprot/reac01prodN11/conf09/R02oxygendeprot_reac01prodN11_conf09_gfn1.xyz --opt --vfukui --chrg 0 --uhf 0 --alpb DMSO

   ID    Z sym.   atoms
    1    6 C      1, 3, 5, 7-10, 12, 13, 15, 18, 19, 22, 24
    2    8 O      2, 4, 14, 20, 23, 25
    3    7 N      6, 11, 16, 17, 21
    4    1 H      26-42

      * Solvation model:               ALPB
        Solvent                        DMSO
        Solvent mass                       7.8130E+01 g/mol
          :  Hamiltonian                  GFN1-xTB          :
 * total energy  :   -82.8626750 Eh     change       -0.7958079E-12 Eh
 * total energy  :   -82.8764206 Eh     change       -0.1374558E-01 Eh
 * total energy  :   -82.8831761 Eh     change       -0.6755544E-02 Eh
 * total energy  :   -82.8843669 Eh     change       -0.1190783E-02 Eh
 * total energy  :   -82.8850048 Eh     change       -0.6378784E-03 Eh
 * total energy  :   -82.8853629 Eh     change       -0.3581740E-03 Eh
 * total energy  :   -82.8856067 Eh     change       -0.2437500E-03 Eh
 * total energy  :   -82.8857899 Eh     change       -0.1832271E-03 Eh
 * total energy  :   -82.8859337 Eh     change       -0.1438003E-03 Eh
 * total energy  :   -82.8860554 Eh     change       -0.1216699E-03 Eh
 * total energy  :   -82.8875203 Eh     change       -0.1717204E-04 Eh
 * total energy  :   -82.8875365 Eh     change       -0.1618809E-04 Eh
 * total energy  :   -82.8875483 Eh     change       -0.1184709E-04 Eh
 * total energy  :   -82.8875570 Eh     change       -0.8636839E-05 Eh
 * total energy  :   -82.8875656 Eh     change       -0.8664318E-05 Eh
 * total energy  :   -82.8875747 Eh     change       -0.9068492E-05 Eh
 * total energy  :   -82.8875843 Eh     change       -0.9633551E-05 Eh
 * total energy  :   -82.8875928 Eh     change       -0.8465174E-05 Eh
 * total energy  :   -82.8875955 Eh     change       -0.2737803E-05 Eh
   *** GEOMETRY OPTIMIZATION CONVERGED AFTER 44 ITERATIONS ***

 final structure:
================
42
 xtb: 6.5.1 (579679a)
C           -6.81443350220958        0.80728505684193        0.77032813915949
O           -5.44365828909477        1.15851881392795        0.55893178125816
C           -4.61647265432459        0.16587471161421        0.26135586591058
O           -4.96129575997266       -0.99039311106597        0.16489150822716
C           -3.19921438877858        0.60603733167349        0.05601498819306
N           -2.33708913836637       -0.39964111716375       -0.06563106952058
C           -1.05296465184686       -0.18072735021926       -0.26121220372019
C           -0.13282076778643       -1.34312228886536       -0.53960918000776
C            0.14222777501667       -1.37707430612721       -2.05269401628543
C           -0.78981157072194       -2.65746774030719       -0.08590315904669
N            1.05238609483440       -1.10270588634817        0.24510743972086
C            2.44130281797812       -1.32424339666052       -0.16548379231462
C            3.15775602807957       -1.85009762714692        1.14620837758148
O            2.64966091435134       -2.07787652741454       -1.17708038025075
C            3.00216317735267        0.11422021872135       -0.32912176290519
N            2.31285830562333        1.19428461648024       -0.50342616878721
N            3.21979981874833        2.20819044668970       -0.67017154037819
C            4.39415666216147        1.67265834240787       -0.58071910952182
C            5.71008048906869        2.33724753474934       -0.70010847755300
O            4.31917195885517        0.34357081873883       -0.36199608859235
N           -0.52638626203734        1.05574780227161       -0.20242804028405
C           -1.27525266647081        2.21435583641779       -0.06998071949685
O           -0.73941087184783        3.30003608065581       -0.06693709875045
C           -2.77810408756513        1.99871237354262        0.02434486716404
O           -3.52478460779073        2.96230456089468        0.08600652649727
H           -7.24617436752470        0.41769417534893       -0.15419422527903
H           -7.32593471957071        1.71804962402294        1.07428863063628
H           -6.88921734088781        0.04798602642214        1.55171993800666
H            0.65019283748941       -2.29803051900024       -2.32772607101445
H           -0.81091079491885       -1.33040947676628       -2.57734987554596
H            0.75512640939744       -0.52620897716069       -2.34419924651726
H           -1.72237708515016       -2.79953194077383       -0.62925470496352
H           -0.99925748855106       -2.61905316311426        0.98092209592348
H           -0.11246385099582       -3.48354048668377       -0.29063983366863
H            0.91257537047001       -0.70763260200178        1.15948122183446
H            2.73005413814139       -2.81983802506632        1.38141978507446
H            4.21373012745948       -1.94783820058828        0.91117416367686
H            3.01191268674306       -1.15436016633970        1.96584044732621
H            6.26020693427239        1.92450409166359       -1.54596628564923
H            6.29817936354588        2.16366000750610        0.20046901271775
H            5.56743269991019        3.40557924330855       -0.84405321964341
H            0.49705925688946        1.17327519488830       -0.30069251916791

          :  Hamiltonian                  GFN1-xTB          :
         :: total energy             -82.887595542804 Eh    ::
         :: gradient norm              0.000381314988 Eh/a0 ::
         :: HOMO-LUMO gap              0.133749582530 eV    ::
         :: SCC energy               -83.649341715623 Eh    ::
         :: -> Gsolv                  -0.060454156269 Eh    ::
         :: repulsion energy           0.788766865930 Eh    ::

    * Orbital Energies and Occupations

         #    Occupation            Energy/Eh            Energy/eV
      -------------------------------------------------------------
         1        2.0000           -0.8708492             -23.6970
       ...           ...                  ...                  ...
        55        2.0000           -0.5129751             -13.9588
        56        2.0000           -0.5087520             -13.8438
        57        2.0000           -0.5050595             -13.7434
        58        2.0000           -0.5002060             -13.6113
        59        2.0000           -0.4906432             -13.3511
        60        2.0000           -0.4884337             -13.2910
        61        2.0000           -0.4805105             -13.0754
        62        2.0000           -0.4684294             -12.7466
        63        2.0000           -0.4611208             -12.5477
        64        2.0000           -0.4506446             -12.2627
        65        2.0000           -0.4467117             -12.1556
        66        2.0000           -0.4395327             -11.9603
        67        1.8600           -0.4234815             -11.5235 (HOMO)
        68        0.1400           -0.4185663             -11.3898 (LUMO)
        69                         -0.3248413              -8.8394
        70                         -0.3026059              -8.2343
        71                         -0.2769918              -7.5373
        72                         -0.2607613              -7.0957
        73                         -0.2495462              -6.7905
        74                         -0.1768851              -4.8133
        75                         -0.1441775              -3.9233
        76                         -0.1394815              -3.7955
        77                         -0.1343887              -3.6569
        78                         -0.1316991              -3.5837
       ...                                ...                  ...
       134                          0.7475655              20.3423
      -------------------------------------------------------------
                  HL-Gap            0.0049152 Eh            0.1337 eV

Wiberg/Mayer (AO) data.
largest (>0.10) Wiberg bond orders for each atom

     #   Z sym  total        # sym  WBO       # sym  WBO       # sym  WBO
 ---------------------------------------------------------------------------
     1   6 C    3.866 --    27 H    0.986    28 H    0.978    26 H    0.978
                             2 O    0.893
     2   8 O    2.209 --     3 C    1.129     1 C    0.893     4 O    0.140
     3   6 C    3.847 --     4 O    1.653     2 O    1.129     5 C    0.992
     4   8 O    1.902 --     3 C    1.653     2 O    0.140
     5   6 C    3.783 --     6 N    1.401    24 C    1.106     3 C    0.992
     6   7 N    3.000 --     5 C    1.401     7 C    1.377
     7   6 C    3.878 --     6 N    1.377    21 N    1.254     8 C    0.982
     8   6 C    3.932 --     7 C    0.982    11 N    0.963     9 C    0.957
                            10 C    0.952
     9   6 C    3.977 --    30 H    0.984    31 H    0.984    29 H    0.975
                             8 C    0.957
    10   6 C    3.973 --    33 H    0.984    34 H    0.983    32 H    0.980
                             8 C    0.952
    11   7 N    3.260 --     8 C    0.963    12 C    0.915    35 H    0.903
                            14 O    0.162
    12   6 C    3.890 --    14 O    1.264    11 N    0.915    15 C    0.838
                            13 C    0.801
    13   6 C    3.853 --    38 H    0.986    36 H    0.981    37 H    0.980
                            12 C    0.801
    14   8 O    1.616 --    12 C    1.264    11 N    0.162
    15   6 C    3.794 --    16 N    1.633    20 O    1.087    12 C    0.838
    16   7 N    3.086 --    15 C    1.633    17 N    1.157    42 H    0.100
    17   7 N    2.982 --    18 C    1.636    16 N    1.157
    18   6 C    3.859 --    17 N    1.636    20 O    1.054    19 C    1.031
    19   6 C    3.984 --    18 C    1.031    41 H    0.982    40 H    0.964
                            39 H    0.962
    20   8 O    2.326 --    15 C    1.087    18 C    1.054
    21   7 N    3.473 --     7 C    1.254    22 C    1.100    42 H    0.811
                            23 O    0.104
    22   6 C    3.853 --    23 O    1.679    21 N    1.100    24 C    0.935
    23   8 O    1.918 --    22 C    1.679    21 N    0.104
    24   6 C    3.859 --    25 O    1.671     5 C    1.106    22 C    0.935
    25   8 O    1.832 --    24 C    1.671
    26   1 H    1.005 --     1 C    0.978
    27   1 H    1.010 --     1 C    0.986
    28   1 H    1.005 --     1 C    0.978
    29   1 H    1.013 --     9 C    0.975
    30   1 H    1.000 --     9 C    0.984
    31   1 H    1.004 --     9 C    0.984
    32   1 H    1.007 --    10 C    0.980
    33   1 H    1.001 --    10 C    0.984
    34   1 H    1.000 --    10 C    0.983
    35   1 H    0.936 --    11 N    0.903
    36   1 H    0.996 --    13 C    0.981
    37   1 H    1.001 --    13 C    0.980
    38   1 H    0.996 --    13 C    0.986
    39   1 H    0.996 --    19 C    0.962
    40   1 H    0.996 --    19 C    0.964
    41   1 H    0.997 --    19 C    0.982
    42   1 H    0.956 --    21 N    0.811    16 N    0.100
 ---------------------------------------------------------------------------

           -------------------------------------------------
          | TOTAL ENERGY              -82.887595542804 Eh   |
          | GRADIENT NORM               0.000381314988 Eh/α |
          | HOMO-LUMO GAP               0.133749582530 eV   |
           -------------------------------------------------

 * finished run on 2023/06/21 at 17:27:05.592
