                         Program Version 5.0.1 -  RELEASE  -
|  1> # ORCA input file
|  2> ! SP r2SCAN-3c CPCM
|  3>
|  4> %maxcore 1875.0
|  5> %pal nprocs 4 end
|  6> %cpcm smd true SMDsolvent "DMSO" end
|  7>
|  8> *xyz -2 1
|  9> C       5.292913    1.633142    2.636897
| 10> O       4.345686    1.690619    1.586272
| 11> C       3.480010    0.631437    1.513046
| 12> O       3.556933   -0.272988    2.345243
| 13> C       2.537118    0.687917    0.419277
| 14> N       1.703274   -0.423873    0.363383
| 15> C       0.825906   -0.517064   -0.576200
| 16> C      -0.001757   -1.795726   -0.704973
| 17> C       0.311485   -2.701219    0.494809
| 18> C       0.414384   -2.521171   -1.998770
| 19> N      -1.461827   -1.625660   -0.710918
| 20> C      -2.111439   -0.553383   -1.551503
| 21> C      -3.527683   -1.108605   -1.874764
| 22> O      -1.448762   -0.209578   -2.653548
| 23> C      -2.318073    0.637844   -0.586924
| 24> N      -1.815969    1.826620   -0.639972
| 25> N      -2.297725    2.517844    0.453258
| 26> C      -3.059983    1.699752    1.093388
| 27> C      -3.830231    1.958151    2.333505
| 28> O      -3.120771    0.491182    0.499055
| 29> N       0.666002    0.428498   -1.545545
| 30> C       1.394617    1.568674   -1.598498
| 31> O       1.200040    2.417069   -2.482670
| 32> C       2.459742    1.738123   -0.532561
| 33> O       3.176346    2.765989   -0.554992
| 34> H       4.797324    1.604370    3.613372
| 35> H       5.908580    2.529809    2.567498
| 36> H       5.928650    0.745779    2.544195
| 37> H       0.075186   -2.188465    1.427642
| 38> H       1.370244   -2.960411    0.505166
| 39> H      -0.277372   -3.615574    0.436001
| 40> H       1.486023   -2.722620   -1.988773
| 41> H      -0.122018   -3.466865   -2.072096
| 42> H       0.175195   -1.920104   -2.875112
| 43> H      -1.803774   -1.535451    0.240650
| 44> H      -3.415463   -1.994784   -2.496399
| 45> H      -4.058604   -1.374242   -0.963760
| 46> H      -4.095696   -0.357011   -2.420936
| 47> H      -4.894240    1.814750    2.149183
| 48> H      -3.657491    2.978745    2.666146
| 49> H      -3.529635    1.264317    3.117761
| 50> H      -0.257145    0.234165   -2.176834
| 51> **                         ****END OF INPUT****

CARTESIAN COORDINATES (ANGSTROEM)
---------------------------------
  C      5.292913    1.633142    2.636897
  O      4.345686    1.690619    1.586272
  C      3.480010    0.631437    1.513046
  O      3.556933   -0.272988    2.345243
  C      2.537118    0.687917    0.419277
  N      1.703274   -0.423873    0.363383
  C      0.825906   -0.517064   -0.576200
  C     -0.001757   -1.795726   -0.704973
  C      0.311485   -2.701219    0.494809
  C      0.414384   -2.521171   -1.998770
  N     -1.461827   -1.625660   -0.710918
  C     -2.111439   -0.553383   -1.551503
  C     -3.527683   -1.108605   -1.874764
  O     -1.448762   -0.209578   -2.653548
  C     -2.318073    0.637844   -0.586924
  N     -1.815969    1.826620   -0.639972
  N     -2.297725    2.517844    0.453258
  C     -3.059983    1.699752    1.093388
  C     -3.830231    1.958151    2.333505
  O     -3.120771    0.491182    0.499055
  N      0.666002    0.428498   -1.545545
  C      1.394617    1.568674   -1.598498
  O      1.200040    2.417069   -2.482670
  C      2.459742    1.738123   -0.532561
  O      3.176346    2.765989   -0.554992
  H      4.797324    1.604370    3.613372
  H      5.908580    2.529809    2.567498
  H      5.928650    0.745779    2.544195
  H      0.075186   -2.188465    1.427642
  H      1.370244   -2.960411    0.505166
  H     -0.277372   -3.615574    0.436001
  H      1.486023   -2.722620   -1.988773
  H     -0.122018   -3.466865   -2.072096
  H      0.175195   -1.920104   -2.875112
  H     -1.803774   -1.535451    0.240650
  H     -3.415463   -1.994784   -2.496399
  H     -4.058604   -1.374242   -0.963760
  H     -4.095696   -0.357011   -2.420936
  H     -4.894240    1.814750    2.149183
  H     -3.657491    2.978745    2.666146
  H     -3.529635    1.264317    3.117761
  H     -0.257145    0.234165   -2.176834

 Total Charge           Charge          ....   -2
 Multiplicity           Mult            ....    1
 Number of Electrons    NEL             ....  186
 Basis Dimension        Dim             ....  615

ORBITAL ENERGIES
----------------

  NO   OCC          E(Eh)            E(eV)
   0   2.0000     -19.032008      -517.8873
   1   2.0000     -18.957142      -515.8501
   2   2.0000     -18.890681      -514.0416
   3   2.0000     -18.874449      -513.5999
   4   2.0000     -18.858697      -513.1712
   5   2.0000     -18.852077      -512.9911
   6   2.0000     -14.171470      -385.6253
   7   2.0000     -14.164983      -385.4488
   8   2.0000     -14.134525      -384.6200
   9   2.0000     -14.123729      -384.3262
  10   2.0000     -14.109904      -383.9500
  11   2.0000     -10.118882      -275.3488
  12   2.0000     -10.111492      -275.1477
  13   2.0000     -10.100568      -274.8504
  14   2.0000     -10.097736      -274.7734
  15   2.0000     -10.080221      -274.2968
  16   2.0000     -10.056292      -273.6456
  17   2.0000     -10.055454      -273.6228
  18   2.0000     -10.055356      -273.6201
  19   2.0000     -10.050503      -273.4881
  20   2.0000     -10.034271      -273.0464
  21   2.0000     -10.015617      -272.5388
  22   2.0000     -10.000420      -272.1252
  23   2.0000      -9.997568      -272.0476
  24   2.0000      -9.996891      -272.0292
  25   2.0000      -1.119399       -30.4604
  26   2.0000      -1.025939       -27.9172
  27   2.0000      -0.959428       -26.1074
  28   2.0000      -0.939629       -25.5686
  29   2.0000      -0.932590       -25.3771
  30   2.0000      -0.927620       -25.2418
  31   2.0000      -0.912255       -24.8237
  32   2.0000      -0.893526       -24.3141
  33   2.0000      -0.833357       -22.6768
  34   2.0000      -0.805637       -21.9225
  35   2.0000      -0.800382       -21.7795
  36   2.0000      -0.728687       -19.8286
  37   2.0000      -0.693575       -18.8731
  38   2.0000      -0.689338       -18.7578
  39   2.0000      -0.664978       -18.0950
  40   2.0000      -0.649330       -17.6692
  41   2.0000      -0.636672       -17.3247
  42   2.0000      -0.611226       -16.6323
  43   2.0000      -0.586714       -15.9653
  44   2.0000      -0.565552       -15.3895
  45   2.0000      -0.564859       -15.3706
  46   2.0000      -0.531016       -14.4497
  47   2.0000      -0.508538       -13.8380
  48   2.0000      -0.495513       -13.4836
  49   2.0000      -0.470297       -12.7974
  50   2.0000      -0.466079       -12.6827
  51   2.0000      -0.455716       -12.4007
  52   2.0000      -0.446113       -12.1394
  53   2.0000      -0.444927       -12.1071
  54   2.0000      -0.424683       -11.5562
  55   2.0000      -0.416908       -11.3446
  56   2.0000      -0.408708       -11.1215
  57   2.0000      -0.396381       -10.7861
  58   2.0000      -0.390507       -10.6262
  59   2.0000      -0.386713       -10.5230
  60   2.0000      -0.381786       -10.3889
  61   2.0000      -0.378243       -10.2925
  62   2.0000      -0.370792       -10.0898
  63   2.0000      -0.366112        -9.9624
  64   2.0000      -0.357809        -9.7365
  65   2.0000      -0.355598        -9.6763
  66   2.0000      -0.350614        -9.5407
  67   2.0000      -0.345551        -9.4029
  68   2.0000      -0.336297        -9.1511
  69   2.0000      -0.333840        -9.0842
  70   2.0000      -0.333051        -9.0628
  71   2.0000      -0.325774        -8.8648
  72   2.0000      -0.313118        -8.5204
  73   2.0000      -0.311518        -8.4768
  74   2.0000      -0.308457        -8.3935
  75   2.0000      -0.306537        -8.3413
  76   2.0000      -0.293774        -7.9940
  77   2.0000      -0.289631        -7.8812
  78   2.0000      -0.285834        -7.7780
  79   2.0000      -0.284256        -7.7350
  80   2.0000      -0.280789        -7.6407
  81   2.0000      -0.240468        -6.5435
  82   2.0000      -0.238158        -6.4806
  83   2.0000      -0.235917        -6.4196
  84   2.0000      -0.220092        -5.9890
  85   2.0000      -0.209981        -5.7139
  86   2.0000      -0.208256        -5.6669
  87   2.0000      -0.196921        -5.3585
  88   2.0000      -0.183843        -5.0026
  89   2.0000      -0.181336        -4.9344
  90   2.0000      -0.166520        -4.5312
  91   2.0000      -0.143805        -3.9131
  92   2.0000      -0.136440        -3.7127
  93   0.0000      -0.031955        -0.8696
  94   0.0000      -0.018504        -0.5035
  95   0.0000       0.013228         0.3600
  96   0.0000       0.021699         0.5905
  97   0.0000       0.056985         1.5506

MULLIKEN ATOMIC CHARGES
-----------------------
   0 C :   -0.337022
   1 O :   -0.150503
   2 C :    0.116061
   3 O :   -0.444790
   4 C :   -0.059236
   5 N :   -0.142805
   6 C :    0.032324
   7 C :    0.274756
   8 C :   -0.616195
   9 C :   -0.667483
  10 N :   -0.444257
  11 C :    0.059013
  12 C :   -0.641305
  13 O :   -0.601727
  14 C :    0.177872
  15 N :   -0.083765
  16 N :   -0.373225
  17 C :    0.380647
  18 C :   -0.655004
  19 O :   -0.078307
  20 N :   -0.014449
  21 C :   -0.102258
  22 O :   -0.415505
  23 C :   -0.117262
  24 O :   -0.373002
  25 H :    0.158469
  26 H :    0.158989
  27 H :    0.158055
  28 H :    0.175159
  29 H :    0.180452
  30 H :    0.163882
  31 H :    0.164755
  32 H :    0.168477
  33 H :    0.191311
  34 H :    0.295471
  35 H :    0.171015
  36 H :    0.160756
  37 H :    0.168936
  38 H :    0.191002
  39 H :    0.197359
  40 H :    0.191488
  41 H :    0.381849
Sum of atomic charges:   -2.0000000

LOEWDIN ATOMIC CHARGES
----------------------
   0 C :   -0.062020
   1 O :   -0.615158
   2 C :    0.382924
   3 O :   -0.501824
   4 C :    0.098634
   5 N :   -0.645203
   6 C :    0.299342
   7 C :    0.086016
   8 C :   -0.362103
   9 C :   -0.372111
  10 N :   -0.738148
  11 C :    0.253367
  12 C :   -0.362671
  13 O :   -0.722066
  14 C :    0.399744
  15 N :   -0.373470
  16 N :   -0.398437
  17 C :    0.346391
  18 C :   -0.327069
  19 O :   -0.417609
  20 N :   -0.540483
  21 C :    0.330426
  22 O :   -0.519447
  23 C :    0.218784
  24 O :   -0.595693
  25 H :    0.170108
  26 H :    0.174126
  27 H :    0.170087
  28 H :    0.166843
  29 H :    0.169045
  30 H :    0.158267
  31 H :    0.158014
  32 H :    0.160295
  33 H :    0.177267
  34 H :    0.269223
  35 H :    0.164130
  36 H :    0.162193
  37 H :    0.160845
  38 H :    0.184468
  39 H :    0.185681
  40 H :    0.184451
  41 H :    0.322839

  Mayer bond orders larger than 0.100000
B(  0-C ,  1-O ) :   0.8545 B(  0-C , 25-H ) :   0.9644 B(  0-C , 26-H ) :   0.9708
B(  0-C , 27-H ) :   0.9642 B(  1-O ,  2-C ) :   1.1012 B(  2-C ,  3-O ) :   1.8742
B(  2-C ,  4-C ) :   1.1880 B(  4-C ,  5-N ) :   0.8586 B(  4-C , 23-C ) :   0.9264
B(  4-C , 24-O ) :  -0.1227 B(  5-N ,  6-C ) :   1.8934 B(  5-N ,  7-C ) :  -0.1192
B(  5-N ,  8-C ) :   0.1015 B(  6-C ,  7-C ) :   0.7502 B(  6-C , 10-N ) :  -0.1181
B(  6-C , 20-N ) :   1.1326 B(  7-C ,  8-C ) :   0.9420 B(  7-C ,  9-C ) :   0.8334
B(  7-C , 10-N ) :   0.9772 B(  8-C , 28-H ) :   0.9708 B(  8-C , 29-H ) :   0.9818
B(  8-C , 30-H ) :   0.9750 B(  9-C , 31-H ) :   0.9794 B(  9-C , 32-H ) :   0.9757
B(  9-C , 33-H ) :   0.9754 B( 10-N , 11-C ) :   0.6540 B( 10-N , 34-H ) :   0.8862
B( 11-C , 12-C ) :   0.9046 B( 11-C , 13-O ) :   1.4245 B( 11-C , 14-C ) :   0.8281
B( 11-C , 20-N ) :   0.1537 B( 12-C , 35-H ) :   0.9895 B( 12-C , 36-H ) :   0.9697
B( 12-C , 37-H ) :   0.9911 B( 13-O , 41-H ) :   0.1918 B( 14-C , 15-N ) :   1.8146
B( 14-C , 19-O ) :   1.0255 B( 15-N , 16-N ) :   1.2403 B( 16-N , 17-C ) :   1.6994
B( 17-C , 18-C ) :   0.8153 B( 17-C , 19-O ) :   1.0811 B( 18-C , 38-H ) :   0.9494
B( 18-C , 39-H ) :   0.9960 B( 18-C , 40-H ) :   0.9508 B( 20-N , 21-C ) :   1.0128
B( 20-N , 41-H ) :   0.6490 B( 21-C , 22-O ) :   2.0840 B( 21-C , 23-C ) :   0.8616
B( 23-C , 24-O ) :   2.0165

Dispersion correction           -0.020495254
FINAL SINGLE POINT ENERGY     -1268.876494194240

DIPOLE MOMENT
-------------
                                X             Y             Z
Electronic contribution:      5.97775      14.18717      -2.65927
Nuclear contribution   :    -10.19852     -17.18900       6.54943
                        -----------------------------------------
Total Dipole Moment    :     -4.22076      -3.00183       3.89017
                        -----------------------------------------
Magnitude (a.u.)       :      6.47760
Magnitude (Debye)      :     16.46474

Rotational constants in cm-1:     0.010792     0.005170     0.004748
Rotational constants in MHz :   323.536576   154.990367   142.328764

                             ****ORCA TERMINATED NORMALLY****
TOTAL RUN TIME: 0 days 0 hours 1 minutes 39 seconds 880 msec
