   * xtb version 6.5.1 (579679a) compiled by 'ehlert@majestix' on 2022-07-11
          program call               : /lustre/hpc/kemi/ree/PhD/git/ReactivityQM/dep/xtb-6.5.1/bin/xtb --gfn 1 /lustre/hpc/kemi/ree/PhD/git/ReactivityQM/calculations/R02oxygendeprot/reac01prodE01/conf06/R02oxygendeprot_reac01prodE01_conf06_gfn1.xyz --opt --vfukui --chrg -2 --uhf 0 --alpb DMSO

   ID    Z sym.   atoms
    1    6 C      1, 3, 5, 7-10, 12, 13, 15, 18, 19, 22, 24
    2    8 O      2, 4, 14, 20, 23, 25
    3    7 N      6, 11, 16, 17, 21
    4    1 H      26-42

      * Solvation model:               ALPB
        Solvent                        DMSO
        Solvent mass                       7.8130E+01 g/mol
          :  Hamiltonian                  GFN1-xTB          :
 * total energy  :   -83.6286135 Eh     change       -0.1517719E-10 Eh
 * total energy  :   -83.6420371 Eh     change       -0.1342359E-01 Eh
 * total energy  :   -83.6471786 Eh     change       -0.5141464E-02 Eh
 * total energy  :   -83.6483502 Eh     change       -0.1171571E-02 Eh
 * total energy  :   -83.6490741 Eh     change       -0.7239411E-03 Eh
 * total energy  :   -83.6495640 Eh     change       -0.4898906E-03 Eh
 * total energy  :   -83.6500992 Eh     change       -0.5352274E-03 Eh
 * total energy  :   -83.6506951 Eh     change       -0.5958642E-03 Eh
 * total energy  :   -83.6512451 Eh     change       -0.5500311E-03 Eh
 * total energy  :   -83.6515988 Eh     change       -0.3536960E-03 Eh
 * total energy  :   -83.6576435 Eh     change       -0.8361767E-05 Eh
 * total energy  :   -83.6576505 Eh     change       -0.7067917E-05 Eh
 * total energy  :   -83.6576568 Eh     change       -0.6225364E-05 Eh
 * total energy  :   -83.6576628 Eh     change       -0.6002508E-05 Eh
 * total energy  :   -83.6576689 Eh     change       -0.6153573E-05 Eh
 * total energy  :   -83.6576752 Eh     change       -0.6329124E-05 Eh
 * total energy  :   -83.6576815 Eh     change       -0.6261653E-05 Eh
 * total energy  :   -83.6576870 Eh     change       -0.5514175E-05 Eh
 * total energy  :   -83.6576894 Eh     change       -0.2374001E-05 Eh
   *** GEOMETRY OPTIMIZATION CONVERGED AFTER 122 ITERATIONS ***

 final structure:
================
42
 xtb: 6.5.1 (579679a)
C            5.29291283734648        1.63314170674833        2.63689673685740
O            4.34568584920775        1.69061872334835        1.58627224165249
C            3.48000990228509        0.63143706360927        1.51304567940158
O            3.55693266451670       -0.27298837356901        2.34524343097307
C            2.53711759547787        0.68791741710480        0.41927732588922
N            1.70327431850219       -0.42387321816128        0.36338258169652
C            0.82590601812839       -0.51706364602531       -0.57620018583149
C           -0.00175716889646       -1.79572630985824       -0.70497332241489
C            0.31148537742585       -2.70121945156531        0.49480883318161
C            0.41438380059695       -2.52117068055192       -1.99877033352364
N           -1.46182748109251       -1.62565969441621       -0.71091806810395
C           -2.11143911800783       -0.55338339616787       -1.55150308879101
C           -3.52768315548127       -1.10860489908259       -1.87476358688926
O           -1.44876159885473       -0.20957842496211       -2.65354817471689
C           -2.31807313037431        0.63784448334684       -0.58692370347015
N           -1.81596865561862        1.82661998264287       -0.63997191232411
N           -2.29772534046761        2.51784351726302        0.45325801694226
C           -3.05998290418519        1.69975187851442        1.09338791047029
C           -3.83023117330738        1.95815115314475        2.33350498220858
O           -3.12077091399566        0.49118209152461        0.49905453623989
N            0.66600248008154        0.42849829094924       -1.54554511997110
C            1.39461715731654        1.56867378524421       -1.59849809552139
O            1.20003999188057        2.41706860976205       -2.48266952298424
C            2.45974213226806        1.73812275983223       -0.53256136997311
O            3.17634557098410        2.76598898767073       -0.55499177023909
H            4.79732379192701        1.60436970587327        3.61337161601806
H            5.90858039859352        2.52980887060557        2.56749838211161
H            5.92864973155996        0.74577877762549        2.54419461156172
H            0.07518561405122       -2.18846528092842        1.42764182614909
H            1.37024392438010       -2.96041110072092        0.50516593510484
H           -0.27737176529369       -3.61557362946452        0.43600125355539
H            1.48602282424447       -2.72261968665663       -1.98877262243432
H           -0.12201839007492       -3.46686525825491       -2.07209577194777
H            0.17519504406624       -1.92010447212384       -2.87511178064187
H           -1.80377440597239       -1.53545149457573        0.24064992486794
H           -3.41546292869839       -1.99478406528437       -2.49639910171701
H           -4.05860392853327       -1.37424177283123       -0.96375960322336
H           -4.09569582898937       -0.35701122163575       -2.42093565670621
H           -4.89423951227952        1.81475015234210        2.14918264249360
H           -3.65749063160903        2.97874519366672        2.66614566299859
H           -3.52963501331130        1.26431673989968        3.11776115291479
H           -0.25714497980116        0.23416518611272       -2.17683449188542

          :  Hamiltonian                  GFN1-xTB          :
         :: total energy             -83.657689393561 Eh    ::
         :: gradient norm              0.000163333175 Eh/a0 ::
         :: HOMO-LUMO gap              2.531093692924 eV    ::
         :: SCC energy               -84.377167050385 Eh    ::
         :: -> Gsolv                  -0.289524987858 Eh    ::
         :: repulsion energy           0.747428981241 Eh    ::

    * Orbital Energies and Occupations

         #    Occupation            Energy/Eh            Energy/eV
      -------------------------------------------------------------
         1        2.0000           -0.8225465             -22.3826
       ...           ...                  ...                  ...
        56        2.0000           -0.4430911             -12.0571
        57        2.0000           -0.4373441             -11.9007
        58        2.0000           -0.4227899             -11.5047
        59        2.0000           -0.4171314             -11.3507
        60        2.0000           -0.4161369             -11.3237
        61        2.0000           -0.4128410             -11.2340
        62        2.0000           -0.3967785             -10.7969
        63        2.0000           -0.3867397             -10.5237
        64        2.0000           -0.3817239             -10.3872
        65        2.0000           -0.3718728             -10.1192
        66        2.0000           -0.3541242              -9.6362
        67        2.0000           -0.3393062              -9.2330
        68        2.0000           -0.3348069              -9.1106 (HOMO)
        69                         -0.2417910              -6.5795 (LUMO)
        70                         -0.2294007              -6.2423
        71                         -0.2127811              -5.7901
        72                         -0.2018431              -5.4924
        73                         -0.1673313              -4.5533
        74                         -0.1287605              -3.5038
        75                         -0.1150311              -3.1302
        76                         -0.0933628              -2.5405
        77                         -0.0920657              -2.5052
        78                         -0.0889305              -2.4199
        79                         -0.0793562              -2.1594
       ...                                ...                  ...
       134                          0.7649722              20.8160
      -------------------------------------------------------------
                  HL-Gap            0.0930160 Eh            2.5311 eV

Wiberg/Mayer (AO) data.
largest (>0.10) Wiberg bond orders for each atom

     #   Z sym  total        # sym  WBO       # sym  WBO       # sym  WBO
 ---------------------------------------------------------------------------
     1   6 C    3.909 --    27 H    0.987    28 H    0.980    26 H    0.980
                             2 O    0.936
     2   8 O    2.140 --     3 C    1.018     1 C    0.936     4 O    0.101
     3   6 C    3.846 --     4 O    1.550     5 C    1.151     2 O    1.018
     4   8 O    1.831 --     3 C    1.550     2 O    0.101
     5   6 C    3.918 --    24 C    1.277     3 C    1.151     6 N    1.137
                            25 O    0.122
     6   7 N    3.012 --     7 C    1.605     5 C    1.137
     7   6 C    3.943 --     6 N    1.605    21 N    1.165     8 C    0.965
     8   6 C    3.964 --     9 C    0.999    10 C    0.985     7 C    0.965
                            11 N    0.960
     9   6 C    3.997 --     8 C    0.999    31 H    0.988    30 H    0.985
                            29 H    0.984
    10   6 C    3.994 --    32 H    0.989    33 H    0.986     8 C    0.985
                            34 H    0.979
    11   7 N    2.997 --     8 C    0.960    35 H    0.945    12 C    0.885
    12   6 C    3.938 --    14 O    1.126    13 C    0.953    15 C    0.916
                            11 N    0.885
    13   6 C    3.995 --    37 H    0.990    38 H    0.988    36 H    0.986
                            12 C    0.953
    14   8 O    1.688 --    12 C    1.126    42 H    0.280
    15   6 C    3.828 --    16 N    1.665    20 O    1.035    12 C    0.916
    16   7 N    2.978 --    15 C    1.665    17 N    1.149
    17   7 N    2.977 --    18 C    1.658    16 N    1.149
    18   6 C    3.885 --    17 N    1.658    20 O    1.060    19 C    1.025
    19   6 C    3.992 --    18 C    1.025    40 H    0.985    41 H    0.970
                            39 H    0.969
    20   8 O    2.290 --    18 C    1.060    15 C    1.035
    21   7 N    3.399 --    22 C    1.232     7 C    1.165    42 H    0.619
                            23 O    0.138
    22   6 C    3.898 --    23 O    1.523    21 N    1.232    24 C    0.972
    23   8 O    1.801 --    22 C    1.523    21 N    0.138
    24   6 C    3.940 --    25 O    1.492     5 C    1.277    22 C    0.972
    25   8 O    1.790 --    24 C    1.492     5 C    0.122
    26   1 H    1.017 --     1 C    0.980
    27   1 H    1.018 --     1 C    0.987
    28   1 H    1.017 --     1 C    0.980
    29   1 H    1.015 --     9 C    0.984
    30   1 H    1.019 --     9 C    0.985
    31   1 H    1.008 --     9 C    0.988
    32   1 H    1.008 --    10 C    0.989
    33   1 H    1.012 --    10 C    0.986
    34   1 H    1.026 --    10 C    0.979
    35   1 H    0.978 --    11 N    0.945
    36   1 H    1.018 --    13 C    0.986
    37   1 H    1.012 --    13 C    0.990
    38   1 H    1.013 --    13 C    0.988
    39   1 H    1.002 --    19 C    0.969
    40   1 H    1.002 --    19 C    0.985
    41   1 H    1.001 --    19 C    0.970
    42   1 H    0.936 --    21 N    0.619    14 O    0.280
 ---------------------------------------------------------------------------

           -------------------------------------------------
          | TOTAL ENERGY              -83.657689393561 Eh   |
          | GRADIENT NORM               0.000163333175 Eh/α |
          | HOMO-LUMO GAP               2.531093692924 eV   |
           -------------------------------------------------

 * finished run on 2023/06/21 at 17:01:02.162
