   * xtb version 6.5.1 (579679a) compiled by 'ehlert@majestix' on 2022-07-11
          program call               : /lustre/hpc/kemi/ree/PhD/git/ReactivityQM/dep/xtb-6.5.1/bin/xtb --gfn 1 /lustre/hpc/kemi/ree/PhD/git/ReactivityQM/calculations/R02methylcation/reac01prodN07/conf19/R02methylcation_reac01prodN07_conf19_gfn1.xyz --opt --vfukui --chrg 0 --uhf 0 --alpb DMSO

   ID    Z sym.   atoms
    1    6 C      1, 3, 5, 7-10, 12, 14, 17-19, 22, 24
    2    8 O      2, 4, 13, 20, 23, 25
    3    7 N      6, 11, 15, 16, 21
    4    1 H      26-42

      * Solvation model:               ALPB
        Solvent                        DMSO
        Solvent mass                       7.8130E+01 g/mol
          :  Hamiltonian                  GFN1-xTB          :
 * total energy  :   -82.9496546 Eh     change       -0.1713119E-09 Eh
 * total energy  :   -82.9675948 Eh     change       -0.1794021E-01 Eh
 * total energy  :   -82.9749655 Eh     change       -0.7370725E-02 Eh
 * total energy  :   -82.9760668 Eh     change       -0.1101320E-02 Eh
 * total energy  :   -82.9766501 Eh     change       -0.5832192E-03 Eh
 * total energy  :   -82.9768711 Eh     change       -0.2210032E-03 Eh
 * total energy  :   -82.9771013 Eh     change       -0.2302857E-03 Eh
 * total energy  :   -82.9772606 Eh     change       -0.1592657E-03 Eh
 * total energy  :   -82.9773908 Eh     change       -0.1301453E-03 Eh
 * total energy  :   -82.9775090 Eh     change       -0.1182187E-03 Eh
 * total energy  :   -82.9779844 Eh     change       -0.2668054E-04 Eh
 * total energy  :   -82.9780042 Eh     change       -0.1974682E-04 Eh
 * total energy  :   -82.9780168 Eh     change       -0.1263706E-04 Eh
 * total energy  :   -82.9780241 Eh     change       -0.7258515E-05 Eh
 * total energy  :   -82.9780331 Eh     change       -0.9056301E-05 Eh
 * total energy  :   -82.9780399 Eh     change       -0.6785302E-05 Eh
 * total energy  :   -82.9780473 Eh     change       -0.7422863E-05 Eh
 * total energy  :   -82.9780525 Eh     change       -0.5147091E-05 Eh
 * total energy  :   -82.9780572 Eh     change       -0.4731017E-05 Eh
   *** GEOMETRY OPTIMIZATION CONVERGED AFTER 27 ITERATIONS ***

 final structure:
================
42
 xtb: 6.5.1 (579679a)
C            7.06927583718149       -0.76290929275060        0.79003781635414
O            5.84075975193613       -0.07332993711959        0.98176635608243
C            4.87413088471588       -0.32147850594063        0.06524177770577
O            5.07643442737947       -1.09415387197801       -0.86354921744504
C            3.62539617364560        0.39510971959078        0.28850462687136
N            2.66919019141785        0.10785034915568       -0.66803175859379
C            1.51469734028863        0.65501311103024       -0.62375462949753
C            0.48055613365895        0.36752379123971       -1.69019581614486
C            0.29825863039058        1.60410348217212       -2.58121487886759
C            0.90012995543202       -0.85433282913633       -2.51022604360743
N           -0.79412122356102        0.07795238631061       -0.99408602114754
C           -1.93836118484627       -0.18678421666657       -1.62902293154373
O           -2.12717407572769       -0.24562483498016       -2.82566920479983
C           -3.06135183685484       -0.41769064889985       -0.64749632510094
N           -3.00280096713951       -0.39695431712073        0.65101122788136
N           -4.26194853350247       -0.64293143286748        1.05842972027261
C           -4.58027889234962       -0.69866286416815        2.47023732544446
C           -5.04761097580383       -0.80624532863518        0.01386776969025
C           -6.49308913426836       -1.07952627961656       -0.01688194877483
O           -4.31386508370233       -0.66933102372969       -1.06939137410955
N            1.17036568901458        1.56152182797116        0.36361655956210
C            2.01166441577799        1.92216194959749        1.38886954363274
O            1.62168426418574        2.71300038809202        2.24220237357812
C            3.38820718654793        1.29227005598785        1.36356643819241
O            4.19325666098868        1.59655590661267        2.26045797982432
H            7.49948470281280       -0.52274894369247       -0.18719850312219
H            6.91805209328616       -1.84498371823591        0.85272454247117
H            7.74475908401929       -0.43817689690635        1.58069448946593
H           -0.05805714039269        2.44296498991236       -1.98632152389549
H           -0.41934722100279        1.40282409129743       -3.37368228394887
H            1.25608849884568        1.86658810487159       -3.02902918355871
H            1.88782308059504       -0.67449315973128       -2.93355201629621
H            0.19094796727425       -1.03528965929366       -3.31481611403192
H            0.94766168132017       -1.73279392364532       -1.86844482862998
H           -0.79422147741386        0.07020737773478        0.01304614507108
H           -5.39326484782622       -0.00494466448402        2.67473582416627
H           -3.68888392257715       -0.42115975564438        3.02667293908980
H           -4.88816590471757       -1.71230219190054        2.72248242855354
H           -6.74539040659196       -1.84825746344239        0.71274705212979
H           -7.04192976838696       -0.17268980900202        0.24648020125712
H           -6.78526674584392       -1.39536822258854       -1.01675732381454
H            0.25630669179391        1.97751226058887        0.36626778961246

          :  Hamiltonian                  GFN1-xTB          :
         :: total energy             -82.978057204420 Eh    ::
         :: gradient norm              0.000725549012 Eh/a0 ::
         :: HOMO-LUMO gap              0.453731454246 eV    ::
         :: SCC energy               -83.767409905446 Eh    ::
         :: -> Gsolv                  -0.130096447672 Eh    ::
         :: repulsion energy           0.814236086340 Eh    ::

    * Orbital Energies and Occupations

         #    Occupation            Energy/Eh            Energy/eV
      -------------------------------------------------------------
         1        2.0000           -0.9348221             -25.4378
       ...           ...                  ...                  ...
        55        2.0000           -0.5068292             -13.7915
        56        2.0000           -0.5024615             -13.6727
        57        2.0000           -0.4976877             -13.5428
        58        2.0000           -0.4901957             -13.3389
        59        2.0000           -0.4802737             -13.0689
        60        2.0000           -0.4675947             -12.7239
        61        2.0000           -0.4666434             -12.6980
        62        2.0000           -0.4618246             -12.5669
        63        2.0000           -0.4463184             -12.1449
        64        2.0000           -0.4400709             -11.9749
        65        2.0000           -0.4235903             -11.5265
        66        2.0000           -0.3842210             -10.4552
        67        1.9997           -0.3717417             -10.1156 (HOMO)
        68        0.0003           -0.3550674              -9.6619 (LUMO)
        69                         -0.3419972              -9.3062
        70                         -0.2750732              -7.4851
        71                         -0.2472161              -6.7271
        72                         -0.2367172              -6.4414
        73                         -0.2017755              -5.4906
        74                         -0.1833411              -4.9890
        75                         -0.1706001              -4.6423
        76                         -0.1274848              -3.4690
        77                         -0.1245677              -3.3897
        78                         -0.1230418              -3.3481
       ...                                ...                  ...
       134                          0.7534175              20.5015
      -------------------------------------------------------------
                  HL-Gap            0.0166743 Eh            0.4537 eV

Wiberg/Mayer (AO) data.
largest (>0.10) Wiberg bond orders for each atom

     #   Z sym  total        # sym  WBO       # sym  WBO       # sym  WBO
 ---------------------------------------------------------------------------
     1   6 C    3.897 --    28 H    0.987    27 H    0.981    26 H    0.980
                             2 O    0.923
     2   8 O    2.164 --     3 C    1.053     1 C    0.923     4 O    0.111
     3   6 C    3.851 --     4 O    1.579     5 C    1.108     2 O    1.053
     4   8 O    1.853 --     3 C    1.579     2 O    0.111
     5   6 C    3.914 --    24 C    1.269     6 N    1.156     3 C    1.108
                            25 O    0.130
     6   7 N    3.034 --     7 C    1.638     5 C    1.156
     7   6 C    3.933 --     6 N    1.638    21 N    1.084     8 C    0.979
     8   6 C    3.913 --    10 C    0.993     9 C    0.982     7 C    0.979
                            11 N    0.892
     9   6 C    3.988 --    29 H    0.984    31 H    0.984     8 C    0.982
                            30 H    0.981
    10   6 C    3.990 --     8 C    0.993    34 H    0.985    33 H    0.984
                            32 H    0.982
    11   7 N    3.386 --    12 C    1.303    35 H    0.893     8 C    0.892
                            13 O    0.202
    12   6 C    3.927 --    13 O    1.604    11 N    1.303    14 C    0.949
    13   8 O    1.935 --    12 C    1.604    11 N    0.202
    14   6 C    3.836 --    15 N    1.607    20 O    1.065    12 C    0.949
    15   7 N    2.990 --    14 C    1.607    16 N    1.149
    16   7 N    3.631 --    18 C    1.423    15 N    1.149    17 C    0.910
    17   6 C    3.885 --    37 H    0.978    36 H    0.971    38 H    0.967
                            16 N    0.910
    18   6 C    3.844 --    16 N    1.423    20 O    1.157    19 C    1.041
    19   6 C    3.962 --    18 C    1.041    41 H    0.970    39 H    0.957
                            40 H    0.937
    20   8 O    2.389 --    18 C    1.157    14 C    1.065
    21   7 N    3.416 --    22 C    1.152     7 C    1.084    42 H    0.898
                            23 O    0.135
    22   6 C    3.875 --    23 O    1.587    21 N    1.152    24 C    0.965
    23   8 O    1.867 --    22 C    1.587    21 N    0.135
    24   6 C    3.943 --    25 O    1.527     5 C    1.269    22 C    0.965
    25   8 O    1.832 --    24 C    1.527     5 C    0.130
    26   1 H    1.014 --     1 C    0.980
    27   1 H    1.013 --     1 C    0.981
    28   1 H    1.015 --     1 C    0.987
    29   1 H    1.002 --     9 C    0.984
    30   1 H    1.007 --     9 C    0.981
    31   1 H    1.002 --     9 C    0.984
    32   1 H    1.013 --    10 C    0.982
    33   1 H    1.007 --    10 C    0.984
    34   1 H    1.007 --    10 C    0.985
    35   1 H    0.942 --    11 N    0.893
    36   1 H    0.989 --    17 C    0.971
    37   1 H    0.992 --    17 C    0.978
    38   1 H    0.990 --    17 C    0.967
    39   1 H    0.987 --    19 C    0.957
    40   1 H    0.985 --    19 C    0.937
    41   1 H    0.986 --    19 C    0.970
    42   1 H    0.944 --    21 N    0.898
 ---------------------------------------------------------------------------

           -------------------------------------------------
          | TOTAL ENERGY              -82.978057204420 Eh   |
          | GRADIENT NORM               0.000725549012 Eh/α |
          | HOMO-LUMO GAP               0.453731454246 eV   |
           -------------------------------------------------

 * finished run on 2023/06/21 at 17:38:18.270
