   * xtb version 6.5.1 (579679a) compiled by 'ehlert@majestix' on 2022-07-11
          program call               : /lustre/hpc/kemi/ree/PhD/git/ReactivityQM/dep/xtb-6.5.1/bin/xtb --gfn 1 /lustre/hpc/kemi/ree/PhD/git/ReactivityQM/calculations/R02methylcation/reac01prodN06/conf17/R02methylcation_reac01prodN06_conf17_gfn1.xyz --opt --vfukui --chrg 0 --uhf 0 --alpb DMSO

   ID    Z sym.   atoms
    1    6 C      1, 3, 5, 7-10, 12, 14, 16, 17, 20, 22, 24
    2    8 O      2, 4, 13, 15, 23, 25
    3    7 N      6, 11, 18, 19, 21
    4    1 H      26-42

      * Solvation model:               ALPB
        Solvent                        DMSO
        Solvent mass                       7.8130E+01 g/mol
          :  Hamiltonian                  GFN1-xTB          :
 * total energy  :   -82.9519574 Eh     change       -0.7931078E-10 Eh
 * total energy  :   -82.9668691 Eh     change       -0.1491173E-01 Eh
 * total energy  :   -82.9742669 Eh     change       -0.7397811E-02 Eh
 * total energy  :   -82.9761647 Eh     change       -0.1897758E-02 Eh
 * total energy  :   -82.9777415 Eh     change       -0.1576844E-02 Eh
 * total energy  :   -82.9786225 Eh     change       -0.8810068E-03 Eh
 * total energy  :   -82.9793827 Eh     change       -0.7602094E-03 Eh
 * total energy  :   -82.9800601 Eh     change       -0.6774259E-03 Eh
 * total energy  :   -82.9805091 Eh     change       -0.4489352E-03 Eh
 * total energy  :   -82.9807232 Eh     change       -0.2141432E-03 Eh
 * total energy  :   -82.9850797 Eh     change       -0.1088626E-04 Eh
 * total energy  :   -82.9850876 Eh     change       -0.7973029E-05 Eh
 * total energy  :   -82.9850952 Eh     change       -0.7594118E-05 Eh
 * total energy  :   -82.9851036 Eh     change       -0.8413100E-05 Eh
 * total energy  :   -82.9851126 Eh     change       -0.8969552E-05 Eh
 * total energy  :   -82.9851197 Eh     change       -0.7117063E-05 Eh
 * total energy  :   -82.9851259 Eh     change       -0.6166826E-05 Eh
 * total energy  :   -82.9851314 Eh     change       -0.5545503E-05 Eh
 * total energy  :   -82.9851358 Eh     change       -0.4347509E-05 Eh
   *** GEOMETRY OPTIMIZATION CONVERGED AFTER 60 ITERATIONS ***

 final structure:
================
42
 xtb: 6.5.1 (579679a)
C           -5.78450915179169       -1.28120485179751        1.81926249249681
O           -4.59217196993887       -0.70635450739699        1.29940076736799
C           -4.59462490257458       -0.44988783124900       -0.04092832077553
O           -5.57405621944652       -0.70785835699907       -0.71963940593758
C           -3.34151670577963        0.13871525113733       -0.49703901102000
N           -2.38387305196629        0.31982316711549        0.47900308363397
C           -1.25184515145504        0.84037380395475        0.18539884288071
C           -0.20626562525398        1.07936553077545        1.25268038258851
C           -0.13675570173698        2.56886566545686        1.59931239307890
C           -0.50878439154786        0.23744650108133        2.49340669985923
N            1.11316217938848        0.70108122406214        0.70708597466137
C            1.35509506164418       -0.51001998213483        0.19830909600940
O            0.57257047047399       -1.43841170848707        0.10902298330235
C            2.75733525759290       -0.64279923031988       -0.31081814148176
O            3.61659679732464        0.37024206205027       -0.34283870575784
C            4.75308341847054       -0.12054818706787       -0.86931830407649
C            5.93169053198342        0.74366190333183       -1.04733950396620
N            4.62918263348113       -1.38075262530886       -1.15965776298113
N            3.36803650700036       -1.70056169867572       -0.80473909096975
C            2.91752773563441       -3.06609472164262       -0.97582766137848
N           -0.93586240601491        1.24765760889701       -1.09348782136189
C           -1.77868158242089        1.10252469195771       -2.16886834105660
O           -1.41438731596868        1.46694144346404       -3.28165671187809
C           -3.12871496595569        0.49017021897021       -1.85992914349178
O           -3.93902399713058        0.33712290416760       -2.78732852523193
H           -5.62930768597055       -1.42079125908949        2.88817520518337
H           -5.98723566811174       -2.24688543080557        1.34495485211833
H           -6.63903005537200       -0.61734691977216        1.65243402148680
H           -1.09572277247848        2.89549912879531        1.99956949298443
H            0.63490441126765        2.74520480578414        2.34597517369594
H            0.09215284067568        3.15244214893776        0.70930469142763
H           -1.47576648791145        0.53667952141339        2.89594295569592
H           -0.55031546622067       -0.81892532332635        2.23233701605737
H            0.26160196906476        0.39229832004764        3.24508772219964
H            1.86318741687060        1.36666533151902        0.76560559094794
H            6.73952756004406        0.17847714364517       -1.50563351771759
H            6.25136764394100        1.12815508383532       -0.07823394963540
H            5.67101533397985        1.59780561690417       -1.67312901125222
H            3.61551166015978       -3.71892498396127       -0.45417655577620
H            2.92298498690051       -3.30087808885583       -2.03984875146502
H            1.91500941644158       -3.16132753768545       -0.56479736394891
H           -0.03309355729822        1.65235616726335       -1.26799383651490

          :  Hamiltonian                  GFN1-xTB          :
         :: total energy             -82.985135777077 Eh    ::
         :: gradient norm              0.000286122995 Eh/a0 ::
         :: HOMO-LUMO gap              0.208981503179 eV    ::
         :: SCC energy               -83.773794583058 Eh    ::
         :: -> Gsolv                  -0.124017277352 Eh    ::
         :: repulsion energy           0.814360231496 Eh    ::

    * Orbital Energies and Occupations

         #    Occupation            Energy/Eh            Energy/eV
      -------------------------------------------------------------
         1        2.0000           -0.9274461             -25.2371
       ...           ...                  ...                  ...
        55        2.0000           -0.5101611             -13.8822
        56        2.0000           -0.5067270             -13.7887
        57        2.0000           -0.5008778             -13.6296
        58        2.0000           -0.4911929             -13.3660
        59        2.0000           -0.4869590             -13.2508
        60        2.0000           -0.4733553             -12.8807
        61        2.0000           -0.4703161             -12.7980
        62        2.0000           -0.4654339             -12.6651
        63        2.0000           -0.4493808             -12.2283
        64        2.0000           -0.4444295             -12.0935
        65        2.0000           -0.4266917             -11.6109
        66        2.0000           -0.3866368             -10.5209
        67        1.9655           -0.3746097             -10.1936 (HOMO)
        68        0.0345           -0.3669298              -9.9847 (LUMO)
        69                         -0.3152669              -8.5788
        70                         -0.2780822              -7.5670
        71                         -0.2495190              -6.7898
        72                         -0.2447274              -6.6594
        73                         -0.2041751              -5.5559
        74                         -0.1668687              -4.5407
        75                         -0.1625186              -4.4224
        76                         -0.1363978              -3.7116
        77                         -0.1249432              -3.3999
        78                         -0.1242980              -3.3823
       ...                                ...                  ...
       134                          0.7624556              20.7475
      -------------------------------------------------------------
                  HL-Gap            0.0076799 Eh            0.2090 eV

Wiberg/Mayer (AO) data.
largest (>0.10) Wiberg bond orders for each atom

     #   Z sym  total        # sym  WBO       # sym  WBO       # sym  WBO
 ---------------------------------------------------------------------------
     1   6 C    3.896 --    26 H    0.987    27 H    0.980    28 H    0.980
                             2 O    0.923
     2   8 O    2.142 --     3 C    1.035     1 C    0.923     4 O    0.112
     3   6 C    3.847 --     4 O    1.603     5 C    1.103     2 O    1.035
     4   8 O    1.871 --     3 C    1.603     2 O    0.112
     5   6 C    3.885 --    24 C    1.253     6 N    1.169     3 C    1.103
                            25 O    0.120
     6   7 N    3.029 --     7 C    1.621     5 C    1.169
     7   6 C    3.920 --     6 N    1.621    21 N    1.097     8 C    0.972
     8   6 C    3.913 --    10 C    0.990     9 C    0.989     7 C    0.972
                            11 N    0.897
     9   6 C    3.988 --     8 C    0.989    31 H    0.983    30 H    0.983
                            29 H    0.982
    10   6 C    3.987 --     8 C    0.990    34 H    0.986    32 H    0.982
                            33 H    0.981
    11   7 N    3.390 --    12 C    1.303     8 C    0.897    35 H    0.888
                            13 O    0.198
    12   6 C    3.923 --    13 O    1.572    11 N    1.303    14 C    0.967
    13   8 O    1.920 --    12 C    1.572    11 N    0.198
    14   6 C    3.802 --    19 N    1.427    15 O    1.112    12 C    0.967
    15   8 O    2.350 --    14 C    1.112    16 C    1.065
    16   6 C    3.839 --    18 N    1.586    15 O    1.065    17 C    1.042
    17   6 C    3.972 --    16 C    1.042    36 H    0.978    38 H    0.951
                            37 H    0.950
    18   7 N    2.959 --    16 C    1.586    19 N    1.146
    19   7 N    3.616 --    14 C    1.427    18 N    1.146    20 C    0.912
    20   6 C    3.884 --    41 H    0.973    39 H    0.967    40 H    0.965
                            19 N    0.912
    21   7 N    3.421 --    22 C    1.152     7 C    1.097    42 H    0.897
                            23 O    0.133
    22   6 C    3.872 --    23 O    1.590    21 N    1.152    24 C    0.963
    23   8 O    1.862 --    22 C    1.590    21 N    0.133
    24   6 C    3.934 --    25 O    1.539     5 C    1.253    22 C    0.963
    25   8 O    1.822 --    24 C    1.539     5 C    0.120
    26   1 H    1.015 --     1 C    0.987
    27   1 H    1.013 --     1 C    0.980
    28   1 H    1.013 --     1 C    0.980
    29   1 H    1.000 --     9 C    0.982
    30   1 H    0.997 --     9 C    0.983
    31   1 H    0.999 --     9 C    0.983
    32   1 H    1.011 --    10 C    0.982
    33   1 H    1.011 --    10 C    0.981
    34   1 H    1.001 --    10 C    0.986
    35   1 H    0.926 --    11 N    0.888
    36   1 H    0.991 --    17 C    0.978
    37   1 H    0.989 --    17 C    0.950
    38   1 H    0.989 --    17 C    0.951
    39   1 H    0.992 --    20 C    0.967
    40   1 H    0.991 --    20 C    0.965
    41   1 H    1.005 --    20 C    0.973
    42   1 H    0.946 --    21 N    0.897
 ---------------------------------------------------------------------------

           -------------------------------------------------
          | TOTAL ENERGY              -82.985135777077 Eh   |
          | GRADIENT NORM               0.000286122995 Eh/α |
          | HOMO-LUMO GAP               0.208981503179 eV   |
           -------------------------------------------------

 * finished run on 2023/06/21 at 17:36:30.654
