   * xtb version 6.5.1 (579679a) compiled by 'ehlert@majestix' on 2022-07-11
          program call               : /lustre/hpc/kemi/ree/PhD/git/ReactivityQM/dep/xtb-6.5.1/bin/xtb --gfn 1 /lustre/hpc/kemi/ree/PhD/git/ReactivityQM/calculations/RaltegravirCLI/reac02prodE07/conf02/RaltegravirCLI_reac02prodE07_conf02_gfn1.xyz --opt --vfukui --chrg -1 --uhf 0 --alpb DMSO

   ID    Z sym.   atoms
    1    6 C      1-4, 6-9, 11, 13, 15-18, 21, 22, 24
    2    9 F      5
    3    7 N      10, 14, 19, 20
    4    8 O      12, 23, 25
    5    1 H      26-47

      * Solvation model:               ALPB
        Solvent                        DMSO
        Solvent mass                       7.8130E+01 g/mol
          :  Hamiltonian                  GFN1-xTB          :
 * total energy  :   -80.1777097 Eh     change       -0.7433130E-09 Eh
 * total energy  :   -80.1866543 Eh     change       -0.8944650E-02 Eh
 * total energy  :   -80.1889863 Eh     change       -0.2331972E-02 Eh
 * total energy  :   -80.1894299 Eh     change       -0.4435889E-03 Eh
 * total energy  :   -80.1898772 Eh     change       -0.4472986E-03 Eh
 * total energy  :   -80.1900902 Eh     change       -0.2129810E-03 Eh
 * total energy  :   -80.1902220 Eh     change       -0.1317997E-03 Eh
 * total energy  :   -80.1902909 Eh     change       -0.6890608E-04 Eh
 * total energy  :   -80.1903326 Eh     change       -0.4174701E-04 Eh
 * total energy  :   -80.1903695 Eh     change       -0.3690209E-04 Eh
 * total energy  :   -80.1908155 Eh     change       -0.2795472E-04 Eh
 * total energy  :   -80.1908318 Eh     change       -0.1625235E-04 Eh
 * total energy  :   -80.1908526 Eh     change       -0.2086768E-04 Eh
 * total energy  :   -80.1908660 Eh     change       -0.1331453E-04 Eh
 * total energy  :   -80.1908755 Eh     change       -0.9592971E-05 Eh
 * total energy  :   -80.1908862 Eh     change       -0.1067753E-04 Eh
 * total energy  :   -80.1908955 Eh     change       -0.9301616E-05 Eh
 * total energy  :   -80.1909085 Eh     change       -0.1300098E-04 Eh
 * total energy  :   -80.1909128 Eh     change       -0.4265570E-05 Eh
   *** GEOMETRY OPTIMIZATION CONVERGED AFTER 44 ITERATIONS ***

 final structure:
================
47
 xtb: 6.5.1 (579679a)
C            4.17217583691908        2.07342013170422       -0.07730889777070
C            4.89635461264001        0.86414268333759        0.58287886025661
C            6.19048422204988        0.57164540607667       -0.14658203857668
C            6.31111029302974       -0.53678520275052       -0.91195621113066
F            7.47870907162859       -0.70298239853688       -1.60840693255347
C            5.36525712997655       -1.56766022944633       -1.01654164862636
C            4.22555308562048       -1.44492398478004       -0.20105719905287
C            3.99834731553189       -0.36303764335563        0.60489095553696
C            2.79223545386059       -0.30903008293117        1.50161750433977
N            1.57025587713857       -0.02341335998451        0.72363652704511
C            0.37879094927339       -0.54120631278380        1.06815083872489
O            0.20995790091402       -1.19130788407014        2.10293341808173
C           -0.75287188966851       -0.24057465600073        0.13908794096940
N           -1.99241068409071       -0.32194571988778        0.71679023082864
C           -3.07855523593778       -0.06808155471106        0.06150816292232
C           -4.38379484956687       -0.21860532980385        0.83719864607849
C           -4.06584663397020       -0.40578711255565        2.33015808194462
C           -5.15598583122517       -1.44483731859340        0.33092643918362
N           -5.21465949082978        0.97398972888514        0.66256457588956
N           -3.05394554988178        0.28122229441502       -1.26965844516358
C           -4.23609647924371        0.55671171377489       -2.08369132612230
C           -1.84848646625912        0.35653870866237       -1.96221620628654
O           -1.81050706132860        0.63805032926326       -3.16735163682948
C           -0.66626959436321        0.09161785605634       -1.19246357470269
O            0.50477962631114        0.16541378169462       -1.88293742892167
H            4.83449381747918        2.93941580269372       -0.10133875431321
H            3.88530663510651        1.82343565111424       -1.09863777042374
H            3.27702093973894        2.33625938562583        0.48690477912711
H            5.12173968881771        1.17624849297834        1.62102886865010
H            6.98195166210924        1.30926427818148       -0.09370865825797
H            5.54579468247484       -2.43711531834550       -1.63226003302346
H            3.51377307795883       -2.26951125997201       -0.18580919673212
H            2.62531160309606       -1.26235696798872        2.02116931260377
H            2.90835492851072        0.47046345668537        2.26763307566167
H            1.68581058275827        0.46861320463372       -0.14819581125379
H           -3.49309336246355       -1.31958325301071        2.48698599068616
H           -4.99652863674000       -0.46736663855241        2.89127696759471
H           -3.48599106685381        0.43909256887947        2.69979468731767
H           -5.48376224385242       -1.30627162752777       -0.69707259921475
H           -4.52610423583099       -2.33270309321322        0.38376900213278
H           -6.03617898010225       -1.60273711327437        0.95258688490600
H           -4.79458564556234        1.75864849402417        1.14289792945898
H           -6.11869453311625        0.80891082257087        1.08036812569042
H           -4.52942149569227       -0.34450116674207       -2.62460201289258
H           -3.97886327192018        1.33234570904240       -2.80622324236752
H           -5.05337885161381        0.90052806120761       -1.45640964604191
H            0.28246409716944        0.38634666731216       -2.80604653537688

          :  Hamiltonian                  GFN1-xTB          :
         :: total energy             -80.190912793844 Eh    ::
         :: gradient norm              0.000297573188 Eh/a0 ::
         :: HOMO-LUMO gap              0.169951338835 eV    ::
         :: SCC energy               -81.050020517208 Eh    ::
         :: -> Gsolv                  -0.103400158876 Eh    ::
         :: repulsion energy           0.889080268660 Eh    ::

    * Orbital Energies and Occupations

         #    Occupation            Energy/Eh            Energy/eV
      -------------------------------------------------------------
         1        2.0000           -0.8063391             -21.9416
       ...           ...                  ...                  ...
        56        2.0000           -0.4539945             -12.3538
        57        2.0000           -0.4471718             -12.1682
        58        2.0000           -0.4448196             -12.1042
        59        2.0000           -0.4343219             -11.8185
        60        2.0000           -0.4280912             -11.6490
        61        2.0000           -0.4230184             -11.5109
        62        2.0000           -0.4163530             -11.3295
        63        2.0000           -0.4129344             -11.2365
        64        2.0000           -0.4095289             -11.1438
        65        2.0000           -0.4061992             -11.0532
        66        2.0000           -0.3998436             -10.8803
        67        2.0000           -0.3804596             -10.3528
        68        1.9280           -0.2970750              -8.0838 (HOMO)
        69        0.0720           -0.2908294              -7.9139 (LUMO)
        70                         -0.2550308              -6.9397
        71                         -0.2048973              -5.5755
        72                         -0.1991769              -5.4199
        73                         -0.1322043              -3.5975
        74                         -0.1272972              -3.4639
        75                         -0.1235457              -3.3619
        76                         -0.1168472              -3.1796
        77                         -0.1101220              -2.9966
        78                         -0.0963168              -2.6209
        79                         -0.0946350              -2.5751
       ...                                ...                  ...
       144                          0.7107974              19.3418
      -------------------------------------------------------------
                  HL-Gap            0.0062456 Eh            0.1700 eV

Wiberg/Mayer (AO) data.
largest (>0.10) Wiberg bond orders for each atom

     #   Z sym  total        # sym  WBO       # sym  WBO       # sym  WBO
 ---------------------------------------------------------------------------
     1   6 C    3.978 --    27 H    0.988    26 H    0.986    28 H    0.986
                             2 C    0.968
     2   6 C    3.992 --     3 C    1.007     8 C    1.000     1 C    0.968
                            29 H    0.964
     3   6 C    3.850 --     4 C    1.606     2 C    1.007    30 H    0.974
     4   6 C    3.834 --     3 C    1.606     6 C    1.276     5 F    0.868
     5   9 F    0.980 --     4 C    0.868
     6   6 C    3.802 --     7 C    1.322     4 C    1.276    31 H    0.977
     7   6 C    3.995 --     8 C    1.588     6 C    1.322    32 H    0.972
     8   6 C    3.876 --     7 C    1.588     9 C    1.010     2 C    1.000
     9   6 C    3.938 --     8 C    1.010    34 H    0.974    33 H    0.971
                            10 N    0.912
    10   7 N    3.349 --    11 C    1.276     9 C    0.912    35 H    0.902
                            12 O    0.170
    11   6 C    3.896 --    12 O    1.532    10 N    1.276    13 C    1.004
    12   8 O    1.817 --    11 C    1.532    10 N    0.170
    13   6 C    3.902 --    24 C    1.448    14 N    1.191    11 C    1.004
    14   7 N    3.028 --    15 C    1.573    13 C    1.191
    15   6 C    3.903 --    14 N    1.573    20 N    1.156    16 C    0.975
    16   6 C    3.966 --    17 C    0.992    18 C    0.987    19 N    0.978
                            15 C    0.975
    17   6 C    3.995 --    16 C    0.992    37 H    0.986    38 H    0.984
                            36 H    0.983
    18   6 C    3.993 --    16 C    0.987    40 H    0.986    41 H    0.984
                            39 H    0.982
    19   7 N    2.992 --    16 C    0.978    42 H    0.942    43 H    0.942
    20   7 N    3.447 --    15 C    1.156    22 C    1.101    21 C    0.935
                            23 O    0.119
    21   6 C    3.930 --    44 H    0.978    45 H    0.977    46 H    0.970
                            20 N    0.935
    22   6 C    3.883 --    23 O    1.499    24 C    1.141    20 N    1.101
    23   8 O    1.833 --    22 C    1.499    20 N    0.119
    24   6 C    3.863 --    13 C    1.448    22 C    1.141    25 O    1.045
    25   8 O    2.034 --    24 C    1.045    47 H    0.816
    26   1 H    1.011 --     1 C    0.986
    27   1 H    1.018 --     1 C    0.988
    28   1 H    1.009 --     1 C    0.986
    29   1 H    1.011 --     2 C    0.964
    30   1 H    1.003 --     3 C    0.974
    31   1 H    1.004 --     6 C    0.977
    32   1 H    1.005 --     7 C    0.972
    33   1 H    1.019 --     9 C    0.971
    34   1 H    1.012 --     9 C    0.974
    35   1 H    0.970 --    10 N    0.902
    36   1 H    1.014 --    17 C    0.983
    37   1 H    1.005 --    17 C    0.986
    38   1 H    1.012 --    17 C    0.984
    39   1 H    1.005 --    18 C    0.982
    40   1 H    1.004 --    18 C    0.986
    41   1 H    1.001 --    18 C    0.984
    42   1 H    0.958 --    19 N    0.942
    43   1 H    0.956 --    19 N    0.942
    44   1 H    1.004 --    21 C    0.978
    45   1 H    1.011 --    21 C    0.977
    46   1 H    1.030 --    21 C    0.970
    47   1 H    0.861 --    25 O    0.816
 ---------------------------------------------------------------------------

           -------------------------------------------------
          | TOTAL ENERGY              -80.190912793844 Eh   |
          | GRADIENT NORM               0.000297573188 Eh/α |
          | HOMO-LUMO GAP               0.169951338835 eV   |
           -------------------------------------------------

 * finished run on 2023/06/20 at 15:06:07.612
