   * xtb version 6.5.1 (579679a) compiled by 'ehlert@majestix' on 2022-07-11
          program call               : /lustre/hpc/kemi/ree/PhD/git/ReactivityQM/dep/xtb-6.5.1/bin/xtb --gfn 1 /lustre/hpc/kemi/ree/PhD/git/ReactivityQM/calculations/RaltegravirCLI/reac02prodN06/conf13/RaltegravirCLI_reac02prodN06_conf13_gfn1.xyz --opt --vfukui --chrg 1 --uhf 0 --alpb DMSO

   ID    Z sym.   atoms
    1    6 C      1, 3, 5, 7-9, 12-16, 18, 19, 21-24
    2    7 N      2, 11, 20, 25
    3    8 O      4, 6, 10
    4    9 F      17
    5    1 H      26-47

      * Solvation model:               ALPB
        Solvent                        DMSO
        Solvent mass                       7.8130E+01 g/mol
          :  Hamiltonian                  GFN1-xTB          :
 * total energy  :   -79.4659665 Eh     change       -0.2410161E-10 Eh
 * total energy  :   -79.4806670 Eh     change       -0.1470054E-01 Eh
 * total energy  :   -79.4863591 Eh     change       -0.5692043E-02 Eh
 * total energy  :   -79.4877728 Eh     change       -0.1413758E-02 Eh
 * total energy  :   -79.4890203 Eh     change       -0.1247494E-02 Eh
 * total energy  :   -79.4894923 Eh     change       -0.4720124E-03 Eh
 * total energy  :   -79.4899247 Eh     change       -0.4323710E-03 Eh
 * total energy  :   -79.4903613 Eh     change       -0.4366041E-03 Eh
 * total energy  :   -79.4907711 Eh     change       -0.4098490E-03 Eh
 * total energy  :   -79.4910230 Eh     change       -0.2518642E-03 Eh
 * total energy  :   -79.4937695 Eh     change       -0.1043420E-04 Eh
 * total energy  :   -79.4937804 Eh     change       -0.1094493E-04 Eh
 * total energy  :   -79.4937916 Eh     change       -0.1121972E-04 Eh
 * total energy  :   -79.4938034 Eh     change       -0.1176173E-04 Eh
 * total energy  :   -79.4938157 Eh     change       -0.1230445E-04 Eh
 * total energy  :   -79.4938272 Eh     change       -0.1149301E-04 Eh
 * total energy  :   -79.4938363 Eh     change       -0.9132455E-05 Eh
 * total energy  :   -79.4938413 Eh     change       -0.5015684E-05 Eh
 * total energy  :   -79.4938447 Eh     change       -0.3367125E-05 Eh
   *** GEOMETRY OPTIMIZATION CONVERGED AFTER 67 ITERATIONS ***

 final structure:
================
47
 xtb: 6.5.1 (579679a)
C           -3.89163838765538        0.89860968986997       -1.60838433294549
N           -2.77989265443414        0.02511009372423       -1.21839851348339
C           -2.12804369177303       -0.57195879370071       -2.26021785496858
O           -2.45287179813245       -0.48769141138094       -3.43266467761037
C           -0.93920206355973       -1.36473244745369       -1.88885958066181
O           -0.28442335824219       -1.93764287967000       -2.84694035557453
C           -0.43564436748816       -1.31102903333740       -0.55271743996486
C            0.47425272840543       -2.41200862701708       -0.03424463910517
C            0.48150443807478        0.08623349855294       -0.88817720396082
O            0.03530914840028        1.13936371853525       -0.54551421057992
N            1.61354333861415       -0.21218268063735       -1.47868510748960
C            2.64319794493838        0.81718935911377       -1.68118813041108
C            3.79977145666543        0.62352283643233       -0.72820463962719
C            3.57107301905105        0.32819253644414        0.61388914825211
C            4.63383371159095        0.17277860020469        1.49162065079611
C            5.91885737727382        0.32494002243463        1.00087685667799
F            6.94966016292971        0.17632632530187        1.84197181062932
C            6.17960890342780        0.62073009303035       -0.32529687370345
C            5.10554380085310        0.76733716752006       -1.19165877573563
N           -1.35575594925088       -0.87994622998923        0.41242965911479
C           -2.40946116766914       -0.21117455154509        0.10298010491499
C           -3.21166412106110        0.33538078758401        1.27549443599823
C           -2.94040047623280        1.84370767382032        1.38217460388709
C           -2.75194122657621       -0.35767788689521        2.56870224281861
N           -4.63641750489673        0.10327903620937        1.07392658080705
H           -4.66918351694534        0.85674171127318       -0.84874688430664
H           -3.51977193440594        1.91741561467851       -1.71493971770468
H           -4.27652406233691        0.54961365918575       -2.56551245342314
H           -0.70291081061463       -1.77624841726994       -3.72265016464900
H           -0.15562796088951       -3.19917444933196        0.37887805736813
H            1.07942367171235       -2.82843536652370       -0.83530991457120
H            1.11687496682613       -2.02776479018311        0.75481744529967
H            1.82518327733812       -1.14315132157964       -1.79727557334424
H            2.97570961674016        0.74345848879676       -2.71859224325145
H            2.16723117319996        1.78992072160465       -1.52540697091137
H            2.55691910708997        0.20827823688764        0.97476843609848
H            4.46889380006886       -0.06241553903018        2.53496492718526
H            7.19882767481512        0.72858937802939       -0.67300483662440
H            5.28614289408851        0.99448515540662       -2.23542333225032
H           -1.86609178990542        2.02532495611013        1.38674837013743
H           -3.38630721814221        2.38054828222814        0.54787707786106
H           -3.36955581447320        2.22221168089515        2.30859363965666
H           -3.37147464008363       -0.01424335738609        3.39540886872093
H           -1.71055684750925       -0.12064754814329        2.78050517254988
H           -2.85443401032037       -1.43718255970209        2.47376285252581
H           -4.82912907852625       -0.88729651955929        1.12692051230486
H           -5.15243776099081        0.56331708646723        1.81153897323443

          :  Hamiltonian                  GFN1-xTB          :
         :: total energy             -79.493844716655 Eh    ::
         :: gradient norm              0.000305712653 Eh/a0 ::
         :: HOMO-LUMO gap              0.671938934808 eV    ::
         :: SCC energy               -80.395164975167 Eh    ::
         :: -> Gsolv                  -0.102640556910 Eh    ::
         :: repulsion energy           0.933337240450 Eh    ::

    * Orbital Energies and Occupations

         #    Occupation            Energy/Eh            Energy/eV
      -------------------------------------------------------------
         1        2.0000           -0.8952251             -24.3603
       ...           ...                  ...                  ...
        55        2.0000           -0.5197797             -14.1439
        56        2.0000           -0.5150931             -14.0164
        57        2.0000           -0.5129994             -13.9594
        58        2.0000           -0.5097588             -13.8712
        59        2.0000           -0.4998413             -13.6014
        60        2.0000           -0.4935561             -13.4303
        61        2.0000           -0.4909031             -13.3582
        62        2.0000           -0.4865068             -13.2385
        63        2.0000           -0.4785739             -13.0227
        64        2.0000           -0.4737394             -12.8911
        65        2.0000           -0.4649727             -12.6526
        66        2.0000           -0.4508676             -12.2687
        67        2.0000           -0.4271121             -11.6223 (HOMO)
        68        0.0000           -0.4024187             -10.9504 (LUMO)
        69                         -0.3205203              -8.7218
        70                         -0.2912319              -7.9248
        71                         -0.2868365              -7.8052
        72                         -0.2806154              -7.6359
        73                         -0.2530170              -6.8849
        74                         -0.1607925              -4.3754
        75                         -0.1596450              -4.3442
        76                         -0.1500644              -4.0835
        77                         -0.1460964              -3.9755
        78                         -0.1413831              -3.8472
       ...                                ...                  ...
       144                          0.7416814              20.1822
      -------------------------------------------------------------
                  HL-Gap            0.0246933 Eh            0.6719 eV

Wiberg/Mayer (AO) data.
largest (>0.10) Wiberg bond orders for each atom

     #   Z sym  total        # sym  WBO       # sym  WBO       # sym  WBO
 ---------------------------------------------------------------------------
     1   6 C    3.896 --    28 H    0.974    27 H    0.968    26 H    0.957
                             2 N    0.915
     2   7 N    3.535 --     3 C    1.193    21 C    1.105     1 C    0.915
                             4 O    0.164
     3   6 C    3.928 --     4 O    1.588     2 N    1.193     5 C    1.010
     4   8 O    1.945 --     3 C    1.588     2 N    0.164
     5   6 C    3.845 --     6 O    1.267     7 C    1.145     3 C    1.010
                             9 C    0.117
     6   8 O    2.218 --     5 C    1.267    29 H    0.756
     7   6 C    3.958 --     5 C    1.145    20 N    1.065     8 C    0.981
                             9 C    0.593
     8   6 C    3.977 --     7 C    0.981    32 H    0.980    31 H    0.980
                            30 H    0.968
     9   6 C    3.905 --    10 O    1.695    11 N    1.375     7 C    0.593
                             5 C    0.117
    10   8 O    2.080 --     9 C    1.695    11 N    0.182
    11   7 N    3.407 --     9 C    1.375    12 C    0.895    33 H    0.882
                            10 O    0.182
    12   6 C    3.906 --    13 C    0.996    34 H    0.967    35 H    0.962
                            11 N    0.895
    13   6 C    3.986 --    19 C    1.417    14 C    1.415    12 C    0.996
    14   6 C    3.994 --    15 C    1.447    13 C    1.415    36 H    0.970
                            18 C    0.110
    15   6 C    3.991 --    14 C    1.447    16 C    1.397    37 H    0.968
                            19 C    0.110
    16   6 C    3.864 --    18 C    1.399    15 C    1.397    17 F    0.935
    17   9 F    1.066 --    16 C    0.935
    18   6 C    3.991 --    19 C    1.444    16 C    1.399    38 H    0.968
                            14 C    0.110
    19   6 C    3.992 --    18 C    1.444    13 C    1.417    39 H    0.969
                            15 C    0.110
    20   7 N    3.031 --    21 C    1.652     7 C    1.065
    21   6 C    3.902 --    20 N    1.652     2 N    1.105    22 C    0.976
    22   6 C    3.961 --    24 C    0.988    25 N    0.985    21 C    0.976
                            23 C    0.976
    23   6 C    3.991 --    40 H    0.984    41 H    0.982    42 H    0.981
                            22 C    0.976
    24   6 C    3.992 --    22 C    0.988    43 H    0.984    45 H    0.984
                            44 H    0.983
    25   7 N    3.002 --    22 C    0.985    46 H    0.937    47 H    0.933
    26   1 H    1.024 --     1 C    0.957
    27   1 H    0.999 --     1 C    0.968
    28   1 H    1.002 --     1 C    0.974
    29   1 H    0.802 --     6 O    0.756
    30   1 H    0.996 --     8 C    0.968
    31   1 H    0.996 --     8 C    0.980
    32   1 H    0.999 --     8 C    0.980
    33   1 H    0.929 --    11 N    0.882
    34   1 H    0.997 --    12 C    0.967
    35   1 H    1.000 --    12 C    0.962
    36   1 H    1.000 --    14 C    0.970
    37   1 H    0.996 --    15 C    0.968
    38   1 H    0.996 --    18 C    0.968
    39   1 H    0.997 --    19 C    0.969
    40   1 H    1.006 --    23 C    0.984
    41   1 H    1.002 --    23 C    0.982
    42   1 H    0.998 --    23 C    0.981
    43   1 H    1.002 --    24 C    0.984
    44   1 H    1.009 --    24 C    0.983
    45   1 H    1.006 --    24 C    0.984
    46   1 H    0.951 --    25 N    0.937
    47   1 H    0.948 --    25 N    0.933
 ---------------------------------------------------------------------------

           -------------------------------------------------
          | TOTAL ENERGY              -79.493844716655 Eh   |
          | GRADIENT NORM               0.000305712653 Eh/α |
          | HOMO-LUMO GAP               0.671938934808 eV   |
           -------------------------------------------------

 * finished run on 2023/06/20 at 15:23:31.112
