   * xtb version 6.5.1 (579679a) compiled by 'ehlert@majestix' on 2022-07-11
          program call               : /lustre/hpc/kemi/ree/PhD/git/ReactivityQM/dep/xtb-6.5.1/bin/xtb --gfn 1 /lustre/hpc/kemi/ree/PhD/git/ReactivityQM/calculations/R02methylcation/reac01prodN19/conf18/R02methylcation_reac01prodN19_conf18_gfn1.xyz --opt --vfukui --chrg 0 --uhf 0 --alpb DMSO

   ID    Z sym.   atoms
    1    6 C      1, 3, 5, 7-10, 12, 14, 17, 18, 21, 23, 24
    2    8 O      2, 4, 13, 19, 22, 25
    3    7 N      6, 11, 15, 16, 20
    4    1 H      26-42

      * Solvation model:               ALPB
        Solvent                        DMSO
        Solvent mass                       7.8130E+01 g/mol
          :  Hamiltonian                  GFN1-xTB          :
 * total energy  :   -82.9795335 Eh     change       -0.5783818E-10 Eh
 * total energy  :   -82.9923801 Eh     change       -0.1284663E-01 Eh
 * total energy  :   -82.9978785 Eh     change       -0.5498398E-02 Eh
 * total energy  :   -82.9988934 Eh     change       -0.1014893E-02 Eh
 * total energy  :   -82.9997334 Eh     change       -0.8400015E-03 Eh
 * total energy  :   -83.0002153 Eh     change       -0.4818520E-03 Eh
 * total energy  :   -83.0006685 Eh     change       -0.4532062E-03 Eh
 * total energy  :   -83.0010262 Eh     change       -0.3576907E-03 Eh
 * total energy  :   -83.0012356 Eh     change       -0.2094843E-03 Eh
 * total energy  :   -83.0013583 Eh     change       -0.1226311E-03 Eh
 * total energy  :   -83.0032524 Eh     change       -0.3156956E-04 Eh
 * total energy  :   -83.0032897 Eh     change       -0.3731351E-04 Eh
 * total energy  :   -83.0033369 Eh     change       -0.4718830E-04 Eh
 * total energy  :   -83.0033619 Eh     change       -0.2501234E-04 Eh
 * total energy  :   -83.0033814 Eh     change       -0.1942380E-04 Eh
 * total energy  :   -83.0033936 Eh     change       -0.1223836E-04 Eh
 * total energy  :   -83.0034026 Eh     change       -0.9000114E-05 Eh
 * total energy  :   -83.0034078 Eh     change       -0.5198545E-05 Eh
 * total energy  :   -83.0034117 Eh     change       -0.3939404E-05 Eh
   *** GEOMETRY OPTIMIZATION CONVERGED AFTER 38 ITERATIONS ***

 final structure:
================
42
 xtb: 6.5.1 (579679a)
C           -5.65758355376088       -2.90430035659625       -1.52335573073903
O           -4.84568076547199       -1.97093208546377       -0.81286085060649
C           -3.63965210681777       -1.71748381553764       -1.33514091687596
O           -3.25170531458231       -2.24702828196642       -2.35916215427778
C           -2.83559361817510       -0.74751105694639       -0.55989882496800
N           -1.61776114783422       -0.51280014140134       -1.10761870802468
C           -0.77757832516832        0.29975638280667       -0.55780970785089
C            0.56015721092352        0.60891701078916       -1.19918126928073
C            0.61930473045585        2.08439269992494       -1.61904499050832
C            0.75330979469348       -0.29985812078889       -2.41338197539426
N            1.66491460758894        0.31579642691529       -0.26507630654597
C            1.97258777717231        1.00438960426272        0.84571538360397
O            1.29146090703111        1.89544205202076        1.35087791500640
C            3.24169584321059        0.56704382745292        1.46517897674862
N            3.79081060581911        1.01265854383096        2.55274339189123
N            4.94710101011885        0.31616342094297        2.72346598070125
C            5.03590188725020       -0.51324534054129        1.72948602831791
C            6.10863599972503       -1.49342072637696        1.45648391929992
O            3.98733549650673       -0.40573926336361        0.89708227816066
N           -1.10513709810198        0.95482132903352        0.60448970664680
C           -2.26201664080061        0.77808389990597        1.22065693409169
O           -2.52130351726556        1.39352250315964        2.35693665471812
C           -1.56134339243060        2.25531862387344        2.97019924158290
C           -3.28444734143290       -0.12311039393702        0.64766411850931
O           -4.37481329743436       -0.27405077297072        1.20865539022841
H           -6.61012571039040       -2.95674686522045       -0.99944429856195
H           -5.18149599918419       -3.88787746924524       -1.53614103061044
H           -5.81135622336486       -2.56878185918330       -2.55190244461933
H            1.58921908345680        2.29787336905787       -2.06453228877290
H            0.47218835136603        2.73957532705778       -0.76310174497984
H           -0.16141772468901        2.28196582850166       -2.35203436377461
H            0.71947785858512       -1.34519869266935       -2.10964999863501
H           -0.04445769777822       -0.12066706511074       -3.13292494475336
H            1.71156847110392       -0.09282844637465       -2.88470979883759
H            2.33560255569940       -0.36809030595145       -0.58044516291032
H            6.51651976146914       -1.32759899953450        0.46012043031048
H            6.89653972015169       -1.39188333931762        2.19879206161227
H            5.70378100224929       -2.50504071752675        1.48952373488540
H           -0.37598860204255        1.55145533205510        1.00924694392771
H           -0.63874763547559        1.71094514741625        3.18522615636233
H           -2.01741587583341        2.59995221129485        3.89677767185764
H           -1.34249408654608        3.10611857575529        2.32123059309207

          :  Hamiltonian                  GFN1-xTB          :
         :: total energy             -83.003411726514 Eh    ::
         :: gradient norm              0.000710147367 Eh/a0 ::
         :: HOMO-LUMO gap              2.314858559387 eV    ::
         :: SCC energy               -83.778846605437 Eh    ::
         :: -> Gsolv                  -0.065431306819 Eh    ::
         :: repulsion energy           0.801080723200 Eh    ::

    * Orbital Energies and Occupations

         #    Occupation            Energy/Eh            Energy/eV
      -------------------------------------------------------------
         1        2.0000           -0.8697783             -23.6679
       ...           ...                  ...                  ...
        55        2.0000           -0.5060651             -13.7707
        56        2.0000           -0.5042721             -13.7219
        57        2.0000           -0.4897258             -13.3261
        58        2.0000           -0.4857485             -13.2179
        59        2.0000           -0.4844119             -13.1815
        60        2.0000           -0.4750570             -12.9270
        61        2.0000           -0.4711419             -12.8204
        62        2.0000           -0.4667713             -12.7015
        63        2.0000           -0.4632606             -12.6060
        64        2.0000           -0.4569704             -12.4348
        65        2.0000           -0.4534934             -12.3402
        66        2.0000           -0.4204225             -11.4403
        67        2.0000           -0.4095163             -11.1435 (HOMO)
        68                         -0.3244468              -8.8286 (LUMO)
        69                         -0.3197609              -8.7011
        70                         -0.2782552              -7.5717
        71                         -0.2602747              -7.0824
        72                         -0.2371611              -6.4535
        73                         -0.2074957              -5.6462
        74                         -0.1494920              -4.0679
        75                         -0.1458645              -3.9692
        76                         -0.1431569              -3.8955
        77                         -0.1320800              -3.5941
        78                         -0.1299114              -3.5351
       ...                                ...                  ...
       134                          0.7078575              19.2618
      -------------------------------------------------------------
                  HL-Gap            0.0850695 Eh            2.3149 eV

Wiberg/Mayer (AO) data.
largest (>0.10) Wiberg bond orders for each atom

     #   Z sym  total        # sym  WBO       # sym  WBO       # sym  WBO
 ---------------------------------------------------------------------------
     1   6 C    3.882 --    26 H    0.986    27 H    0.980    28 H    0.980
                             2 O    0.907
     2   8 O    2.194 --     3 C    1.096     1 C    0.907     4 O    0.126
     3   6 C    3.852 --     4 O    1.624     2 O    1.096     5 C    1.040
     4   8 O    1.893 --     3 C    1.624     2 O    0.126
     5   6 C    3.944 --     6 N    1.270    24 C    1.217     3 C    1.040
                            25 O    0.130
     6   7 N    3.045 --     7 C    1.554     5 C    1.270
     7   6 C    3.917 --     6 N    1.554    20 N    1.118     8 C    0.976
     8   6 C    3.931 --    10 C    1.002     9 C    0.982     7 C    0.976
                            11 N    0.910
     9   6 C    3.986 --    31 H    0.984    29 H    0.983     8 C    0.982
                            30 H    0.980
    10   6 C    3.990 --     8 C    1.002    34 H    0.985    32 H    0.983
                            33 H    0.982
    11   7 N    3.363 --    12 C    1.291     8 C    0.910    35 H    0.889
                            13 O    0.171
    12   6 C    3.914 --    13 O    1.526    11 N    1.291    14 C    1.005
    13   8 O    1.921 --    12 C    1.526    11 N    0.171
    14   6 C    3.875 --    15 N    1.616    19 O    1.046    12 C    1.005
    15   7 N    3.003 --    14 C    1.616    16 N    1.205
    16   7 N    2.982 --    17 C    1.605    15 N    1.205
    17   6 C    3.866 --    16 N    1.605    19 O    1.073    18 C    1.033
    18   6 C    3.985 --    17 C    1.033    37 H    0.982    36 H    0.963
                            38 H    0.961
    19   8 O    2.318 --    17 C    1.073    14 C    1.046
    20   7 N    3.523 --    21 C    1.350     7 C    1.118    39 H    0.815
    21   6 C    3.861 --    20 N    1.350    22 O    1.147    24 C    1.045
    22   8 O    2.233 --    21 C    1.147    23 C    0.890
    23   6 C    3.864 --    41 H    0.981    42 H    0.976    40 H    0.975
                            22 O    0.890
    24   6 C    3.949 --    25 O    1.533     5 C    1.217    21 C    1.045
    25   8 O    1.848 --    24 C    1.533     5 C    0.130
    26   1 H    1.012 --     1 C    0.986
    27   1 H    1.009 --     1 C    0.980
    28   1 H    1.010 --     1 C    0.980
    29   1 H    0.999 --     9 C    0.983
    30   1 H    1.006 --     9 C    0.980
    31   1 H    1.000 --     9 C    0.984
    32   1 H    1.003 --    10 C    0.983
    33   1 H    1.007 --    10 C    0.982
    34   1 H    0.998 --    10 C    0.985
    35   1 H    0.934 --    11 N    0.889
    36   1 H    0.996 --    18 C    0.963
    37   1 H    0.998 --    18 C    0.982
    38   1 H    0.996 --    18 C    0.961
    39   1 H    0.923 --    20 N    0.815
    40   1 H    1.006 --    23 C    0.975
    41   1 H    1.008 --    23 C    0.981
    42   1 H    1.000 --    23 C    0.976
 ---------------------------------------------------------------------------

           -------------------------------------------------
          | TOTAL ENERGY              -83.003411726514 Eh   |
          | GRADIENT NORM               0.000710147367 Eh/α |
          | HOMO-LUMO GAP               2.314858559387 eV   |
           -------------------------------------------------

 * finished run on 2023/06/21 at 18:02:59.351
