                         Program Version 5.0.1 -  RELEASE  -
|  1> # ORCA input file
|  2> ! SP r2SCAN-3c CPCM
|  3>
|  4> %maxcore 1875.0
|  5> %pal nprocs 4 end
|  6> %cpcm smd true SMDsolvent "DMSO" end
|  7>
|  8> *xyz 0 1
|  9> C       4.152067   -1.172839    3.964690
| 10> O       4.245408   -0.652075    2.645106
| 11> C       3.074194   -0.505826    1.982476
| 12> O       2.009194   -0.807416    2.511777
| 13> C       3.196107    0.022613    0.633162
| 14> N       1.969667    0.140364    0.005108
| 15> C       1.876975    0.585944   -1.191541
| 16> C       0.511055    0.692091   -1.843612
| 17> C       0.177588    2.146327   -2.197165
| 18> C       0.419480   -0.216601   -3.075245
| 19> N      -0.419278    0.215016   -0.815067
| 20> C      -1.733199    0.132653   -0.948870
| 21> O      -2.406975    0.423906   -1.924580
| 22> C      -2.365727   -0.393895    0.305644
| 23> N      -1.816959   -0.748072    1.403473
| 24> N      -2.790471   -1.164719    2.270628
| 25> C      -3.927390   -1.062555    1.700362
| 26> C      -5.264818   -1.385399    2.220952
| 27> O      -3.748375   -0.562111    0.403219
| 28> C      -4.733993   -0.298212   -0.644634
| 29> N       2.982048    0.970116   -1.914411
| 30> C       4.265710    0.907083   -1.420718
| 31> O       5.202975    1.263575   -2.125750
| 32> C       4.410407    0.384296   -0.005198
| 33> O       5.549656    0.309076    0.484709
| 34> H       3.525498   -0.529715    4.590516
| 35> H       3.722118   -2.179215    3.952779
| 36> H       5.164113   -1.207731    4.366814
| 37> H       0.911697    2.529878   -2.903174
| 38> H       0.191286    2.760916   -1.298171
| 39> H      -0.809331    2.202889   -2.651996
| 40> H      -0.575556   -0.155752   -3.511221
| 41> H       0.622140   -1.248794   -2.792940
| 42> H       1.148322    0.100403   -3.818588
| 43> H       0.039556   -0.065871    0.058721
| 44> H      -5.159335   -1.760075    3.237704
| 45> H      -5.743764   -2.143903    1.601828
| 46> H      -5.898164   -0.497925    2.224174
| 47> H      -4.646403    0.751660   -0.916367
| 48> H      -5.706949   -0.526418   -0.222928
| 49> H      -4.495679   -0.943828   -1.487381
| 50> H       2.875102    1.313609   -2.854278
| 51> **                         ****END OF INPUT****

CARTESIAN COORDINATES (ANGSTROEM)
---------------------------------
  C      4.152067   -1.172839    3.964690
  O      4.245408   -0.652075    2.645106
  C      3.074194   -0.505826    1.982476
  O      2.009194   -0.807416    2.511777
  C      3.196107    0.022613    0.633162
  N      1.969667    0.140364    0.005108
  C      1.876975    0.585944   -1.191541
  C      0.511055    0.692091   -1.843612
  C      0.177588    2.146327   -2.197165
  C      0.419480   -0.216601   -3.075245
  N     -0.419278    0.215016   -0.815067
  C     -1.733199    0.132653   -0.948870
  O     -2.406975    0.423906   -1.924580
  C     -2.365727   -0.393895    0.305644
  N     -1.816959   -0.748072    1.403473
  N     -2.790471   -1.164719    2.270628
  C     -3.927390   -1.062555    1.700362
  C     -5.264818   -1.385399    2.220952
  O     -3.748375   -0.562111    0.403219
  C     -4.733993   -0.298212   -0.644634
  N      2.982048    0.970116   -1.914411
  C      4.265710    0.907083   -1.420718
  O      5.202975    1.263575   -2.125750
  C      4.410407    0.384296   -0.005198
  O      5.549656    0.309076    0.484709
  H      3.525498   -0.529715    4.590516
  H      3.722118   -2.179215    3.952779
  H      5.164113   -1.207731    4.366814
  H      0.911697    2.529878   -2.903174
  H      0.191286    2.760916   -1.298171
  H     -0.809331    2.202889   -2.651996
  H     -0.575556   -0.155752   -3.511221
  H      0.622140   -1.248794   -2.792940
  H      1.148322    0.100403   -3.818588
  H      0.039556   -0.065871    0.058721
  H     -5.159335   -1.760075    3.237704
  H     -5.743764   -2.143903    1.601828
  H     -5.898164   -0.497925    2.224174
  H     -4.646403    0.751660   -0.916367
  H     -5.706949   -0.526418   -0.222928
  H     -4.495679   -0.943828   -1.487381
  H      2.875102    1.313609   -2.854278

 Total Charge           Charge          ....    0
 Multiplicity           Mult            ....    1
 Number of Electrons    NEL             ....  184
 Basis Dimension        Dim             ....  615

ORBITAL ENERGIES
----------------

  NO   OCC          E(Eh)            E(eV)
   0   2.0000     -19.180904      -521.9389
   1   2.0000     -18.971615      -516.2439
   2   2.0000     -18.946631      -515.5640
   3   2.0000     -18.910620      -514.5841
   4   2.0000     -18.904339      -514.4132
   5   2.0000     -18.880648      -513.7686
   6   2.0000     -14.245897      -387.6506
   7   2.0000     -14.238398      -387.4465
   8   2.0000     -14.203993      -386.5103
   9   2.0000     -14.202282      -386.4637
  10   2.0000     -14.147618      -384.9762
  11   2.0000     -10.198011      -277.5020
  12   2.0000     -10.192746      -277.3587
  13   2.0000     -10.174399      -276.8595
  14   2.0000     -10.134730      -275.7800
  15   2.0000     -10.127358      -275.5794
  16   2.0000     -10.119107      -275.3549
  17   2.0000     -10.101776      -274.8833
  18   2.0000     -10.098410      -274.7917
  19   2.0000     -10.076516      -274.1959
  20   2.0000     -10.067427      -273.9486
  21   2.0000     -10.063312      -273.8366
  22   2.0000     -10.039574      -273.1907
  23   2.0000     -10.022107      -272.7154
  24   2.0000     -10.021971      -272.7117
  25   2.0000      -1.230168       -33.4746
  26   2.0000      -1.042768       -28.3752
  27   2.0000      -1.040918       -28.3248
  28   2.0000      -1.038218       -28.2514
  29   2.0000      -1.002732       -27.2857
  30   2.0000      -0.951359       -25.8878
  31   2.0000      -0.944185       -25.6926
  32   2.0000      -0.941732       -25.6258
  33   2.0000      -0.917629       -24.9699
  34   2.0000      -0.879973       -23.9453
  35   2.0000      -0.853359       -23.2211
  36   2.0000      -0.786513       -21.4021
  37   2.0000      -0.777499       -21.1568
  38   2.0000      -0.744678       -20.2637
  39   2.0000      -0.715217       -19.4620
  40   2.0000      -0.709746       -19.3132
  41   2.0000      -0.671932       -18.2842
  42   2.0000      -0.662083       -18.0162
  43   2.0000      -0.649686       -17.6788
  44   2.0000      -0.622216       -16.9314
  45   2.0000      -0.612340       -16.6626
  46   2.0000      -0.598174       -16.2771
  47   2.0000      -0.571957       -15.5637
  48   2.0000      -0.565961       -15.4006
  49   2.0000      -0.547475       -14.8975
  50   2.0000      -0.533835       -14.5264
  51   2.0000      -0.521845       -14.2001
  52   2.0000      -0.496534       -13.5114
  53   2.0000      -0.476986       -12.9795
  54   2.0000      -0.468261       -12.7420
  55   2.0000      -0.457411       -12.4468
  56   2.0000      -0.445099       -12.1118
  57   2.0000      -0.443253       -12.0615
  58   2.0000      -0.438530       -11.9330
  59   2.0000      -0.430301       -11.7091
  60   2.0000      -0.427105       -11.6221
  61   2.0000      -0.421562       -11.4713
  62   2.0000      -0.419840       -11.4244
  63   2.0000      -0.411788       -11.2053
  64   2.0000      -0.407486       -11.0883
  65   2.0000      -0.405745       -11.0409
  66   2.0000      -0.402059       -10.9406
  67   2.0000      -0.386732       -10.5235
  68   2.0000      -0.382391       -10.4054
  69   2.0000      -0.372688       -10.1414
  70   2.0000      -0.370245       -10.0749
  71   2.0000      -0.363331        -9.8867
  72   2.0000      -0.356576        -9.7029
  73   2.0000      -0.354638        -9.6502
  74   2.0000      -0.352372        -9.5885
  75   2.0000      -0.351743        -9.5714
  76   2.0000      -0.330320        -8.9885
  77   2.0000      -0.328262        -8.9325
  78   2.0000      -0.316731        -8.6187
  79   2.0000      -0.309693        -8.4272
  80   2.0000      -0.301783        -8.2119
  81   2.0000      -0.301216        -8.1965
  82   2.0000      -0.298465        -8.1216
  83   2.0000      -0.261245        -7.1088
  84   2.0000      -0.256737        -6.9862
  85   2.0000      -0.252056        -6.8588
  86   2.0000      -0.250827        -6.8254
  87   2.0000      -0.244870        -6.6633
  88   2.0000      -0.229885        -6.2555
  89   2.0000      -0.213199        -5.8014
  90   2.0000      -0.176440        -4.8012
  91   2.0000      -0.160978        -4.3804
  92   0.0000      -0.121960        -3.3187
  93   0.0000      -0.055765        -1.5175
  94   0.0000      -0.053763        -1.4630
  95   0.0000      -0.018196        -0.4951
  96   0.0000      -0.011278        -0.3069

MULLIKEN ATOMIC CHARGES
-----------------------
   0 C :   -0.329426
   1 O :   -0.153318
   2 C :    0.193523
   3 O :   -0.448012
   4 C :   -0.091292
   5 N :   -0.211243
   6 C :    0.416709
   7 C :   -0.264205
   8 C :   -0.596959
   9 C :   -0.597345
  10 N :    0.084306
  11 C :   -0.053874
  12 O :   -0.486619
  13 C :    0.380535
  14 N :   -0.045476
  15 N :   -0.264124
  16 C :    0.489636
  17 C :   -0.673460
  18 O :    0.109876
  19 C :   -0.239307
  20 N :   -0.041234
  21 C :    0.043186
  22 O :   -0.392560
  23 C :   -0.087047
  24 O :   -0.371156
  25 H :    0.163465
  26 H :    0.163425
  27 H :    0.164591
  28 H :    0.185091
  29 H :    0.187167
  30 H :    0.197054
  31 H :    0.197099
  32 H :    0.186940
  33 H :    0.185643
  34 H :    0.326774
  35 H :    0.226312
  36 H :    0.229452
  37 H :    0.230380
  38 H :    0.229411
  39 H :    0.222200
  40 H :    0.229883
  41 H :    0.303998
Sum of atomic charges:   -0.0000000

LOEWDIN ATOMIC CHARGES
----------------------
   0 C :   -0.054690
   1 O :   -0.600875
   2 C :    0.387872
   3 O :   -0.481925
   4 C :    0.126509
   5 N :   -0.612974
   6 C :    0.326903
   7 C :    0.108219
   8 C :   -0.345367
   9 C :   -0.345253
  10 N :   -0.567526
  11 C :    0.384590
  12 O :   -0.474960
  13 C :    0.487159
  14 N :   -0.282242
  15 N :   -0.288507
  16 C :    0.442279
  17 C :   -0.299613
  18 O :   -0.545948
  19 C :    0.079174
  20 N :   -0.478624
  21 C :    0.358503
  22 O :   -0.470803
  23 C :    0.229060
  24 O :   -0.563089
  25 H :    0.174146
  26 H :    0.173636
  27 H :    0.177751
  28 H :    0.171934
  29 H :    0.174885
  30 H :    0.178191
  31 H :    0.178473
  32 H :    0.174751
  33 H :    0.171892
  34 H :    0.323884
  35 H :    0.209452
  36 H :    0.205982
  37 H :    0.206291
  38 H :    0.222350
  39 H :    0.218027
  40 H :    0.221239
  41 H :    0.299244

  Mayer bond orders larger than 0.100000
B(  0-C ,  1-O ) :   0.8466 B(  0-C , 25-H ) :   0.9623 B(  0-C , 26-H ) :   0.9616
B(  0-C , 27-H ) :   0.9690 B(  1-O ,  2-C ) :   1.1284 B(  2-C ,  3-O ) :   1.8514
B(  2-C ,  4-C ) :   1.1499 B(  4-C ,  5-N ) :   0.9824 B(  4-C , 23-C ) :   0.9525
B(  5-N ,  6-C ) :   1.7168 B(  6-C ,  7-C ) :   0.7253 B(  6-C , 10-N ) :  -0.1317
B(  6-C , 20-N ) :   1.0586 B(  7-C ,  8-C ) :   0.9354 B(  7-C ,  9-C ) :   0.9356
B(  7-C , 10-N ) :   0.9292 B(  8-C , 28-H ) :   0.9566 B(  8-C , 29-H ) :   0.9671
B(  8-C , 30-H ) :   0.9599 B(  9-C , 31-H ) :   0.9596 B(  9-C , 32-H ) :   0.9668
B(  9-C , 33-H ) :   0.9569 B( 10-N , 11-C ) :   1.2630 B( 10-N , 12-O ) :   0.1206
B( 10-N , 34-H ) :   0.8132 B( 11-C , 12-O ) :   1.7058 B( 11-C , 13-C ) :   0.8818
B( 13-C , 14-N ) :   1.7478 B( 13-C , 18-O ) :   0.9909 B( 14-N , 15-N ) :   1.0443
B( 15-N , 16-C ) :   1.6766 B( 16-C , 17-C ) :   0.8386 B( 16-C , 18-O ) :   0.9004
B( 17-C , 35-H ) :   0.9439 B( 17-C , 36-H ) :   0.9294 B( 17-C , 37-H ) :   0.9292
B( 18-O , 19-C ) :   0.7955 B( 19-C , 38-H ) :   0.9144 B( 19-C , 39-H ) :   0.9166
B( 19-C , 40-H ) :   0.9146 B( 20-N , 21-C ) :   0.9931 B( 20-N , 41-H ) :   0.8836
B( 21-C , 22-O ) :   2.0849 B( 21-C , 23-C ) :   0.8831 B( 23-C , 24-O ) :   1.9554

Dispersion correction           -0.018825695
FINAL SINGLE POINT ENERGY     -1268.539969313541

DIPOLE MOMENT
-------------
                                X             Y             Z
Electronic contribution:      8.12510      -0.18332       2.95412
Nuclear contribution   :    -23.19466      -0.94607      -3.91019
                        -----------------------------------------
Total Dipole Moment    :    -15.06956      -1.12940      -0.95607
                        -----------------------------------------
Magnitude (a.u.)       :     15.14204
Magnitude (Debye)      :     38.48800

Rotational constants in cm-1:     0.011425     0.004231     0.003156
Rotational constants in MHz :   342.525796   126.848779    94.623341

                             ****ORCA TERMINATED NORMALLY****
TOTAL RUN TIME: 0 days 0 hours 2 minutes 27 seconds 257 msec
