   * xtb version 6.5.1 (579679a) compiled by 'ehlert@majestix' on 2022-07-11
          program call               : /lustre/hpc/kemi/ree/PhD/git/ReactivityQM/dep/xtb-6.5.1/bin/xtb --gfn 1 /lustre/hpc/kemi/ree/PhD/git/ReactivityQM/calculations/R02methylcation/reac01prodN01/conf11/R02methylcation_reac01prodN01_conf11_gfn1.xyz --opt --vfukui --chrg 0 --uhf 0 --alpb DMSO

   ID    Z sym.   atoms
    1    6 C      1, 3, 5, 7-10, 12, 14, 17, 18, 20, 22, 24
    2    8 O      2, 4, 13, 19, 23, 25
    3    7 N      6, 11, 15, 16, 21
    4    1 H      26-42

      * Solvation model:               ALPB
        Solvent                        DMSO
        Solvent mass                       7.8130E+01 g/mol
          :  Hamiltonian                  GFN1-xTB          :
 * total energy  :   -82.8830681 Eh     change       -0.1028582E-09 Eh
 * total energy  :   -82.9008895 Eh     change       -0.1782138E-01 Eh
 * total energy  :   -82.9100969 Eh     change       -0.9207368E-02 Eh
 * total energy  :   -82.9127577 Eh     change       -0.2660839E-02 Eh
 * total energy  :   -82.9144587 Eh     change       -0.1700958E-02 Eh
 * total energy  :   -82.9152304 Eh     change       -0.7717637E-03 Eh
 * total energy  :   -82.9157836 Eh     change       -0.5531715E-03 Eh
 * total energy  :   -82.9161885 Eh     change       -0.4049297E-03 Eh
 * total energy  :   -82.9165001 Eh     change       -0.3116072E-03 Eh
 * total energy  :   -82.9167725 Eh     change       -0.2723763E-03 Eh
 * total energy  :   -82.9185606 Eh     change       -0.8549934E-04 Eh
 * total energy  :   -82.9186122 Eh     change       -0.5160561E-04 Eh
 * total energy  :   -82.9186573 Eh     change       -0.4512452E-04 Eh
 * total energy  :   -82.9187016 Eh     change       -0.4429146E-04 Eh
 * total energy  :   -82.9187207 Eh     change       -0.1903157E-04 Eh
 * total energy  :   -82.9187339 Eh     change       -0.1324978E-04 Eh
 * total energy  :   -82.9187400 Eh     change       -0.6109942E-05 Eh
 * total energy  :   -82.9187470 Eh     change       -0.7012646E-05 Eh
 * total energy  :   -82.9187512 Eh     change       -0.4119208E-05 Eh
   *** GEOMETRY OPTIMIZATION CONVERGED AFTER 41 ITERATIONS ***

 final structure:
================
42
 xtb: 6.5.1 (579679a)
C            4.15206736582506       -1.17283938727445        3.96468971257569
O            4.24540826676842       -0.65207466961200        2.64510626735430
C            3.07419377104235       -0.50582630924365        1.98247553659026
O            2.00919407325357       -0.80741613927276        2.51177723736685
C            3.19610696010597        0.02261301461649        0.63316175400387
N            1.96966739647792        0.14036354289827        0.00510758818535
C            1.87697495343791        0.58594374338086       -1.19154066863872
C            0.51105527227709        0.69209095200125       -1.84361152775880
C            0.17758842688715        2.14632740043953       -2.19716472235435
C            0.41947978549907       -0.21660143548899       -3.07524521961269
N           -0.41927756215205        0.21501616203128       -0.81506668896700
C           -1.73319884571953        0.13265270366916       -0.94887043550354
O           -2.40697475389344        0.42390561388868       -1.92457987475192
C           -2.36572703859712       -0.39389477699361        0.30564411278393
N           -1.81695893753903       -0.74807206616271        1.40347251114107
N           -2.79047055542831       -1.16471916896303        2.27062817376021
C           -3.92739026243011       -1.06255461990650        1.70036216073091
C           -5.26481756356240       -1.38539899173407        2.22095181900692
O           -3.74837474987883       -0.56211129386190        0.40321924820935
C           -4.73399267515697       -0.29821191514095       -0.64463389943339
N            2.98204770299042        0.97011620638442       -1.91441095919577
C            4.26571016594401        0.90708316263911       -1.42071808623986
O            5.20297480500641        1.26357490431519       -2.12575013549593
C            4.41040654992129        0.38429592776881       -0.00519802327657
O            5.54965604234289        0.30907569515033        0.48470879226033
H            3.52549832930645       -0.52971527355069        4.59051569346244
H            3.72211814638165       -2.17921455343972        3.95277921565405
H            5.16411282982075       -1.20773089273667        4.36681418359162
H            0.91169742708698        2.52987812984379       -2.90317435977825
H            0.19128632408621        2.76091610327899       -1.29817149134261
H           -0.80933071958972        2.20288949071850       -2.65199562786928
H           -0.57555626674218       -0.15575207465080       -3.51122140200449
H            0.62213974795405       -1.24879445378227       -2.79294041601429
H            1.14832194601360        0.10040322633803       -3.81858771912839
H            0.03955603507003       -0.06587074846236        0.05872086449132
H           -5.15933480387164       -1.76007472979368        3.23770363639607
H           -5.74376409818629       -2.14390288360130        1.60182843892363
H           -5.89816445205111       -0.49792502120526        2.22417408913158
H           -4.64640282834475        0.75166036950256       -0.91636731283252
H           -5.70694902346417       -0.52641833154905       -0.22292811322462
H           -4.49567850294327       -0.94382808143886       -1.48738085362386
H            2.87510231605003        1.31360946900629       -2.85427849857327

          :  Hamiltonian                  GFN1-xTB          :
         :: total energy             -82.918751157333 Eh    ::
         :: gradient norm              0.000809143644 Eh/a0 ::
         :: HOMO-LUMO gap              0.474178048663 eV    ::
         :: SCC energy               -83.702076090208 Eh    ::
         :: -> Gsolv                  -0.118027409160 Eh    ::
         :: repulsion energy           0.809280976968 Eh    ::

    * Orbital Energies and Occupations

         #    Occupation            Energy/Eh            Energy/eV
      -------------------------------------------------------------
         1        2.0000           -0.9630185             -26.2051
       ...           ...                  ...                  ...
        55        2.0000           -0.5061135             -13.7720
        56        2.0000           -0.5006331             -13.6229
        57        2.0000           -0.4966086             -13.5134
        58        2.0000           -0.4927514             -13.4084
        59        2.0000           -0.4814859             -13.1019
        60        2.0000           -0.4707121             -12.8087
        61        2.0000           -0.4656834             -12.6719
        62        2.0000           -0.4639983             -12.6260
        63        2.0000           -0.4493040             -12.2262
        64        2.0000           -0.4439170             -12.0796
        65        2.0000           -0.4287815             -11.6677
        66        2.0000           -0.3871924             -10.5360
        67        1.9998           -0.3739153             -10.1748 (HOMO)
        68        0.0002           -0.3564895              -9.7006 (LUMO)
        69                         -0.3083209              -8.3898
        70                         -0.2775582              -7.5527
        71                         -0.2494977              -6.7892
        72                         -0.2344842              -6.3806
        73                         -0.2044119              -5.5623
        74                         -0.1869407              -5.0869
        75                         -0.1734196              -4.7190
        76                         -0.1338002              -3.6409
        77                         -0.1256653              -3.4195
        78                         -0.1249641              -3.4004
       ...                                ...                  ...
       134                          0.7541060              20.5203
      -------------------------------------------------------------
                  HL-Gap            0.0174257 Eh            0.4742 eV

Wiberg/Mayer (AO) data.
largest (>0.10) Wiberg bond orders for each atom

     #   Z sym  total        # sym  WBO       # sym  WBO       # sym  WBO
 ---------------------------------------------------------------------------
     1   6 C    3.896 --    28 H    0.987    27 H    0.981    26 H    0.981
                             2 O    0.922
     2   8 O    2.165 --     3 C    1.056     1 C    0.922     4 O    0.110
     3   6 C    3.852 --     4 O    1.571     5 C    1.113     2 O    1.056
     4   8 O    1.848 --     3 C    1.571     2 O    0.110
     5   6 C    3.910 --    24 C    1.269     6 N    1.145     3 C    1.113
                            25 O    0.129
     6   7 N    3.074 --     7 C    1.625     5 C    1.145
     7   6 C    3.936 --     6 N    1.625    21 N    1.106     8 C    0.977
     8   6 C    3.921 --     9 C    0.982    10 C    0.982     7 C    0.977
                            11 N    0.913
     9   6 C    3.988 --    30 H    0.985    29 H    0.983     8 C    0.982
                            31 H    0.981
    10   6 C    3.988 --    33 H    0.985    34 H    0.983     8 C    0.982
                            32 H    0.981
    11   7 N    3.420 --    12 C    1.341     8 C    0.913    35 H    0.852
                            13 O    0.201
    12   6 C    3.932 --    13 O    1.556    11 N    1.341    14 C    0.962
    13   8 O    1.921 --    12 C    1.556    11 N    0.201
    14   6 C    3.795 --    15 N    1.711    12 C    0.962    19 O    0.882
    15   7 N    3.042 --    14 C    1.711    16 N    1.142
    16   7 N    3.025 --    17 C    1.704    15 N    1.142
    17   6 C    3.805 --    16 N    1.704    18 C    1.043    19 O    0.874
    18   6 C    3.971 --    17 C    1.043    36 H    0.970    37 H    0.952
                            38 H    0.952
    19   8 O    2.652 --    14 C    0.882    17 C    0.874    20 C    0.750
    20   6 C    3.728 --    40 H    0.975    41 H    0.968    39 H    0.968
                            19 O    0.750
    21   7 N    3.424 --    22 C    1.147     7 C    1.106    42 H    0.895
                            23 O    0.133
    22   6 C    3.875 --    23 O    1.593    21 N    1.147    24 C    0.963
    23   8 O    1.873 --    22 C    1.593    21 N    0.133
    24   6 C    3.943 --    25 O    1.529     5 C    1.269    22 C    0.963
    25   8 O    1.834 --    24 C    1.529     5 C    0.129
    26   1 H    1.014 --     1 C    0.981
    27   1 H    1.013 --     1 C    0.981
    28   1 H    1.015 --     1 C    0.987
    29   1 H    1.000 --     9 C    0.983
    30   1 H    1.002 --     9 C    0.985
    31   1 H    1.005 --     9 C    0.981
    32   1 H    1.005 --    10 C    0.981
    33   1 H    1.002 --    10 C    0.985
    34   1 H    1.000 --    10 C    0.983
    35   1 H    0.967 --    11 N    0.852
    36   1 H    0.990 --    18 C    0.970
    37   1 H    0.989 --    18 C    0.952
    38   1 H    0.989 --    18 C    0.952
    39   1 H    1.001 --    20 C    0.968
    40   1 H    0.991 --    20 C    0.975
    41   1 H    1.000 --    20 C    0.968
    42   1 H    0.943 --    21 N    0.895
 ---------------------------------------------------------------------------

           -------------------------------------------------
          | TOTAL ENERGY              -82.918751157333 Eh   |
          | GRADIENT NORM               0.000809143644 Eh/α |
          | HOMO-LUMO GAP               0.474178048663 eV   |
           -------------------------------------------------

 * finished run on 2023/06/21 at 17:29:37.794
