   * xtb version 6.5.1 (579679a) compiled by 'ehlert@majestix' on 2022-07-11
          program call               : /lustre/hpc/kemi/ree/PhD/git/ReactivityQM/dep/xtb-6.5.1/bin/xtb --gfn 1 /lustre/hpc/kemi/ree/PhD/git/ReactivityQM/calculations/R01/reac01prodN07/conf08/R01_reac01prodN07_conf08_gfn1.xyz --opt --vfukui --chrg 1 --uhf 0 --alpb DMSO

   ID    Z sym.   atoms
    1    6 C      1, 3, 5, 8-10
    2    8 O      2, 4, 11
    3    7 N      6, 7
    4    1 H      12-20

      * Solvation model:               ALPB
        Solvent                        DMSO
        Solvent mass                       7.8130E+01 g/mol
          :  Hamiltonian                  GFN1-xTB          :
 * total energy  :   -37.5579111 Eh     change       -0.3467449E-11 Eh
 * total energy  :   -37.5688864 Eh     change       -0.1097531E-01 Eh
 * total energy  :   -37.5734726 Eh     change       -0.4586252E-02 Eh
 * total energy  :   -37.5742628 Eh     change       -0.7901859E-03 Eh
 * total energy  :   -37.5747956 Eh     change       -0.5328245E-03 Eh
 * total energy  :   -37.5749278 Eh     change       -0.1322033E-03 Eh
 * total energy  :   -37.5750530 Eh     change       -0.1251520E-03 Eh
 * total energy  :   -37.5751335 Eh     change       -0.8053541E-04 Eh
 * total energy  :   -37.5751758 Eh     change       -0.4225565E-04 Eh
 * total energy  :   -37.5751941 Eh     change       -0.1835474E-04 Eh
 * total energy  :   -37.5752065 Eh     change       -0.1232917E-04 Eh
 * total energy  :   -37.5752119 Eh     change       -0.5459331E-05 Eh
 * total energy  :   -37.5752160 Eh     change       -0.4093327E-05 Eh
   *** GEOMETRY OPTIMIZATION CONVERGED AFTER 13 ITERATIONS ***

 final structure:
================
20
 xtb: 6.5.1 (579679a)
C            3.78465502198112        0.75132197853153        0.41764728181275
O            2.36677476252901        0.51319567451022        0.29535373500734
C            1.97314600292551       -0.70595334556068        0.07822374351114
O            2.63368835782117       -1.69446017819148       -0.04007484340348
C            0.44260150040897       -0.75908661160990       -0.02964663006468
N           -0.27199424376368       -1.90588824152922       -0.28455333453233
N           -1.49045907273628       -1.58749945581380       -0.31307987320266
C           -1.64575935493672       -0.19949682340368       -0.07468391021345
C           -2.44885379636766        0.05386273236424        1.21123702023300
C           -2.26673006387372        0.50484758877472       -1.29205527176539
O           -0.30702202711373        0.24932318246095        0.10061420874237
H            4.29019215699169        0.39514947132803       -0.48076844236129
H            3.89601897769550        1.82631781635540        0.53216172018131
H            4.16437190034277        0.22184433603244        1.29252235217279
H           -3.45066455692733       -0.34769728824222        1.07912464743803
H           -2.49286736374899        1.12611043779806        1.38664028116094
H           -1.95231106190881       -0.44012180442324        2.04369887128448
H           -1.64603689519203        0.31786494579208       -2.16575552083339
H           -3.26678399128889        0.10834318964351       -1.44921297756037
H           -2.31196725283791        1.57202039518303       -1.08843405760700

          :  Hamiltonian                  GFN1-xTB          :
         :: total energy             -37.575216014996 Eh    ::
         :: gradient norm              0.000797040565 Eh/a0 ::
         :: HOMO-LUMO gap              1.781363179563 eV    ::
         :: SCC energy               -37.911084175110 Eh    ::
         :: -> Gsolv                  -0.082825661872 Eh    ::
         :: repulsion energy           0.344294719133 Eh    ::

    * Orbital Energies and Occupations

         #    Occupation            Energy/Eh            Energy/eV
      -------------------------------------------------------------
         1        2.0000           -0.9573720             -26.0514
       ...           ...                  ...                  ...
        18        2.0000           -0.6147469             -16.7281
        19        2.0000           -0.6117137             -16.6456
        20        2.0000           -0.6108576             -16.6223
        21        2.0000           -0.5875129             -15.9870
        22        2.0000           -0.5857149             -15.9381
        23        2.0000           -0.5790532             -15.7568
        24        2.0000           -0.5749321             -15.6447
        25        2.0000           -0.5686230             -15.4730
        26        2.0000           -0.5557866             -15.1237
        27        2.0000           -0.5518186             -15.0157
        28        2.0000           -0.5424980             -14.7621
        29        2.0000           -0.5355935             -14.5742
        30        2.0000           -0.5252868             -14.2938 (HOMO)
        31                         -0.4598229             -12.5124 (LUMO)
        32                         -0.3770154             -10.2591
        33                         -0.2803438              -7.6285
        34                         -0.1701821              -4.6309
        35                         -0.1643920              -4.4733
        36                         -0.1599468              -4.3524
        37                         -0.1203738              -3.2755
        38                         -0.1124536              -3.0600
        39                         -0.0977113              -2.6589
        40                         -0.0950945              -2.5877
        41                         -0.0923297              -2.5124
       ...                                ...                  ...
        62                          0.7362751              20.0351
      -------------------------------------------------------------
                  HL-Gap            0.0654639 Eh            1.7814 eV

Wiberg/Mayer (AO) data.
largest (>0.10) Wiberg bond orders for each atom

     #   Z sym  total        # sym  WBO       # sym  WBO       # sym  WBO
 ---------------------------------------------------------------------------
     1   6 C    3.819 --    13 H    0.982    12 H    0.972    14 H    0.971
                             2 O    0.853
     2   8 O    2.272 --     3 C    1.203     1 C    0.853     4 O    0.174
     3   6 C    3.882 --     4 O    1.711     2 O    1.203     5 C    0.898
     4   8 O    1.998 --     3 C    1.711     2 O    0.174
     5   6 C    3.790 --    11 O    1.391     6 N    1.202     3 C    0.898
     6   7 N    3.022 --     7 N    1.675     5 C    1.202
     7   7 N    2.995 --     6 N    1.675     8 C    1.075
     8   6 C    3.813 --     7 N    1.075     9 C    0.884    10 C    0.883
                            11 O    0.867
     9   6 C    3.941 --    17 H    0.978    15 H    0.975    16 H    0.974
                             8 C    0.884
    10   6 C    3.941 --    18 H    0.978    19 H    0.975    20 H    0.974
                             8 C    0.883
    11   8 O    2.439 --     5 C    1.391     8 C    0.867
    12   1 H    0.996 --     1 C    0.972
    13   1 H    1.002 --     1 C    0.982
    14   1 H    0.996 --     1 C    0.971
    15   1 H    0.989 --     9 C    0.975
    16   1 H    0.989 --     9 C    0.974
    17   1 H    0.989 --     9 C    0.978
    18   1 H    0.989 --    10 C    0.978
    19   1 H    0.989 --    10 C    0.975
    20   1 H    0.989 --    10 C    0.974
 ---------------------------------------------------------------------------

           -------------------------------------------------
          | TOTAL ENERGY              -37.575216014996 Eh   |
          | GRADIENT NORM               0.000797040565 Eh/α |
          | HOMO-LUMO GAP               1.781363179563 eV   |
           -------------------------------------------------

 * finished run on 2023/06/20 at 14:56:44.546
