   * xtb version 6.5.1 (579679a) compiled by 'ehlert@majestix' on 2022-07-11
          program call               : /lustre/hpc/kemi/ree/PhD/git/ReactivityQM/dep/xtb-6.5.1/bin/xtb --gfn 1 /lustre/hpc/kemi/ree/PhD/git/ReactivityQM/calculations/R01/reac02prodE06/conf12/R01_reac02prodE06_conf12_gfn1.xyz --opt --vfukui --chrg -1 --uhf 0 --alpb DMSO

   ID    Z sym.   atoms
    1    6 C      1, 3, 5, 6, 8, 9, 12-15
    2    8 O      2, 4, 7, 10
    3    7 N      11, 16, 17
    4    1 H      18-33

      * Solvation model:               ALPB
        Solvent                        DMSO
        Solvent mass                       7.8130E+01 g/mol
          :  Hamiltonian                  GFN1-xTB          :
 * total energy  :   -58.5359748 Eh     change       -0.9464429E-11 Eh
 * total energy  :   -58.5433994 Eh     change       -0.7424554E-02 Eh
 * total energy  :   -58.5460736 Eh     change       -0.2674281E-02 Eh
 * total energy  :   -58.5465054 Eh     change       -0.4317121E-03 Eh
 * total energy  :   -58.5467360 Eh     change       -0.2306610E-03 Eh
 * total energy  :   -58.5468294 Eh     change       -0.9341742E-04 Eh
 * total energy  :   -58.5469064 Eh     change       -0.7696449E-04 Eh
 * total energy  :   -58.5469468 Eh     change       -0.4039658E-04 Eh
 * total energy  :   -58.5469798 Eh     change       -0.3296145E-04 Eh
 * total energy  :   -58.5470063 Eh     change       -0.2652899E-04 Eh
 * total energy  :   -58.5470739 Eh     change       -0.1603723E-04 Eh
 * total energy  :   -58.5470849 Eh     change       -0.1094010E-04 Eh
 * total energy  :   -58.5470945 Eh     change       -0.9623875E-05 Eh
 * total energy  :   -58.5471051 Eh     change       -0.1059426E-04 Eh
 * total energy  :   -58.5471169 Eh     change       -0.1183388E-04 Eh
 * total energy  :   -58.5471280 Eh     change       -0.1109972E-04 Eh
 * total energy  :   -58.5471371 Eh     change       -0.9113550E-05 Eh
 * total energy  :   -58.5471450 Eh     change       -0.7902853E-05 Eh
 * total energy  :   -58.5471480 Eh     change       -0.3021090E-05 Eh
   *** GEOMETRY OPTIMIZATION CONVERGED AFTER 22 ITERATIONS ***

 final structure:
================
33
 xtb: 6.5.1 (579679a)
C            3.70011885091871        2.80097481914051       -0.36625272472843
O            2.51359107484696        2.02207015108327       -0.26734462469320
C            2.67782942511629        0.68288634919165       -0.33718114429683
O            3.80217923717194        0.19415520457062       -0.46188675363343
C            1.44939424587770       -0.08534974246373       -0.25499629976949
C            1.46515960783703       -1.44941779010969       -0.33318315277702
O            2.59584634480161       -2.15860778636214       -0.47670170897741
C            0.15182042126767       -2.28405718282793       -0.41562201436696
C            0.29979972774526       -3.51912037478974        0.53262804661503
O           -0.21370225661571       -2.54962807534338       -1.62699522410848
N           -0.87178004945716       -1.37177645324119        0.32184099309432
C           -0.82451192940620       -0.02909021201569        0.14990696241216
C           -2.12308540860185        0.74713650546776        0.34063125162847
C           -1.83859451610417        2.25183963731626        0.35244069295774
C           -3.09685680359616        0.40056790272554       -0.80039475600331
N           -2.70240470313848        0.38641194731550        1.63871329590590
N            0.25185843476131        0.63899877813843       -0.09811734918250
H            4.39892390737899        2.54174175510356        0.43442484037088
H            3.40394912989838        3.84497248633346       -0.27671354878333
H            4.18940998272098        2.63430763630449       -1.33050152668091
H            3.37426333269605       -1.55402957753285       -0.50914226199530
H            0.53753887632656       -3.20633841956188        1.54796476624040
H           -0.63632996362934       -4.07348890117047        0.53245160397625
H            1.09202265316672       -4.16158967879852        0.15160379514157
H           -1.79377814526376       -1.78199061631444        0.31096648901676
H           -1.35274386918816        2.55187822504673       -0.57619092789509
H           -2.76774664739201        2.80954342590289        0.46318157219261
H           -1.17887604309870        2.49617371550327        1.18572471906648
H           -3.30782089567293       -0.66820928946732       -0.80795443115050
H           -4.03521524473503        0.93612096610102       -0.66429739229735
H           -2.66638454819801        0.68255042384137       -1.76190397430207
H           -2.91320485208780       -0.60365558836579        1.65434505140691
H           -3.58066937634615        0.87401875927844        1.74855273561563

          :  Hamiltonian                  GFN1-xTB          :
         :: total energy             -58.547148043282 Eh    ::
         :: gradient norm              0.000351238385 Eh/a0 ::
         :: HOMO-LUMO gap              2.237810445536 eV    ::
         :: SCC energy               -59.084440072527 Eh    ::
         :: -> Gsolv                  -0.112152213878 Eh    ::
         :: repulsion energy           0.555931246000 Eh    ::

    * Orbital Energies and Occupations

         #    Occupation            Energy/Eh            Energy/eV
      -------------------------------------------------------------
         1        2.0000           -0.8087959             -22.0085
       ...           ...                  ...                  ...
        36        2.0000           -0.4750886             -12.9278
        37        2.0000           -0.4732209             -12.8770
        38        2.0000           -0.4693280             -12.7711
        39        2.0000           -0.4625804             -12.5875
        40        2.0000           -0.4554943             -12.3946
        41        2.0000           -0.4482823             -12.1984
        42        2.0000           -0.4373464             -11.9008
        43        2.0000           -0.4156058             -11.3092
        44        2.0000           -0.3931304             -10.6976
        45        2.0000           -0.3866771             -10.5220
        46        2.0000           -0.3628592              -9.8739
        47        2.0000           -0.3488214              -9.4919
        48        2.0000           -0.3456339              -9.4052 (HOMO)
        49                         -0.2633958              -7.1674 (LUMO)
        50                         -0.2150155              -5.8509
        51                         -0.1321560              -3.5961
        52                         -0.1266501              -3.4463
        53                         -0.1071457              -2.9156
        54                         -0.1055300              -2.8716
        55                         -0.0887463              -2.4149
        56                         -0.0852247              -2.3191
        57                         -0.0728008              -1.9810
        58                         -0.0640304              -1.7424
        59                         -0.0631504              -1.7184
       ...                                ...                  ...
       100                          0.6968403              18.9620
      -------------------------------------------------------------
                  HL-Gap            0.0822380 Eh            2.2378 eV

Wiberg/Mayer (AO) data.
largest (>0.10) Wiberg bond orders for each atom

     #   Z sym  total        # sym  WBO       # sym  WBO       # sym  WBO
 ---------------------------------------------------------------------------
     1   6 C    3.892 --    19 H    0.987    18 H    0.980    20 H    0.980
                             2 O    0.918
     2   8 O    2.169 --     3 C    1.066     1 C    0.918     4 O    0.106
     3   6 C    3.839 --     4 O    1.541     5 C    1.107     2 O    1.066
     4   8 O    1.897 --     3 C    1.541     2 O    0.106
     5   6 C    3.946 --     6 C    1.535     3 C    1.107    17 N    1.070
     6   6 C    3.862 --     5 C    1.535     7 O    1.107     8 C    0.900
     7   8 O    2.079 --     6 C    1.107    21 H    0.790
     8   6 C    3.925 --    10 O    1.240     9 C    0.938     6 C    0.900
                            11 N    0.779
     9   6 C    3.992 --    22 H    0.992    23 H    0.987    24 H    0.986
                             8 C    0.938
    10   8 O    1.545 --     8 C    1.240
    11   7 N    3.259 --    12 C    1.227    25 H    0.922     8 C    0.779
                            17 N    0.155
    12   6 C    3.948 --    17 N    1.597    11 N    1.227    13 C    0.969
    13   6 C    3.965 --    14 C    1.001    15 C    0.981    16 N    0.976
                            12 C    0.969
    14   6 C    3.997 --    13 C    1.001    27 H    0.987    28 H    0.986
                            26 H    0.986
    15   6 C    3.996 --    30 H    0.986    31 H    0.985    29 H    0.983
                            13 C    0.981
    16   7 N    2.949 --    13 C    0.976    33 H    0.950    32 H    0.947
    17   7 N    2.970 --    12 C    1.597     5 C    1.070    11 N    0.155
    18   1 H    1.013 --     1 C    0.980
    19   1 H    1.015 --     1 C    0.987
    20   1 H    1.012 --     1 C    0.980
    21   1 H    0.876 --     7 O    0.790
    22   1 H    1.014 --     9 C    0.992
    23   1 H    1.013 --     9 C    0.987
    24   1 H    1.016 --     9 C    0.986
    25   1 H    0.968 --    11 N    0.922
    26   1 H    1.019 --    14 C    0.986
    27   1 H    1.004 --    14 C    0.987
    28   1 H    1.018 --    14 C    0.986
    29   1 H    1.006 --    15 C    0.983
    30   1 H    1.006 --    15 C    0.986
    31   1 H    1.005 --    15 C    0.985
    32   1 H    0.967 --    16 N    0.947
    33   1 H    0.965 --    16 N    0.950
 ---------------------------------------------------------------------------

           -------------------------------------------------
          | TOTAL ENERGY              -58.547148043282 Eh   |
          | GRADIENT NORM               0.000351238385 Eh/α |
          | HOMO-LUMO GAP               2.237810445536 eV   |
           -------------------------------------------------

 * finished run on 2023/06/20 at 15:00:30.314
