   * xtb version 6.5.1 (579679a) compiled by 'ehlert@majestix' on 2022-07-11
          program call               : /lustre/hpc/kemi/ree/PhD/git/ReactivityQM/dep/xtb-6.5.1/bin/xtb --gfn 1 /lustre/hpc/kemi/ree/PhD/git/ReactivityQM/calculations/R02methylcation/reac01prodE05/conf14/R02methylcation_reac01prodE05_conf14_gfn1.xyz --opt --vfukui --chrg -2 --uhf 0 --alpb DMSO

   ID    Z sym.   atoms
    1    6 C      1, 3, 5, 6, 8, 11-14, 16, 18, 21, 22, 25
    2    8 O      2, 4, 7, 9, 17, 23
    3    7 N      10, 15, 19, 20, 24
    4    1 H      26-42

      * Solvation model:               ALPB
        Solvent                        DMSO
        Solvent mass                       7.8130E+01 g/mol
          :  Hamiltonian                  GFN1-xTB          :
 * total energy  :   -83.5568377 Eh     change       -0.2198377E-08 Eh
 * total energy  :   -83.5693533 Eh     change       -0.1251553E-01 Eh
 * total energy  :   -83.5747140 Eh     change       -0.5360735E-02 Eh
 * total energy  :   -83.5760064 Eh     change       -0.1292379E-02 Eh
 * total energy  :   -83.5767569 Eh     change       -0.7504960E-03 Eh
 * total energy  :   -83.5770861 Eh     change       -0.3292166E-03 Eh
 * total energy  :   -83.5773377 Eh     change       -0.2515662E-03 Eh
 * total energy  :   -83.5775458 Eh     change       -0.2081362E-03 Eh
 * total energy  :   -83.5777425 Eh     change       -0.1966922E-03 Eh
 * total energy  :   -83.5779245 Eh     change       -0.1819968E-03 Eh
 * total energy  :   -83.5886040 Eh     change       -0.2644063E-04 Eh
 * total energy  :   -83.5886207 Eh     change       -0.1671420E-04 Eh
 * total energy  :   -83.5886370 Eh     change       -0.1629360E-04 Eh
 * total energy  :   -83.5886322 Eh     change        0.4800487E-05 Eh
 * total energy  :   -83.5886439 Eh     change       -0.1176645E-04 Eh
 * total energy  :   -83.5886550 Eh     change       -0.1104143E-04 Eh
 * total energy  :   -83.5886611 Eh     change       -0.6119969E-05 Eh
 * total energy  :   -83.5886694 Eh     change       -0.8353533E-05 Eh
 * total energy  :   -83.5886742 Eh     change       -0.4782118E-05 Eh
   *** GEOMETRY OPTIMIZATION CONVERGED AFTER 89 ITERATIONS ***

 final structure:
================
42
 xtb: 6.5.1 (579679a)
C           -1.10709450864497        2.90712357349973        1.41499281997515
O           -1.31607950258354        1.74749618615942        0.63533532435948
C           -2.32078091972774        0.88718421388156        1.08888119183070
O           -2.95120623857619        1.19903846188987        2.10325940746081
C           -2.46177989729754       -0.26049161351428        0.26469289375590
C           -3.35307559542658       -1.32579505157949        0.52484007270031
O           -4.14386289174686       -1.41417872149901        1.49452770413055
C           -3.25525094523343       -2.49551987384405       -0.44660295569549
O           -4.18437751904553       -3.30843761918875       -0.64294849325907
N           -2.05467725623098       -2.66035028321321       -1.03963228192646
C           -1.07013635822968       -1.62098753705568       -1.22541631127062
C            0.22462525091899       -1.90084905620150       -0.42995608579703
C            0.00048603602464       -2.46952349667096        0.99078077967780
C            1.07942373068007       -2.88659687650695       -1.24712629437658
N            0.92396229029411       -0.61650463037343       -0.32452991447451
C            2.12696125396939       -0.41483264834803        0.22689361289745
O            2.88331280238303       -1.29290208583804        0.65580232593921
C            2.48182962156831        1.02128098526636        0.26543560368932
N            1.74550220492017        2.02461897605397       -0.13830388120879
N            2.45882027166389        3.16384956879261        0.11199264730198
C            3.57701167954360        2.79312858300768        0.64809176674422
C            4.68825735952935        3.66145337034901        1.10094541072523
O            3.66442957911306        1.45644279360488        0.77630426470636
N           -1.62418741849979       -0.31222900081031       -0.92645310084785
C           -2.33172196805438        0.22482754116930       -2.10233975353256
H           -0.90094088054477        2.65443697135938        2.46298589085889
H           -0.24465741153093        3.42861876918546        0.99522818174842
H           -1.98079911083302        3.57028060547905        1.38528347242181
H           -1.97858708644987       -3.46166107976870       -1.64657313966587
H           -0.56992789861772       -3.39563432021410        0.92095057804140
H            0.95280974742085       -2.68277409287820        1.47655936299217
H           -0.55644088613165       -1.75406470390326        1.59800537475560
H            0.53691105088146       -3.82484994467890       -1.35564785800447
H            1.25575777238441       -2.47344401655498       -2.24012026865606
H            2.03716766211765       -3.09025630006242       -0.76858829245945
H            0.36417362050031        0.19544153461814       -0.59376223386352
H            4.91880959184738        3.46306870650583        2.14718848476663
H            4.40618466574461        4.70454264433861        0.98220249287777
H            5.58504870358723        3.46222218395994        0.51467758348147
H           -1.66808318769676        0.14747658580681       -2.96548423689074
H           -3.25910002368932       -0.32634381260725       -2.31929491069986
H           -2.57871839029061        1.27569651039612       -1.93151623522207

          :  Hamiltonian                  GFN1-xTB          :
         :: total energy             -83.588674225782 Eh    ::
         :: gradient norm              0.000431527667 Eh/a0 ::
         :: HOMO-LUMO gap              0.123246740317 eV    ::
         :: SCC energy               -84.307451471018 Eh    ::
         :: -> Gsolv                  -0.277021398620 Eh    ::
         :: repulsion energy           0.748009688965 Eh    ::

    * Orbital Energies and Occupations

         #    Occupation            Energy/Eh            Energy/eV
      -------------------------------------------------------------
         1        2.0000           -0.8329319             -22.6652
       ...           ...                  ...                  ...
        56        2.0000           -0.4377141             -11.9108
        57        2.0000           -0.4343084             -11.8181
        58        2.0000           -0.4296007             -11.6900
        59        2.0000           -0.4274228             -11.6308
        60        2.0000           -0.4140816             -11.2677
        61        2.0000           -0.4123738             -11.2213
        62        2.0000           -0.4035212             -10.9804
        63        2.0000           -0.4004184             -10.8959
        64        2.0000           -0.3811874             -10.3726
        65        2.0000           -0.3560353              -9.6882
        66        2.0000           -0.3370564              -9.1718
        67        2.0000           -0.3215901              -8.7509
        68        1.8312           -0.2811167              -7.6496 (HOMO)
        69        0.1688           -0.2765874              -7.5263 (LUMO)
        70                         -0.2324315              -6.3248
        71                         -0.2257677              -6.1435
        72                         -0.1617372              -4.4011
        73                         -0.1606056              -4.3703
        74                         -0.1333449              -3.6285
        75                         -0.1055872              -2.8732
        76                         -0.1001874              -2.7262
        77                         -0.0924646              -2.5161
        78                         -0.0853337              -2.3220
        79                         -0.0794065              -2.1608
       ...                                ...                  ...
       134                          0.7700052              20.9529
      -------------------------------------------------------------
                  HL-Gap            0.0045292 Eh            0.1232 eV

Wiberg/Mayer (AO) data.
largest (>0.10) Wiberg bond orders for each atom

     #   Z sym  total        # sym  WBO       # sym  WBO       # sym  WBO
 ---------------------------------------------------------------------------
     1   6 C    3.916 --    27 H    0.985    28 H    0.981    26 H    0.980
                             2 O    0.946
     2   8 O    2.103 --     3 C    0.958     1 C    0.946
     3   6 C    3.853 --     4 O    1.518     5 C    1.247     2 O    0.958
     4   8 O    1.817 --     3 C    1.518
     5   6 C    3.888 --     6 C    1.307     3 C    1.247    24 N    0.966
                             7 O    0.127
     6   6 C    3.932 --     7 O    1.486     5 C    1.307     8 C    0.950
     7   8 O    1.782 --     6 C    1.486     5 C    0.127
     8   6 C    3.883 --     9 O    1.476    10 N    1.271     6 C    0.950
     9   8 O    1.753 --     8 C    1.476    10 N    0.154
    10   7 N    3.376 --     8 C    1.271    11 C    0.943    29 H    0.918
                             9 O    0.154
    11   6 C    3.205 --    24 N    0.966    12 C    0.956    10 N    0.943
    12   6 C    3.900 --    14 C    0.988    13 C    0.976    11 C    0.956
                            15 N    0.913
    13   6 C    3.987 --    30 H    0.986    31 H    0.985    32 H    0.985
                            12 C    0.976
    14   6 C    3.992 --    12 C    0.988    34 H    0.987    33 H    0.987
                            35 H    0.984
    15   7 N    3.357 --    16 C    1.292    12 C    0.913    36 H    0.880
                            17 O    0.177
    16   6 C    3.884 --    17 O    1.505    15 N    1.292    18 C    1.012
    17   8 O    1.808 --    16 C    1.505    15 N    0.177
    18   6 C    3.791 --    19 N    1.558    23 O    1.030    16 C    1.012
    19   7 N    2.930 --    18 C    1.558    20 N    1.184
    20   7 N    2.982 --    21 C    1.623    19 N    1.184
    21   6 C    3.857 --    20 N    1.623    23 O    1.071    22 C    1.027
    22   6 C    3.991 --    21 C    1.027    38 H    0.984    37 H    0.969
                            39 H    0.967
    23   8 O    2.273 --    21 C    1.071    18 C    1.030
    24   7 N    3.088 --    25 C    0.972    11 C    0.966     5 C    0.966
    25   6 C    3.985 --    40 H    0.989    42 H    0.988    41 H    0.981
                            24 N    0.972
    26   1 H    1.020 --     1 C    0.980
    27   1 H    1.031 --     1 C    0.985
    28   1 H    1.019 --     1 C    0.981
    29   1 H    0.984 --    10 N    0.918
    30   1 H    1.014 --    13 C    0.986
    31   1 H    1.014 --    13 C    0.985
    32   1 H    1.019 --    13 C    0.985
    33   1 H    1.010 --    14 C    0.987
    34   1 H    1.023 --    14 C    0.987
    35   1 H    1.017 --    14 C    0.984
    36   1 H    0.999 --    15 N    0.880
    37   1 H    0.999 --    22 C    0.969
    38   1 H    1.001 --    22 C    0.984
    39   1 H    0.999 --    22 C    0.967
    40   1 H    1.037 --    25 C    0.989
    41   1 H    1.013 --    25 C    0.981
    42   1 H    1.025 --    25 C    0.988
 ---------------------------------------------------------------------------

           -------------------------------------------------
          | TOTAL ENERGY              -83.588674225782 Eh   |
          | GRADIENT NORM               0.000431527667 Eh/α |
          | HOMO-LUMO GAP               0.123246740317 eV   |
           -------------------------------------------------

 * finished run on 2023/06/21 at 17:12:39.009
