                         Program Version 5.0.1 -  RELEASE  -
|  1> # ORCA input file
|  2> ! SP r2SCAN-3c CPCM
|  3>
|  4> %maxcore 1875.0
|  5> %pal nprocs 4 end
|  6> %cpcm smd true SMDsolvent "DMSO" end
|  7>
|  8> *xyz -1 1
|  9> C      -2.877160    3.096849    2.541812
| 10> O      -2.473570    1.737259    2.554701
| 11> C      -1.869028    1.257918    1.387038
| 12> C      -0.778064    1.777433    0.797973
| 13> O      -0.155114    2.904311    1.267259
| 14> C      -0.181129    1.099149   -0.342476
| 15> C       0.952743    1.593015   -0.975816
| 16> O       1.530012    2.688624   -0.677897
| 17> N       1.428897    0.840684   -2.085400
| 18> C       2.846561    0.989666   -2.394216
| 19> C       3.706932    0.349544   -1.324833
| 20> C       4.169672    1.103138   -0.247220
| 21> C       4.920020    0.515060    0.761029
| 22> C       5.193296   -0.837459    0.669714
| 23> F       5.925048   -1.417256    1.643260
| 24> C       4.751680   -1.618661   -0.381801
| 25> C       4.001329   -1.011547   -1.380251
| 26> N      -0.698085   -0.149381   -0.683080
| 27> C      -1.752429   -0.609686   -0.127090
| 28> C      -2.189411   -2.014866   -0.526644
| 29> C      -2.789281   -1.976210   -1.940662
| 30> C      -0.955517   -2.937965   -0.523324
| 31> N      -3.199547   -2.530412    0.395537
| 32> N      -2.525734    0.070627    0.873763
| 33> C      -3.906114    0.372045    0.442175
| 34> H      -3.483200    3.259428    3.436466
| 35> H      -3.482277    3.327901    1.655664
| 36> H      -2.015053    3.776087    2.566719
| 37> H       0.598658    3.068257    0.612428
| 38> H       1.153580   -0.136421   -2.014878
| 39> H       3.034304    0.516477   -3.362956
| 40> H       3.072425    2.058210   -2.475061
| 41> H       3.938136    2.161613   -0.196820
| 42> H       5.291448    1.090227    1.599453
| 43> H       4.990771   -2.673281   -0.417963
| 44> H       3.648067   -1.607541   -2.214153
| 45> H      -3.703315   -1.383057   -1.949026
| 46> H      -2.073637   -1.529385   -2.630394
| 47> H      -3.025952   -2.983871   -2.281739
| 48> H      -0.555295   -3.022963    0.486660
| 49> H      -0.184463   -2.524343   -1.173400
| 50> H      -1.225761   -3.932102   -0.876952
| 51> H      -3.498451   -3.441650    0.078889
| 52> H      -2.788611   -2.647247    1.314405
| 53> H      -4.435436    0.832420    1.276984
| 54> H      -3.919091    1.054511   -0.416213
| 55> H      -4.412854   -0.555152    0.179168
| 56> **                         ****END OF INPUT****

CARTESIAN COORDINATES (ANGSTROEM)
---------------------------------
  C     -2.877160    3.096849    2.541812
  O     -2.473570    1.737259    2.554701
  C     -1.869028    1.257918    1.387038
  C     -0.778064    1.777433    0.797973
  O     -0.155114    2.904311    1.267259
  C     -0.181129    1.099149   -0.342476
  C      0.952743    1.593015   -0.975816
  O      1.530012    2.688624   -0.677897
  N      1.428897    0.840684   -2.085400
  C      2.846561    0.989666   -2.394216
  C      3.706932    0.349544   -1.324833
  C      4.169672    1.103138   -0.247220
  C      4.920020    0.515060    0.761029
  C      5.193296   -0.837459    0.669714
  F      5.925048   -1.417256    1.643260
  C      4.751680   -1.618661   -0.381801
  C      4.001329   -1.011547   -1.380251
  N     -0.698085   -0.149381   -0.683080
  C     -1.752429   -0.609686   -0.127090
  C     -2.189411   -2.014866   -0.526644
  C     -2.789281   -1.976210   -1.940662
  C     -0.955517   -2.937965   -0.523324
  N     -3.199547   -2.530412    0.395537
  N     -2.525734    0.070627    0.873763
  C     -3.906114    0.372045    0.442175
  H     -3.483200    3.259428    3.436466
  H     -3.482277    3.327901    1.655664
  H     -2.015053    3.776087    2.566719
  H      0.598658    3.068257    0.612428
  H      1.153580   -0.136421   -2.014878
  H      3.034304    0.516477   -3.362956
  H      3.072425    2.058210   -2.475061
  H      3.938136    2.161613   -0.196820
  H      5.291448    1.090227    1.599453
  H      4.990771   -2.673281   -0.417963
  H      3.648067   -1.607541   -2.214153
  H     -3.703315   -1.383057   -1.949026
  H     -2.073637   -1.529385   -2.630394
  H     -3.025952   -2.983871   -2.281739
  H     -0.555295   -3.022963    0.486660
  H     -0.184463   -2.524343   -1.173400
  H     -1.225761   -3.932102   -0.876952
  H     -3.498451   -3.441650    0.078889
  H     -2.788611   -2.647247    1.314405
  H     -4.435436    0.832420    1.276984
  H     -3.919091    1.054511   -0.416213
  H     -4.412854   -0.555152    0.179168

 Total Charge           Charge          ....   -1
 Multiplicity           Mult            ....    1
 Number of Electrons    NEL             ....  186
 Basis Dimension        Dim             ....  625

ORBITAL ENERGIES
----------------

  NO   OCC          E(Eh)            E(eV)
   0   2.0000     -24.497530      -666.6117
   1   2.0000     -18.953238      -515.7438
   2   2.0000     -18.931590      -515.1547
   3   2.0000     -18.879979      -513.7504
   4   2.0000     -14.161281      -385.3480
   5   2.0000     -14.140559      -384.7842
   6   2.0000     -14.128712      -384.4618
   7   2.0000     -14.122591      -384.2952
   8   2.0000     -10.112641      -275.1790
   9   2.0000     -10.075531      -274.1691
  10   2.0000     -10.066917      -273.9347
  11   2.0000     -10.064550      -273.8703
  12   2.0000     -10.060311      -273.7550
  13   2.0000     -10.056460      -273.6502
  14   2.0000     -10.055566      -273.6259
  15   2.0000     -10.045798      -273.3601
  16   2.0000     -10.035927      -273.0915
  17   2.0000     -10.035370      -273.0763
  18   2.0000     -10.034905      -273.0636
  19   2.0000     -10.033712      -273.0312
  20   2.0000     -10.031866      -272.9809
  21   2.0000     -10.028751      -272.8962
  22   2.0000     -10.007121      -272.3076
  23   2.0000     -10.006039      -272.2782
  24   2.0000     -10.001997      -272.1682
  25   2.0000      -1.187027       -32.3007
  26   2.0000      -0.998114       -27.1601
  27   2.0000      -0.975672       -26.5494
  28   2.0000      -0.943472       -25.6732
  29   2.0000      -0.912144       -24.8207
  30   2.0000      -0.852597       -23.2004
  31   2.0000      -0.844676       -22.9848
  32   2.0000      -0.832223       -22.6459
  33   2.0000      -0.821828       -22.3631
  34   2.0000      -0.729744       -19.8574
  35   2.0000      -0.720705       -19.6114
  36   2.0000      -0.719336       -19.5741
  37   2.0000      -0.694608       -18.9012
  38   2.0000      -0.668274       -18.1847
  39   2.0000      -0.641822       -17.4649
  40   2.0000      -0.639309       -17.3965
  41   2.0000      -0.629975       -17.1425
  42   2.0000      -0.597417       -16.2566
  43   2.0000      -0.587582       -15.9889
  44   2.0000      -0.579620       -15.7723
  45   2.0000      -0.557946       -15.1825
  46   2.0000      -0.517842       -14.0912
  47   2.0000      -0.509063       -13.8523
  48   2.0000      -0.507591       -13.8123
  49   2.0000      -0.482932       -13.1412
  50   2.0000      -0.473261       -12.8781
  51   2.0000      -0.457277       -12.4431
  52   2.0000      -0.452199       -12.3050
  53   2.0000      -0.447324       -12.1723
  54   2.0000      -0.440923       -11.9981
  55   2.0000      -0.431174       -11.7328
  56   2.0000      -0.428691       -11.6653
  57   2.0000      -0.417375       -11.3574
  58   2.0000      -0.406473       -11.0607
  59   2.0000      -0.404483       -11.0065
  60   2.0000      -0.397599       -10.8192
  61   2.0000      -0.394738       -10.7414
  62   2.0000      -0.391618       -10.6565
  63   2.0000      -0.387518       -10.5449
  64   2.0000      -0.384480       -10.4622
  65   2.0000      -0.373988       -10.1767
  66   2.0000      -0.368093       -10.0163
  67   2.0000      -0.364344        -9.9143
  68   2.0000      -0.355328        -9.6690
  69   2.0000      -0.352652        -9.5961
  70   2.0000      -0.347200        -9.4478
  71   2.0000      -0.339652        -9.2424
  72   2.0000      -0.338509        -9.2113
  73   2.0000      -0.328010        -8.9256
  74   2.0000      -0.327220        -8.9041
  75   2.0000      -0.322632        -8.7793
  76   2.0000      -0.318531        -8.6677
  77   2.0000      -0.309279        -8.4159
  78   2.0000      -0.307008        -8.3541
  79   2.0000      -0.305529        -8.3139
  80   2.0000      -0.301358        -8.2004
  81   2.0000      -0.292461        -7.9583
  82   2.0000      -0.282587        -7.6896
  83   2.0000      -0.245658        -6.6847
  84   2.0000      -0.241575        -6.5736
  85   2.0000      -0.228443        -6.2163
  86   2.0000      -0.224861        -6.1188
  87   2.0000      -0.214682        -5.8418
  88   2.0000      -0.201067        -5.4713
  89   2.0000      -0.198804        -5.4097
  90   2.0000      -0.188485        -5.1289
  91   2.0000      -0.178334        -4.8527
  92   2.0000      -0.097294        -2.6475
  93   0.0000      -0.036317        -0.9882
  94   0.0000      -0.023034        -0.6268
  95   0.0000      -0.007050        -0.1918
  96   0.0000       0.031526         0.8579
  97   0.0000       0.053644         1.4597

MULLIKEN ATOMIC CHARGES
-----------------------
   0 C :   -0.330306
   1 O :   -0.188416
   2 C :   -0.286518
   3 C :    0.054805
   4 O :   -0.435288
   5 C :   -0.182809
   6 C :    0.042579
   7 O :   -0.569524
   8 N :   -0.250428
   9 C :   -0.351152
  10 C :    0.087654
  11 C :   -0.188967
  12 C :   -0.323061
  13 C :    0.359917
  14 F :   -0.243944
  15 C :   -0.302567
  16 C :   -0.216114
  17 N :   -0.234866
  18 C :    0.205008
  19 C :    0.175869
  20 C :   -0.601834
  21 C :   -0.591119
  22 N :   -0.644417
  23 N :    0.066584
  24 C :   -0.456422
  25 H :    0.154383
  26 H :    0.149751
  27 H :    0.165878
  28 H :    0.382247
  29 H :    0.298336
  30 H :    0.173622
  31 H :    0.195705
  32 H :    0.204820
  33 H :    0.193837
  34 H :    0.193717
  35 H :    0.187176
  36 H :    0.173317
  37 H :    0.178685
  38 H :    0.169921
  39 H :    0.167763
  40 H :    0.168998
  41 H :    0.165843
  42 H :    0.278678
  43 H :    0.274709
  44 H :    0.174955
  45 H :    0.161745
  46 H :    0.191246
Sum of atomic charges:   -1.0000000

LOEWDIN ATOMIC CHARGES
----------------------
   0 C :   -0.066121
   1 O :   -0.671529
   2 C :    0.279780
   3 C :    0.220974
   4 O :   -0.554796
   5 C :    0.066903
   6 C :    0.309555
   7 O :   -0.655526
   8 N :   -0.699930
   9 C :   -0.033853
  10 C :   -0.084717
  11 C :   -0.144728
  12 C :   -0.167764
  13 C :    0.193453
  14 F :   -0.304418
  15 C :   -0.167539
  16 C :   -0.152322
  17 N :   -0.639936
  18 C :    0.316105
  19 C :    0.057730
  20 C :   -0.367341
  21 C :   -0.378442
  22 N :   -0.714068
  23 N :   -0.765491
  24 C :   -0.137848
  25 H :    0.172238
  26 H :    0.163334
  27 H :    0.170671
  28 H :    0.308352
  29 H :    0.278850
  30 H :    0.187251
  31 H :    0.198909
  32 H :    0.193216
  33 H :    0.191739
  34 H :    0.191973
  35 H :    0.184831
  36 H :    0.165948
  37 H :    0.167426
  38 H :    0.160114
  39 H :    0.162973
  40 H :    0.166896
  41 H :    0.156709
  42 H :    0.251833
  43 H :    0.251622
  44 H :    0.183381
  45 H :    0.161445
  46 H :    0.192156

  Mayer bond orders larger than 0.100000
B(  0-C ,  1-O ) :   0.8412 B(  0-C , 25-H ) :   0.9696 B(  0-C , 26-H ) :   0.9613
B(  0-C , 27-H ) :   0.9624 B(  1-O ,  2-C ) :   1.2290 B(  1-O ,  3-C ) :  -0.1174
B(  2-C ,  3-C ) :   1.5748 B(  2-C ,  4-O ) :   0.1220 B(  2-C , 23-N ) :   1.1068
B(  3-C ,  4-O ) :   1.0680 B(  3-C ,  5-C ) :   0.8870 B(  4-O , 28-H ) :   0.6882
B(  5-C ,  6-C ) :   1.3218 B(  5-C , 17-N ) :   1.0383 B(  6-C ,  7-O ) :   1.5888
B(  6-C ,  8-N ) :   1.1067 B(  7-O ,  9-C ) :   0.1379 B(  7-O , 28-H ) :   0.1636
B(  8-N ,  9-C ) :   0.8799 B(  8-N , 29-H ) :   0.8678 B(  9-C , 10-C ) :   0.7886
B(  9-C , 30-H ) :   0.9869 B(  9-C , 31-H ) :   1.0051 B( 10-C , 11-C ) :   1.4069
B( 10-C , 16-C ) :   1.3922 B( 11-C , 12-C ) :   1.3755 B( 11-C , 32-H ) :   0.9348
B( 12-C , 13-C ) :   1.3922 B( 12-C , 33-H ) :   0.9376 B( 13-C , 14-F ) :   0.8749
B( 13-C , 15-C ) :   1.4030 B( 15-C , 16-C ) :   1.3702 B( 15-C , 34-H ) :   0.9379
B( 16-C , 35-H ) :   0.9445 B( 17-N , 18-C ) :   1.6555 B( 18-C , 19-C ) :   0.8777
B( 18-C , 22-N ) :  -0.1192 B( 18-C , 23-N ) :   1.0479 B( 19-C , 20-C ) :   0.9056
B( 19-C , 21-C ) :   0.9483 B( 19-C , 22-N ) :   0.9366 B( 20-C , 36-H ) :   0.9689
B( 20-C , 37-H ) :   0.9807 B( 20-C , 38-H ) :   0.9646 B( 21-C , 39-H ) :   0.9760
B( 21-C , 40-H ) :   0.9760 B( 21-C , 41-H ) :   0.9723 B( 22-N , 42-H ) :   0.9147
B( 22-N , 43-H ) :   0.9116 B( 23-N , 24-C ) :   0.8554 B( 24-C , 44-H ) :   0.9634
B( 24-C , 45-H ) :   0.9555 B( 24-C , 46-H ) :   0.9465

Dispersion correction           -0.021915550
FINAL SINGLE POINT ENERGY     -1205.446544924576

DIPOLE MOMENT
-------------
                                X             Y             Z
Electronic contribution:     27.65159       4.82206       7.57119
Nuclear contribution   :    -27.47756      -7.74380      -8.48070
                        -----------------------------------------
Total Dipole Moment    :      0.17403      -2.92174      -0.90951
                        -----------------------------------------
Magnitude (a.u.)       :      3.06497
Magnitude (Debye)      :      7.79053

Rotational constants in cm-1:     0.010117     0.004352     0.003749
Rotational constants in MHz :   303.288971   130.456480   112.392726

                             ****ORCA TERMINATED NORMALLY****
TOTAL RUN TIME: 0 days 0 hours 2 minutes 59 seconds 956 msec
