   * xtb version 6.5.1 (579679a) compiled by 'ehlert@majestix' on 2022-07-11
          program call               : /lustre/hpc/kemi/ree/PhD/git/ReactivityQM/dep/xtb-6.5.1/bin/xtb --gfn 1 /lustre/hpc/kemi/ree/PhD/git/ReactivityQM/calculations/RaltegravirCLI/reac02prodE12/conf13/RaltegravirCLI_reac02prodE12_conf13_gfn1.xyz --opt --vfukui --chrg -1 --uhf 0 --alpb DMSO

   ID    Z sym.   atoms
    1    6 C      1, 3, 4, 6, 7, 10-14, 16, 17, 19-22, 25
    2    8 O      2, 5, 8
    3    7 N      9, 18, 23, 24
    4    9 F      15
    5    1 H      26-47

      * Solvation model:               ALPB
        Solvent                        DMSO
        Solvent mass                       7.8130E+01 g/mol
          :  Hamiltonian                  GFN1-xTB          :
 * total energy  :   -80.1588331 Eh     change       -0.4277467E-11 Eh
 * total energy  :   -80.1745626 Eh     change       -0.1572943E-01 Eh
 * total energy  :   -80.1796863 Eh     change       -0.5123773E-02 Eh
 * total energy  :   -80.1807098 Eh     change       -0.1023457E-02 Eh
 * total energy  :   -80.1815640 Eh     change       -0.8541773E-03 Eh
 * total energy  :   -80.1819108 Eh     change       -0.3467802E-03 Eh
 * total energy  :   -80.1822990 Eh     change       -0.3882889E-03 Eh
 * total energy  :   -80.1827153 Eh     change       -0.4163003E-03 Eh
 * total energy  :   -80.1830439 Eh     change       -0.3285439E-03 Eh
 * total energy  :   -80.1832329 Eh     change       -0.1890545E-03 Eh
 * total energy  :   -80.1880318 Eh     change       -0.1021761E-04 Eh
 * total energy  :   -80.1880479 Eh     change       -0.1602538E-04 Eh
 * total energy  :   -80.1880740 Eh     change       -0.2611178E-04 Eh
 * total energy  :   -80.1880976 Eh     change       -0.2362644E-04 Eh
 * total energy  :   -80.1881146 Eh     change       -0.1702219E-04 Eh
 * total energy  :   -80.1881310 Eh     change       -0.1633643E-04 Eh
 * total energy  :   -80.1881456 Eh     change       -0.1463919E-04 Eh
 * total energy  :   -80.1881533 Eh     change       -0.7644909E-05 Eh
 * total energy  :   -80.1881557 Eh     change       -0.2485065E-05 Eh
   *** GEOMETRY OPTIMIZATION CONVERGED AFTER 65 ITERATIONS ***

 final structure:
================
47
 xtb: 6.5.1 (579679a)
C           -2.87715962961671        3.09684934050078        2.54181164171077
O           -2.47356986026592        1.73725931665473        2.55470070218716
C           -1.86902849548791        1.25791834327290        1.38703800815187
C           -0.77806371711576        1.77743338428337        0.79797253520471
O           -0.15511444439667        2.90431059581472        1.26725926879808
C           -0.18112857168417        1.09914889059583       -0.34247596232807
C            0.95274328253076        1.59301547135051       -0.97581584881003
O            1.53001194866583        2.68862417776361       -0.67789737735023
N            1.42889714682873        0.84068423405684       -2.08540035508243
C            2.84656127638226        0.98966641976153       -2.39421647705387
C            3.70693242431983        0.34954353685011       -1.32483304468045
C            4.16967234119232        1.10313767924902       -0.24721981153587
C            4.92001971780554        0.51506031206066        0.76102881997780
C            5.19329555386532       -0.83745931347481        0.66971394492562
F            5.92504777065225       -1.41725617386386        1.64325959476352
C            4.75167999755007       -1.61866115752150       -0.38180137333319
C            4.00132936348921       -1.01154660436396       -1.38025096160666
N           -0.69808482968992       -0.14938095222493       -0.68307995567894
C           -1.75242917288673       -0.60968631040087       -0.12708954439573
C           -2.18941100926211       -2.01486553234236       -0.52664416789659
C           -2.78928144526566       -1.97621022356159       -1.94066199883398
C           -0.95551695015242       -2.93796465454378       -0.52332427288832
N           -3.19954682393456       -2.53041212001471        0.39553724000875
N           -2.52573422487282        0.07062741651435        0.87376277544684
C           -3.90611388345436        0.37204479565929        0.44217481199956
H           -3.48319951215986        3.25942774929783        3.43646639504960
H           -3.48227736194271        3.32790093795739        1.65566410403792
H           -2.01505323571480        3.77608732157880        2.56671933853782
H            0.59865795066152        3.06825749236347        0.61242847631873
H            1.15357954855699       -0.13642086011150       -2.01487750929570
H            3.03430367832512        0.51647745084480       -3.36295584096509
H            3.07242462974627        2.05821009909717       -2.47506106412522
H            3.93813559272839        2.16161291193644       -0.19682026432392
H            5.29144784213562        1.09022682218569        1.59945326255446
H            4.99077132167097       -2.67328070262573       -0.41796253277153
H            3.64806707247947       -1.60754057667404       -2.21415265211512
H           -3.70331495635620       -1.38305662476010       -1.94902631132641
H           -2.07363721815420       -1.52938531102563       -2.63039438554745
H           -3.02595232621824       -2.98387072540980       -2.28173935499929
H           -0.55529512879412       -3.02296305706275        0.48666032942126
H           -0.18446315464336       -2.52434287275592       -1.17340038678883
H           -1.22576114819022       -3.93210208920261       -0.87695170625593
H           -3.49845079782622       -3.44165025725381        0.07888893286746
H           -2.78861134003142       -2.64724650134536        1.31440493072922
H           -4.43543591495735        0.83242029601905        1.27698421914486
H           -3.91909054531029        1.05451059619083       -0.41621304070986
H           -4.41285376121648       -0.55515197131918        0.17916786885485

          :  Hamiltonian                  GFN1-xTB          :
         :: total energy             -80.188155736916 Eh    ::
         :: gradient norm              0.000626860498 Eh/a0 ::
         :: HOMO-LUMO gap              1.087203849383 eV    ::
         :: SCC energy               -81.036227001959 Eh    ::
         :: -> Gsolv                  -0.099286647741 Eh    ::
         :: repulsion energy           0.878830996564 Eh    ::

    * Orbital Energies and Occupations

         #    Occupation            Energy/Eh            Energy/eV
      -------------------------------------------------------------
         1        2.0000           -0.8506558             -23.1475
       ...           ...                  ...                  ...
        56        2.0000           -0.4557056             -12.4004
        57        2.0000           -0.4541247             -12.3574
        58        2.0000           -0.4441934             -12.0871
        59        2.0000           -0.4348791             -11.8337
        60        2.0000           -0.4329321             -11.7807
        61        2.0000           -0.4209008             -11.4533
        62        2.0000           -0.3984070             -10.8412
        63        2.0000           -0.3980262             -10.8308
        64        2.0000           -0.3874707             -10.5436
        65        2.0000           -0.3823805             -10.4051
        66        2.0000           -0.3703826             -10.0786
        67        2.0000           -0.3663353              -9.9685
        68        2.0000           -0.2968319              -8.0772 (HOMO)
        69                         -0.2568779              -6.9900 (LUMO)
        70                         -0.2485674              -6.7639
        71                         -0.2176951              -5.9238
        72                         -0.1856446              -5.0516
        73                         -0.1285882              -3.4991
        74                         -0.1158226              -3.1517
        75                         -0.1079605              -2.9378
        76                         -0.1052914              -2.8651
        77                         -0.1017854              -2.7697
        78                         -0.0977570              -2.6601
        79                         -0.0897636              -2.4426
       ...                                ...                  ...
       144                          0.6887077              18.7407
      -------------------------------------------------------------
                  HL-Gap            0.0399540 Eh            1.0872 eV

Wiberg/Mayer (AO) data.
largest (>0.10) Wiberg bond orders for each atom

     #   Z sym  total        # sym  WBO       # sym  WBO       # sym  WBO
 ---------------------------------------------------------------------------
     1   6 C    3.918 --    26 H    0.986    27 H    0.982    28 H    0.980
                             2 O    0.940
     2   8 O    2.026 --     3 C    0.941     1 C    0.940
     3   6 C    3.825 --     4 C    1.649    24 N    0.960     2 O    0.941
     4   6 C    3.914 --     3 C    1.649     6 C    1.085     5 O    1.031
     5   8 O    1.979 --     4 C    1.031    29 H    0.752
     6   6 C    3.869 --     7 C    1.370    18 N    1.098     4 C    1.085
                             8 O    0.105
     7   6 C    3.918 --     6 C    1.370     8 O    1.347     9 N    1.028
     8   8 O    1.807 --     7 C    1.347    29 H    0.124     6 C    0.105
     9   7 N    3.132 --     7 C    1.028    10 C    0.966    30 H    0.929
    10   6 C    3.973 --    11 C    0.995    31 H    0.978    32 H    0.975
                             9 N    0.966
    11   6 C    3.985 --    17 C    1.417    12 C    1.412    10 C    0.995
    12   6 C    3.992 --    13 C    1.444    11 C    1.412    33 H    0.968
                            16 C    0.110
    13   6 C    3.992 --    12 C    1.444    14 C    1.401    34 H    0.971
                            17 C    0.109
    14   6 C    3.855 --    16 C    1.404    13 C    1.401    15 F    0.912
    15   9 F    1.036 --    14 C    0.912
    16   6 C    3.992 --    17 C    1.441    14 C    1.404    35 H    0.971
                            12 C    0.110
    17   6 C    3.994 --    16 C    1.441    11 C    1.417    36 H    0.973
                            13 C    0.109
    18   7 N    3.065 --    19 C    1.712     6 C    1.098
    19   6 C    3.943 --    18 N    1.712    24 N    0.996    20 C    0.976
    20   6 C    3.963 --    21 C    0.988    22 C    0.983    23 N    0.982
                            19 C    0.976
    21   6 C    3.996 --    20 C    0.988    38 H    0.986    39 H    0.986
                            37 H    0.985
    22   6 C    3.996 --    42 H    0.987    40 H    0.986    20 C    0.983
                            41 H    0.982
    23   7 N    2.982 --    20 C    0.982    43 H    0.951    44 H    0.948
    24   7 N    3.126 --    19 C    0.996     3 C    0.960    25 C    0.947
    25   6 C    3.970 --    45 H    0.986    46 H    0.984    47 H    0.980
                            24 N    0.947
    26   1 H    1.020 --     1 C    0.986
    27   1 H    1.015 --     1 C    0.982
    28   1 H    1.028 --     1 C    0.980
    29   1 H    0.890 --     5 O    0.752     8 O    0.124
    30   1 H    0.991 --     9 N    0.929
    31   1 H    1.012 --    10 C    0.978
    32   1 H    1.022 --    10 C    0.975
    33   1 H    1.020 --    12 C    0.968
    34   1 H    1.000 --    13 C    0.971
    35   1 H    1.000 --    16 C    0.971
    36   1 H    1.001 --    17 C    0.973
    37   1 H    1.011 --    21 C    0.985
    38   1 H    1.013 --    21 C    0.986
    39   1 H    1.003 --    21 C    0.986
    40   1 H    1.010 --    22 C    0.986
    41   1 H    1.023 --    22 C    0.982
    42   1 H    1.006 --    22 C    0.987
    43   1 H    0.966 --    23 N    0.951
    44   1 H    0.971 --    23 N    0.948
    45   1 H    1.021 --    25 C    0.986
    46   1 H    1.012 --    25 C    0.984
    47   1 H    1.038 --    25 C    0.980
 ---------------------------------------------------------------------------

           -------------------------------------------------
          | TOTAL ENERGY              -80.188155736916 Eh   |
          | GRADIENT NORM               0.000626860498 Eh/α |
          | HOMO-LUMO GAP               1.087203849383 eV   |
           -------------------------------------------------

 * finished run on 2023/06/20 at 15:13:50.061
