   * xtb version 6.5.1 (579679a) compiled by 'ehlert@majestix' on 2022-07-11
          program call               : /lustre/hpc/kemi/ree/PhD/git/ReactivityQM/dep/xtb-6.5.1/bin/xtb --gfn 1 /lustre/hpc/kemi/ree/PhD/git/ReactivityQM/calculations/R02oxygendeprot/reac01prodN04/conf14/R02oxygendeprot_reac01prodN04_conf14_gfn1.xyz --opt --vfukui --chrg 0 --uhf 0 --alpb DMSO

   ID    Z sym.   atoms
    1    6 C      1, 3, 5, 6, 8-11, 13, 15, 18, 19, 22, 24
    2    8 O      2, 4, 14, 20, 23, 25
    3    7 N      7, 12, 16, 17, 21
    4    1 H      26-42

      * Solvation model:               ALPB
        Solvent                        DMSO
        Solvent mass                       7.8130E+01 g/mol
          :  Hamiltonian                  GFN1-xTB          :
 * total energy  :   -82.9650597 Eh     change       -0.1088551E-10 Eh
 * total energy  :   -82.9815303 Eh     change       -0.1647055E-01 Eh
 * total energy  :   -82.9875705 Eh     change       -0.6040210E-02 Eh
 * total energy  :   -82.9893934 Eh     change       -0.1822905E-02 Eh
 * total energy  :   -82.9905691 Eh     change       -0.1175741E-02 Eh
 * total energy  :   -82.9912463 Eh     change       -0.6771824E-03 Eh
 * total energy  :   -82.9917985 Eh     change       -0.5521593E-03 Eh
 * total energy  :   -82.9922412 Eh     change       -0.4427216E-03 Eh
 * total energy  :   -82.9925244 Eh     change       -0.2832155E-03 Eh
 * total energy  :   -82.9927087 Eh     change       -0.1843200E-03 Eh
 * total energy  :   -83.0005576 Eh     change       -0.4159271E-04 Eh
 * total energy  :   -83.0005944 Eh     change       -0.3683016E-04 Eh
 * total energy  :   -83.0006128 Eh     change       -0.1835777E-04 Eh
 * total energy  :   -83.0006250 Eh     change       -0.1219799E-04 Eh
 * total energy  :   -83.0006432 Eh     change       -0.1818513E-04 Eh
 * total energy  :   -83.0006524 Eh     change       -0.9232154E-05 Eh
 * total energy  :   -83.0006602 Eh     change       -0.7746713E-05 Eh
 * total energy  :   -83.0006670 Eh     change       -0.6844058E-05 Eh
 * total energy  :   -83.0006704 Eh     change       -0.3429959E-05 Eh
   *** GEOMETRY OPTIMIZATION CONVERGED AFTER 123 ITERATIONS ***

 final structure:
================
42
 xtb: 6.5.1 (579679a)
C           -6.03411248007618       -0.53028689356721        1.56748345706940
O           -4.76532823677002       -1.06249320578691        1.18306376771874
C           -3.84560252867379       -0.25593041366772        0.69383991508780
O           -4.23294719399947        1.00742188180698        0.63366504474894
C           -3.46011408613076        2.08577632822389        0.11018668994396
C           -2.61407216396552       -0.78966185894926        0.30396833656197
N           -1.65242052162477        0.09944849970007       -0.17173008645496
C           -0.50256160432348       -0.32570445204713       -0.53199015270654
C            0.55560720940177        0.61533172397264       -1.06803653149940
C            0.24802635933892        2.06602492252666       -0.69126029619451
C            0.65040744363289        0.45294732084348       -2.58825253660036
N            1.84748212206889        0.22433313224725       -0.49725347692835
C            2.01892088096817        0.11470794185982        0.83964384338171
O            1.11863025102349        0.17074753823140        1.66020870762769
C            3.43142961177865       -0.12313020017186        1.22293482460903
N            3.90751565711104       -0.33448268583540        2.41020409692269
N            5.25429125768442       -0.48859807082142        2.27216227679041
C            5.51786143628967       -0.36095813127573        1.00906315771125
C            6.83692148858353       -0.43055893847767        0.34412978240254
O            4.40750884311154       -0.13000183948922        0.28947693610698
N           -0.15675097942780       -1.65766019096814       -0.51194884259412
C           -0.97727504190688       -2.65766110073163       -0.06896164792339
O           -0.61135583624128       -3.81960308697651       -0.07171549181658
C           -2.34833032957974       -2.20593341661210        0.41235007042833
O           -3.13088096340650       -3.04516414172919        0.84508485542443
H           -5.91009141537759        0.21510408171335        2.35566607126961
H           -6.61782558891318       -1.37344525148121        1.93321144556350
H           -6.52849432606445       -0.07207285386632        0.70868732219346
H           -3.17512236042376        1.89009621580943       -0.92459618554124
H           -2.56412552882471        2.24603449346325        0.71183433264469
H           -4.10655923514990        2.96229677258772        0.16079446908680
H           -0.66716851671419        2.38435890855146       -1.18640986348092
H            1.06630434319582        2.70847316718245       -1.00992709616541
H            0.11925531766811        2.15480416527506        0.38696446832826
H           -0.30749844382753        0.69879018148288       -3.04373822757674
H            0.91133560502603       -0.57288452210784       -2.84320916319873
H            1.41220198297572        1.12085725479442       -2.98545021717048
H            2.65473456565557        0.27336842014325       -1.09409486875985
H            7.60538634286779       -0.66885196476029        1.07567400429016
H            7.06388090175215        0.52644428917952       -0.12559158175689
H            6.82116196972842       -1.19153753224843       -0.43540748088978
H            0.75977279152403       -1.92074448798267       -0.83916212864818

          :  Hamiltonian                  GFN1-xTB          :
         :: total energy             -83.000670431087 Eh    ::
         :: gradient norm              0.000524450526 Eh/a0 ::
         :: HOMO-LUMO gap              2.365917942160 eV    ::
         :: SCC energy               -83.781144364963 Eh    ::
         :: -> Gsolv                  -0.074054955875 Eh    ::
         :: repulsion energy           0.806932179331 Eh    ::

    * Orbital Energies and Occupations

         #    Occupation            Energy/Eh            Energy/eV
      -------------------------------------------------------------
         1        2.0000           -0.8649474             -23.5364
       ...           ...                  ...                  ...
        55        2.0000           -0.5062302             -13.7752
        56        2.0000           -0.5047076             -13.7338
        57        2.0000           -0.4992174             -13.5844
        58        2.0000           -0.4928030             -13.4099
        59        2.0000           -0.4800618             -13.0631
        60        2.0000           -0.4755064             -12.9392
        61        2.0000           -0.4674978             -12.7213
        62        2.0000           -0.4612842             -12.5522
        63        2.0000           -0.4530797             -12.3289
        64        2.0000           -0.4516749             -12.2907
        65        2.0000           -0.4447691             -12.1028
        66        2.0000           -0.4182192             -11.3803
        67        2.0000           -0.4118587             -11.2072 (HOMO)
        68                         -0.3249128              -8.8413 (LUMO)
        69                         -0.3112138              -8.4686
        70                         -0.2700917              -7.3496
        71                         -0.2561366              -6.9698
        72                         -0.2453730              -6.6769
        73                         -0.1986369              -5.4052
        74                         -0.1533104              -4.1718
        75                         -0.1512082              -4.1146
        76                         -0.1425803              -3.8798
        77                         -0.1409610              -3.8357
        78                         -0.1319237              -3.5898
       ...                                ...                  ...
       134                          0.7555901              20.5607
      -------------------------------------------------------------
                  HL-Gap            0.0869459 Eh            2.3659 eV

Wiberg/Mayer (AO) data.
largest (>0.10) Wiberg bond orders for each atom

     #   Z sym  total        # sym  WBO       # sym  WBO       # sym  WBO
 ---------------------------------------------------------------------------
     1   6 C    3.863 --    27 H    0.984    26 H    0.978    28 H    0.978
                             2 O    0.890
     2   8 O    2.236 --     3 C    1.150     1 C    0.890
     3   6 C    3.833 --     6 C    1.339     2 O    1.150     4 O    1.129
     4   8 O    2.221 --     3 C    1.129     5 C    0.883
     5   6 C    3.854 --    31 H    0.981    29 H    0.976    30 H    0.976
                             4 O    0.883
     6   6 C    3.924 --     3 C    1.339    24 C    1.164     7 N    1.106
     7   7 N    3.045 --     8 C    1.655     6 C    1.106
     8   6 C    3.932 --     7 N    1.655    21 N    1.105     9 C    0.976
     9   6 C    3.937 --    10 C    0.991    11 C    0.985     8 C    0.976
                            12 N    0.924
    10   6 C    3.990 --     9 C    0.991    33 H    0.985    32 H    0.983
                            34 H    0.981
    11   6 C    3.988 --     9 C    0.985    35 H    0.984    36 H    0.983
                            37 H    0.982
    12   7 N    3.339 --    13 C    1.247     9 C    0.924    38 H    0.891
                            14 O    0.174
    13   6 C    3.916 --    14 O    1.590    12 N    1.247    15 C    0.994
    14   8 O    1.892 --    13 C    1.590    12 N    0.174
    15   6 C    3.873 --    16 N    1.621    20 O    1.048    13 C    0.994
    16   7 N    3.000 --    15 C    1.621    17 N    1.199
    17   7 N    2.981 --    18 C    1.610    16 N    1.199
    18   6 C    3.868 --    17 N    1.610    20 O    1.073    19 C    1.032
    19   6 C    3.986 --    18 C    1.032    39 H    0.982    41 H    0.964
                            40 H    0.961
    20   8 O    2.317 --    18 C    1.073    15 C    1.048
    21   7 N    3.440 --    22 C    1.167     8 C    1.105    42 H    0.887
                            23 O    0.139
    22   6 C    3.884 --    23 O    1.631    21 N    1.167    24 C    0.940
    23   8 O    1.909 --    22 C    1.631    21 N    0.139
    24   6 C    3.919 --    25 O    1.631     6 C    1.164    22 C    0.940
    25   8 O    1.916 --    24 C    1.631
    26   1 H    1.006 --     1 C    0.978
    27   1 H    1.009 --     1 C    0.984
    28   1 H    1.005 --     1 C    0.978
    29   1 H    1.020 --     5 C    0.976
    30   1 H    1.020 --     5 C    0.976
    31   1 H    1.008 --     5 C    0.981
    32   1 H    1.006 --    10 C    0.983
    33   1 H    1.001 --    10 C    0.985
    34   1 H    1.009 --    10 C    0.981
    35   1 H    1.000 --    11 C    0.984
    36   1 H    0.999 --    11 C    0.983
    37   1 H    0.996 --    11 C    0.982
    38   1 H    0.932 --    12 N    0.891
    39   1 H    0.998 --    19 C    0.982
    40   1 H    0.997 --    19 C    0.961
    41   1 H    0.996 --    19 C    0.964
    42   1 H    0.938 --    21 N    0.887
 ---------------------------------------------------------------------------

           -------------------------------------------------
          | TOTAL ENERGY              -83.000670431087 Eh   |
          | GRADIENT NORM               0.000524450526 Eh/α |
          | HOMO-LUMO GAP               2.365917942160 eV   |
           -------------------------------------------------

 * finished run on 2023/06/21 at 17:20:11.232
