   * xtb version 6.5.1 (579679a) compiled by 'ehlert@majestix' on 2022-07-11
          program call               : /lustre/hpc/kemi/ree/PhD/git/ReactivityQM/dep/xtb-6.5.1/bin/xtb --gfn 1 /lustre/hpc/kemi/ree/PhD/git/ReactivityQM/calculations/R02/reac01prodE06/conf12/R02_reac01prodE06_conf12_gfn1.xyz --opt --vfukui --chrg -1 --uhf 0 --alpb DMSO

   ID    Z sym.   atoms
    1    6 C      1, 3, 5, 6, 8, 11-15, 17, 19, 22, 23
    2    8 O      2, 4, 7, 9, 18, 24
    3    7 N      10, 16, 20, 21, 25
    4    1 H      26-43

      * Solvation model:               ALPB
        Solvent                        DMSO
        Solvent mass                       7.8130E+01 g/mol
          :  Hamiltonian                  GFN1-xTB          :
 * total energy  :   -83.8659511 Eh     change       -0.1582521E-09 Eh
 * total energy  :   -83.8771204 Eh     change       -0.1116937E-01 Eh
 * total energy  :   -83.8813008 Eh     change       -0.4180327E-02 Eh
 * total energy  :   -83.8820181 Eh     change       -0.7172990E-03 Eh
 * total energy  :   -83.8827358 Eh     change       -0.7177741E-03 Eh
 * total energy  :   -83.8830971 Eh     change       -0.3612192E-03 Eh
 * total energy  :   -83.8834488 Eh     change       -0.3517692E-03 Eh
 * total energy  :   -83.8837651 Eh     change       -0.3162322E-03 Eh
 * total energy  :   -83.8839842 Eh     change       -0.2191081E-03 Eh
 * total energy  :   -83.8841443 Eh     change       -0.1601161E-03 Eh
 * total energy  :   -83.8853430 Eh     change       -0.1821244E-04 Eh
 * total energy  :   -83.8853547 Eh     change       -0.1170735E-04 Eh
 * total energy  :   -83.8853695 Eh     change       -0.1472534E-04 Eh
 * total energy  :   -83.8853863 Eh     change       -0.1679945E-04 Eh
 * total energy  :   -83.8853974 Eh     change       -0.1108119E-04 Eh
 * total energy  :   -83.8854052 Eh     change       -0.7826581E-05 Eh
 * total energy  :   -83.8854155 Eh     change       -0.1029775E-04 Eh
 * total energy  :   -83.8854239 Eh     change       -0.8429240E-05 Eh
 * total energy  :   -83.8854265 Eh     change       -0.2640109E-05 Eh
   *** GEOMETRY OPTIMIZATION CONVERGED AFTER 44 ITERATIONS ***

 final structure:
================
43
 xtb: 6.5.1 (579679a)
C           -3.92410407863711       -0.21503046325312       -3.81989751177387
O           -3.24683590554698        0.45574833484100       -2.76315597220946
C           -2.65504454349991       -0.32437175926638       -1.84242678141417
O           -2.71096189369075       -1.53827324709829       -1.91747261591690
C           -1.94037240985744        0.41789547973180       -0.76549382634059
C           -1.75129458453703        1.80128455330510       -0.76929267616329
O           -2.33171578002993        2.65895268557394       -1.70634021556535
C           -0.84073343869192        2.39295691200217        0.14294548998622
O           -0.53426261214893        3.59936685682838        0.14871464599191
N           -0.18819509398446        1.49643070947667        0.99754247497153
C           -0.86407516832368        0.24449513341999        1.34110336627279
C           -1.96863116957338        0.52380839448981        2.38513447169709
C            0.21876302137124       -0.75255981124493        1.87448900549835
C           -0.37774310365296       -2.15466775576472        2.04005411307973
C            0.87492917188700       -0.30188712394509        3.18446728841781
N            1.23903556141152       -0.76744599144215        0.81703945910113
C            2.33599860528270       -1.52780639047605        0.80138941420198
O            2.62412612950998       -2.40627708829714        1.60660471910051
C            3.22950030709058       -1.22954503223654       -0.35734131796327
N            4.31198868806680       -1.85875000684505       -0.69763309814095
N            4.79204623738249       -1.24155259061830       -1.81760813943958
C            3.97283138657213       -0.27438097923733       -2.08879373924896
C            4.05659573370925        0.69539393545852       -3.20319369909995
O            2.96181501379806       -0.21340156748066       -1.20663198144840
N           -1.45880222949084       -0.37996389141389        0.18078204999157
H           -4.29739243123288        0.55236401923123       -4.49614082791951
H           -3.23952371033971       -0.88111320946426       -4.35326775106849
H           -4.75860341103347       -0.80414267822714       -3.42823677499818
H           -1.97212094038530        3.54099376329277       -1.51762491745325
H            0.24611033955450        1.96114764065692        1.78173430200984
H           -2.70809900940687        1.19200187294809        1.94477767444509
H           -1.55565080955556        1.00193252048902        3.27039226432264
H           -2.46397058045228       -0.40189034016785        2.67084020667095
H            0.39836716699052       -2.87453323407048        2.29403220556397
H           -0.86634636490091       -2.46124145822599        1.11440676490664
H           -1.11336249602822       -2.14878984361577        2.84249581891505
H            1.31807651772371        0.68643433322439        3.07862738011719
H            1.66037342784628       -1.00433662249022        3.46275338972953
H            0.13969589383868       -0.27585702518184        3.98599949849031
H            1.16629568895533       -0.00590613444577        0.15077982046416
H            4.94860633092491        0.49727394051687       -3.79171856271678
H            4.09758390879725        1.71114764696791       -2.81073402745460
H            3.17510363428554        0.61409551205276       -3.83912238760725

          :  Hamiltonian                  GFN1-xTB          :
         :: total energy             -83.885426544033 Eh    ::
         :: gradient norm              0.000401553741 Eh/a0 ::
         :: HOMO-LUMO gap              0.648340224280 eV    ::
         :: SCC energy               -84.641640927130 Eh    ::
         :: -> Gsolv                  -0.109391946108 Eh    ::
         :: repulsion energy           0.784003149525 Eh    ::

    * Orbital Energies and Occupations

         #    Occupation            Energy/Eh            Energy/eV
      -------------------------------------------------------------
         1        2.0000           -0.8572490             -23.3269
       ...           ...                  ...                  ...
        56        2.0000           -0.4738976             -12.8954
        57        2.0000           -0.4725050             -12.8575
        58        2.0000           -0.4611272             -12.5479
        59        2.0000           -0.4508745             -12.2689
        60        2.0000           -0.4499773             -12.2445
        61        2.0000           -0.4424362             -12.0393
        62        2.0000           -0.4393537             -11.9554
        63        2.0000           -0.4283652             -11.6564
        64        2.0000           -0.4268273             -11.6146
        65        2.0000           -0.4074596             -11.0875
        66        2.0000           -0.3936946             -10.7130
        67        2.0000           -0.3781379             -10.2897
        68        2.0000           -0.3208508              -8.7308 (HOMO)
        69        0.0000           -0.2970247              -8.0825 (LUMO)
        70                         -0.2678477              -7.2885
        71                         -0.2502811              -6.8105
        72                         -0.1904073              -5.1812
        73                         -0.1860141              -5.0617
        74                         -0.1398551              -3.8056
        75                         -0.1262809              -3.4363
        76                         -0.1178582              -3.2071
        77                         -0.1115291              -3.0349
        78                         -0.1063528              -2.8940
        79                         -0.0973132              -2.6480
       ...                                ...                  ...
       136                          0.7372712              20.0622
      -------------------------------------------------------------
                  HL-Gap            0.0238261 Eh            0.6483 eV

Wiberg/Mayer (AO) data.
largest (>0.10) Wiberg bond orders for each atom

     #   Z sym  total        # sym  WBO       # sym  WBO       # sym  WBO
 ---------------------------------------------------------------------------
     1   6 C    3.892 --    26 H    0.987    28 H    0.980    27 H    0.980
                             2 O    0.917
     2   8 O    2.187 --     3 C    1.085     1 C    0.917     4 O    0.123
     3   6 C    3.822 --     4 O    1.635     2 O    1.085     5 C    1.007
     4   8 O    1.889 --     3 C    1.635     2 O    0.123
     5   6 C    3.971 --    25 N    1.418     6 C    1.330     3 C    1.007
     6   6 C    3.870 --     5 C    1.330     8 C    1.207     7 O    0.978
                            25 N    0.175
     7   8 O    1.951 --     6 C    0.978    29 H    0.848
     8   6 C    3.916 --     9 O    1.476     6 C    1.207    10 N    1.072
     9   8 O    1.807 --     8 C    1.476
    10   7 N    3.200 --     8 C    1.072    11 C    0.938    30 H    0.917
    11   6 C    3.945 --    25 N    1.004    12 C    0.975    13 C    0.949
                            10 N    0.938
    12   6 C    3.995 --    31 H    0.984    32 H    0.984    33 H    0.983
                            11 C    0.975
    13   6 C    3.922 --    14 C    0.998    15 C    0.995    11 C    0.949
                            16 N    0.914
    14   6 C    3.993 --    13 C    0.998    36 H    0.984    34 H    0.982
                            35 H    0.980
    15   6 C    3.993 --    13 C    0.995    39 H    0.983    37 H    0.982
                            38 H    0.981
    16   7 N    3.396 --    17 C    1.311    13 C    0.914    40 H    0.888
                            18 O    0.187
    17   6 C    3.925 --    18 O    1.552    16 N    1.311    19 C    0.981
    18   8 O    1.875 --    17 C    1.552    16 N    0.187
    19   6 C    3.866 --    20 N    1.628    24 O    1.049    17 C    0.981
    20   7 N    2.993 --    19 C    1.628    21 N    1.190
    21   7 N    2.979 --    22 C    1.618    20 N    1.190
    22   6 C    3.872 --    21 N    1.618    24 O    1.073    23 C    1.030
    23   6 C    3.988 --    22 C    1.030    41 H    0.983    42 H    0.965
                            43 H    0.964
    24   8 O    2.316 --    22 C    1.073    19 C    1.049
    25   7 N    2.923 --     5 C    1.418    11 C    1.004     6 C    0.175
    26   1 H    1.014 --     1 C    0.987
    27   1 H    1.013 --     1 C    0.980
    28   1 H    1.012 --     1 C    0.980
    29   1 H    0.888 --     7 O    0.848
    30   1 H    0.963 --    10 N    0.917
    31   1 H    1.007 --    12 C    0.984
    32   1 H    1.005 --    12 C    0.984
    33   1 H    1.010 --    12 C    0.983
    34   1 H    1.015 --    14 C    0.982
    35   1 H    1.030 --    14 C    0.980
    36   1 H    1.006 --    14 C    0.984
    37   1 H    1.004 --    15 C    0.982
    38   1 H    1.009 --    15 C    0.981
    39   1 H    1.005 --    15 C    0.983
    40   1 H    0.971 --    16 N    0.888
    41   1 H    1.000 --    23 C    0.983
    42   1 H    0.997 --    23 C    0.965
    43   1 H    0.998 --    23 C    0.964
 ---------------------------------------------------------------------------

           -------------------------------------------------
          | TOTAL ENERGY              -83.885426544033 Eh   |
          | GRADIENT NORM               0.000401553741 Eh/α |
          | HOMO-LUMO GAP               0.648340224280 eV   |
           -------------------------------------------------

 * finished run on 2023/06/20 at 15:00:22.025
