                         Program Version 5.0.1 -  RELEASE  -
|  1> # ORCA input file
|  2> ! SP r2SCAN-3c CPCM
|  3>
|  4> %maxcore 1875.0
|  5> %pal nprocs 4 end
|  6> %cpcm smd true SMDsolvent "DMSO" end
|  7>
|  8> *xyz -1 1
|  9> C      -4.871641    0.992825    0.927502
| 10> N      -3.498461    1.207705    0.464708
| 11> C      -2.801086    0.263508   -0.242318
| 12> C      -3.374123   -1.112209   -0.563197
| 13> C      -3.223579   -2.019098    0.667938
| 14> C      -2.587654   -1.723138   -1.734923
| 15> N      -4.784485   -1.010641   -0.926969
| 16> N      -1.583972    0.473764   -0.641212
| 17> C      -0.968612    1.666735   -0.393418
| 18> C       0.422537    1.835266   -0.883477
| 19> O       1.058255    2.877922   -0.687605
| 20> N       0.914343    0.784339   -1.547415
| 21> C       2.271908    0.773080   -2.085929
| 22> C       3.242099    0.216859   -1.065878
| 23> C       3.783993    1.046386   -0.086899
| 24> C       4.654088    0.534862    0.863309
| 25> C       5.002981   -0.816164    0.861081
| 26> C       5.917104   -1.373138    1.909444
| 27> F       4.188448   -2.167102    4.276013
| 28> C       4.457824   -1.640705   -0.122664
| 29> C       3.586081   -1.131552   -1.074522
| 30> C      -1.611122    2.671509    0.279141
| 31> O      -1.050888    3.861685    0.535959
| 32> C      -2.976227    2.472796    0.747125
| 33> O      -3.638431    3.312766    1.345794
| 34> H      -5.565119    1.157413    0.104412
| 35> H      -5.080413    1.702952    1.727911
| 36> H      -4.992802   -0.018930    1.298703
| 37> H      -3.568398   -3.022326    0.422594
| 38> H      -2.175777   -2.069586    0.963659
| 39> H      -3.808517   -1.648708    1.508085
| 40> H      -1.546039   -1.880311   -1.458244
| 41> H      -3.031315   -2.678881   -2.007366
| 42> H      -2.623894   -1.058761   -2.596238
| 43> H      -4.865085   -0.606752   -1.850861
| 44> H      -5.181595   -1.938318   -0.969926
| 45> H       0.330737   -0.029002   -1.671786
| 46> H       2.535536    1.803029   -2.346911
| 47> H       2.266092    0.163287   -2.991922
| 48> H       3.524359    2.099875   -0.074602
| 49> H       5.074229    1.199512    1.612061
| 50> H       5.323242   -1.685128    2.785060
| 51> H       6.455234   -2.244186    1.535705
| 52> H       6.637880   -0.623920    2.237706
| 53> H       4.721045   -2.693182   -0.154679
| 54> H       3.176661   -1.787150   -1.835123
| 55> H      -0.135441    3.860811    0.150429
| 56> **                         ****END OF INPUT****

CARTESIAN COORDINATES (ANGSTROEM)
---------------------------------
  C     -4.871641    0.992825    0.927502
  N     -3.498461    1.207705    0.464708
  C     -2.801086    0.263508   -0.242318
  C     -3.374123   -1.112209   -0.563197
  C     -3.223579   -2.019098    0.667938
  C     -2.587654   -1.723138   -1.734923
  N     -4.784485   -1.010641   -0.926969
  N     -1.583972    0.473764   -0.641212
  C     -0.968612    1.666735   -0.393418
  C      0.422537    1.835266   -0.883477
  O      1.058255    2.877922   -0.687605
  N      0.914343    0.784339   -1.547415
  C      2.271908    0.773080   -2.085929
  C      3.242099    0.216859   -1.065878
  C      3.783993    1.046386   -0.086899
  C      4.654088    0.534862    0.863309
  C      5.002981   -0.816164    0.861081
  C      5.917104   -1.373138    1.909444
  F      4.188448   -2.167102    4.276013
  C      4.457824   -1.640705   -0.122664
  C      3.586081   -1.131552   -1.074522
  C     -1.611122    2.671509    0.279141
  O     -1.050888    3.861685    0.535959
  C     -2.976227    2.472796    0.747125
  O     -3.638431    3.312766    1.345794
  H     -5.565119    1.157413    0.104412
  H     -5.080413    1.702952    1.727911
  H     -4.992802   -0.018930    1.298703
  H     -3.568398   -3.022326    0.422594
  H     -2.175777   -2.069586    0.963659
  H     -3.808517   -1.648708    1.508085
  H     -1.546039   -1.880311   -1.458244
  H     -3.031315   -2.678881   -2.007366
  H     -2.623894   -1.058761   -2.596238
  H     -4.865085   -0.606752   -1.850861
  H     -5.181595   -1.938318   -0.969926
  H      0.330737   -0.029002   -1.671786
  H      2.535536    1.803029   -2.346911
  H      2.266092    0.163287   -2.991922
  H      3.524359    2.099875   -0.074602
  H      5.074229    1.199512    1.612061
  H      5.323242   -1.685128    2.785060
  H      6.455234   -2.244186    1.535705
  H      6.637880   -0.623920    2.237706
  H      4.721045   -2.693182   -0.154679
  H      3.176661   -1.787150   -1.835123
  H     -0.135441    3.860811    0.150429

 Total Charge           Charge          ....   -1
 Multiplicity           Mult            ....    1
 Number of Electrons    NEL             ....  186
 Basis Dimension        Dim             ....  625

ORBITAL ENERGIES
----------------

  NO   OCC          E(Eh)            E(eV)
   0   2.0000     -24.279989      -660.6921
   1   2.0000     -18.980400      -516.4829
   2   2.0000     -18.931675      -515.1571
   3   2.0000     -18.921525      -514.8809
   4   2.0000     -14.230975      -387.2445
   5   2.0000     -14.188092      -386.0776
   6   2.0000     -14.157464      -385.2442
   7   2.0000     -14.128896      -384.4668
   8   2.0000     -10.137911      -275.8666
   9   2.0000     -10.137626      -275.8588
  10   2.0000     -10.114781      -275.2372
  11   2.0000     -10.109178      -275.0847
  12   2.0000     -10.078957      -274.2624
  13   2.0000     -10.077699      -274.2281
  14   2.0000     -10.066124      -273.9132
  15   2.0000     -10.049335      -273.4563
  16   2.0000     -10.036518      -273.1075
  17   2.0000     -10.035680      -273.0847
  18   2.0000     -10.028657      -272.8936
  19   2.0000     -10.027182      -272.8535
  20   2.0000     -10.024922      -272.7920
  21   2.0000     -10.024711      -272.7862
  22   2.0000     -10.017916      -272.6014
  23   2.0000     -10.008333      -272.3406
  24   2.0000     -10.000420      -272.1253
  25   2.0000      -1.040810       -28.3219
  26   2.0000      -1.014363       -27.6022
  27   2.0000      -1.005260       -27.3545
  28   2.0000      -0.957591       -26.0574
  29   2.0000      -0.914550       -24.8862
  30   2.0000      -0.900696       -24.5092
  31   2.0000      -0.876135       -23.8408
  32   2.0000      -0.860044       -23.4030
  33   2.0000      -0.822871       -22.3915
  34   2.0000      -0.760454       -20.6930
  35   2.0000      -0.744900       -20.2698
  36   2.0000      -0.712228       -19.3807
  37   2.0000      -0.709008       -19.2931
  38   2.0000      -0.702216       -19.1083
  39   2.0000      -0.675770       -18.3886
  40   2.0000      -0.652130       -17.7454
  41   2.0000      -0.634066       -17.2538
  42   2.0000      -0.628401       -17.0996
  43   2.0000      -0.610424       -16.6105
  44   2.0000      -0.573388       -15.6027
  45   2.0000      -0.558786       -15.2053
  46   2.0000      -0.552912       -15.0455
  47   2.0000      -0.536985       -14.6121
  48   2.0000      -0.526162       -14.3176
  49   2.0000      -0.513327       -13.9683
  50   2.0000      -0.490112       -13.3366
  51   2.0000      -0.464196       -12.6314
  52   2.0000      -0.460731       -12.5371
  53   2.0000      -0.453437       -12.3387
  54   2.0000      -0.438699       -11.9376
  55   2.0000      -0.434465       -11.8224
  56   2.0000      -0.431923       -11.7532
  57   2.0000      -0.419500       -11.4152
  58   2.0000      -0.414158       -11.2698
  59   2.0000      -0.408395       -11.1130
  60   2.0000      -0.407665       -11.0931
  61   2.0000      -0.399602       -10.8737
  62   2.0000      -0.389478       -10.5982
  63   2.0000      -0.380548       -10.3552
  64   2.0000      -0.380199       -10.3458
  65   2.0000      -0.374194       -10.1823
  66   2.0000      -0.370439       -10.0802
  67   2.0000      -0.363089        -9.8802
  68   2.0000      -0.359082        -9.7711
  69   2.0000      -0.356716        -9.7067
  70   2.0000      -0.353012        -9.6059
  71   2.0000      -0.351317        -9.5598
  72   2.0000      -0.338586        -9.2134
  73   2.0000      -0.337201        -9.1757
  74   2.0000      -0.331866        -9.0305
  75   2.0000      -0.329657        -8.9704
  76   2.0000      -0.325248        -8.8505
  77   2.0000      -0.322348        -8.7715
  78   2.0000      -0.308544        -8.3959
  79   2.0000      -0.307111        -8.3569
  80   2.0000      -0.297408        -8.0929
  81   2.0000      -0.263863        -7.1801
  82   2.0000      -0.261216        -7.1081
  83   2.0000      -0.240546        -6.5456
  84   2.0000      -0.237120        -6.4524
  85   2.0000      -0.234319        -6.3762
  86   2.0000      -0.228935        -6.2296
  87   2.0000      -0.219123        -5.9626
  88   2.0000      -0.204948        -5.5769
  89   2.0000      -0.202705        -5.5159
  90   2.0000      -0.202613        -5.5134
  91   2.0000      -0.198609        -5.4044
  92   2.0000      -0.193126        -5.2552
  93   0.0000      -0.079729        -2.1695
  94   0.0000      -0.034001        -0.9252
  95   0.0000      -0.030655        -0.8342
  96   0.0000      -0.024997        -0.6802
  97   0.0000       0.023979         0.6525

MULLIKEN ATOMIC CHARGES
-----------------------
   0 C :   -0.421254
   1 N :    0.236192
   2 C :    0.110130
   3 C :    0.146807
   4 C :   -0.533889
   5 C :   -0.571623
   6 N :   -0.649546
   7 N :   -0.156628
   8 C :    0.101638
   9 C :    0.096266
  10 O :   -0.537574
  11 N :   -0.075584
  12 C :   -0.409864
  13 C :    0.147520
  14 C :   -0.206808
  15 C :   -0.276800
  16 C :    0.197928
  17 C :   -0.652857
  18 F :   -0.938178
  19 C :   -0.254310
  20 C :   -0.248853
  21 C :    0.063067
  22 O :   -0.369247
  23 C :    0.080035
  24 O :   -0.441570
  25 H :    0.191666
  26 H :    0.186034
  27 H :    0.182125
  28 H :    0.180110
  29 H :    0.186341
  30 H :    0.172615
  31 H :    0.172565
  32 H :    0.171011
  33 H :    0.176327
  34 H :    0.286071
  35 H :    0.291120
  36 H :    0.309708
  37 H :    0.198917
  38 H :    0.183662
  39 H :    0.187292
  40 H :    0.177382
  41 H :    0.253492
  42 H :    0.161070
  43 H :    0.161733
  44 H :    0.176574
  45 H :    0.177829
  46 H :    0.381361
Sum of atomic charges:   -1.0000000

LOEWDIN ATOMIC CHARGES
----------------------
   0 C :   -0.082305
   1 N :   -0.627927
   2 C :    0.368425
   3 C :    0.064386
   4 C :   -0.353927
   5 C :   -0.364635
   6 N :   -0.699176
   7 N :   -0.601463
   8 C :    0.197226
   9 C :    0.370676
  10 O :   -0.530660
  11 N :   -0.584255
  12 C :    0.000750
  13 C :   -0.087416
  14 C :   -0.158607
  15 C :   -0.176371
  16 C :   -0.102955
  17 C :   -0.436133
  18 F :   -0.946948
  19 C :   -0.177317
  20 C :   -0.161780
  21 C :    0.271994
  22 O :   -0.462285
  23 C :    0.379739
  24 O :   -0.477562
  25 H :    0.196816
  26 H :    0.202037
  27 H :    0.196676
  28 H :    0.169665
  29 H :    0.171722
  30 H :    0.166844
  31 H :    0.168344
  32 H :    0.162062
  33 H :    0.168375
  34 H :    0.252732
  35 H :    0.254289
  36 H :    0.298062
  37 H :    0.207425
  38 H :    0.200893
  39 H :    0.186728
  40 H :    0.179644
  41 H :    0.198003
  42 H :    0.161293
  43 H :    0.161837
  44 H :    0.179414
  45 H :    0.181591
  46 H :    0.314073

  Mayer bond orders larger than 0.100000
B(  0-C ,  1-N ) :   0.9047 B(  0-C , 25-H ) :   0.9342 B(  0-C , 26-H ) :   0.9390
B(  0-C , 27-H ) :   0.9333 B(  1-N ,  2-C ) :   1.2632 B(  1-N , 23-C ) :   1.0502
B(  2-C ,  3-C ) :   0.8816 B(  2-C ,  7-N ) :   1.6218 B(  2-C , 21-C ) :   0.1049
B(  3-C ,  4-C ) :   0.9481 B(  3-C ,  5-C ) :   0.9688 B(  3-C ,  6-N ) :   0.8239
B(  3-C ,  7-N ) :  -0.1070 B(  4-C , 28-H ) :   0.9606 B(  4-C , 29-H ) :   0.9736
B(  4-C , 30-H ) :   0.9489 B(  5-C , 31-H ) :   0.9746 B(  5-C , 32-H ) :   0.9689
B(  5-C , 33-H ) :   0.9676 B(  6-N , 34-H ) :   0.9103 B(  6-N , 35-H ) :   0.9121
B(  7-N ,  8-C ) :   1.0350 B(  8-C ,  9-C ) :   1.0092 B(  8-C , 21-C ) :   1.2589
B(  9-C , 10-O ) :   1.6707 B(  9-C , 11-N ) :   1.2867 B( 10-O , 46-H ) :   0.1064
B( 11-N , 12-C ) :   0.8403 B( 11-N , 36-H ) :   0.8804 B( 12-C , 13-C ) :   0.8341
B( 12-C , 37-H ) :   0.9829 B( 12-C , 38-H ) :   0.9743 B( 13-C , 14-C ) :   1.3698
B( 13-C , 20-C ) :   1.3899 B( 14-C , 15-C ) :   1.4170 B( 14-C , 39-H ) :   0.9546
B( 15-C , 16-C ) :   1.3556 B( 15-C , 40-H ) :   0.9574 B( 16-C , 17-C ) :   0.8004
B( 16-C , 19-C ) :   1.3662 B( 17-C , 41-H ) :   0.9127 B( 17-C , 42-H ) :   0.9895
B( 17-C , 43-H ) :   0.9879 B( 19-C , 20-C ) :   1.4124 B( 19-C , 44-H ) :   0.9566
B( 20-C , 45-H ) :   0.9565 B( 21-C , 22-O ) :   1.1494 B( 21-C , 23-C ) :   1.0277
B( 22-O , 46-H ) :   0.7457 B( 23-C , 24-O ) :   1.9194

Dispersion correction           -0.021052111
FINAL SINGLE POINT ENERGY     -1205.562714215092

DIPOLE MOMENT
-------------
                                X             Y             Z
Electronic contribution:     -0.31730      18.90443       0.36311
Nuclear contribution   :     -7.75765     -18.14254      -9.36090
                        -----------------------------------------
Total Dipole Moment    :     -8.07496       0.76189      -8.99780
                        -----------------------------------------
Magnitude (a.u.)       :     12.11387
Magnitude (Debye)      :     30.79100

Rotational constants in cm-1:     0.009900     0.003415     0.003187
Rotational constants in MHz :   296.802718   102.381148    95.553075

                             ****ORCA TERMINATED NORMALLY****
TOTAL RUN TIME: 0 days 0 hours 2 minutes 47 seconds 438 msec
