   * xtb version 6.5.1 (579679a) compiled by 'ehlert@majestix' on 2022-07-11
          program call               : /lustre/hpc/kemi/ree/PhD/git/ReactivityQM/dep/xtb-6.5.1/bin/xtb --gfn 1 /lustre/hpc/kemi/ree/PhD/git/ReactivityQM/calculations/RaltegravirCLI/reac02prodE09/conf16/RaltegravirCLI_reac02prodE09_conf16_gfn1.xyz --opt --vfukui --chrg -1 --uhf 0 --alpb DMSO

   ID    Z sym.   atoms
    1    6 C      1, 3-6, 9, 10, 13-18, 20-22, 24
    2    7 N      2, 7, 8, 12
    3    8 O      11, 23, 25
    4    9 F      19
    5    1 H      26-47

      * Solvation model:               ALPB
        Solvent                        DMSO
        Solvent mass                       7.8130E+01 g/mol
          :  Hamiltonian                  GFN1-xTB          :
 * total energy  :   -80.1943303 Eh     change       -0.1979714E-09 Eh
 * total energy  :   -80.2034611 Eh     change       -0.9130844E-02 Eh
 * total energy  :   -80.2072013 Eh     change       -0.3740170E-02 Eh
 * total energy  :   -80.2082980 Eh     change       -0.1096713E-02 Eh
 * total energy  :   -80.2095273 Eh     change       -0.1229293E-02 Eh
 * total energy  :   -80.2106339 Eh     change       -0.1106555E-02 Eh
 * total energy  :   -80.2123821 Eh     change       -0.1748244E-02 Eh
 * total energy  :   -80.2151668 Eh     change       -0.2784692E-02 Eh
 * total energy  :   -80.2175784 Eh     change       -0.2411619E-02 Eh
 * total energy  :   -80.2195698 Eh     change       -0.1991426E-02 Eh
 * total energy  :   -80.2365955 Eh     change        0.2715458E-05 Eh
 * total energy  :   -80.2366375 Eh     change       -0.4203811E-04 Eh
 * total energy  :   -80.2366528 Eh     change       -0.1529269E-04 Eh
 * total energy  :   -80.2366723 Eh     change       -0.1945141E-04 Eh
 * total energy  :   -80.2366807 Eh     change       -0.8418847E-05 Eh
 * total energy  :   -80.2366904 Eh     change       -0.9717522E-05 Eh
 * total energy  :   -80.2366963 Eh     change       -0.5854287E-05 Eh
 * total energy  :   -80.2367029 Eh     change       -0.6671724E-05 Eh
 * total energy  :   -80.2367052 Eh     change       -0.2238515E-05 Eh
   *** GEOMETRY OPTIMIZATION CONVERGED AFTER 61 ITERATIONS ***

 final structure:
================
47
 xtb: 6.5.1 (579679a)
C           -4.87164092354620        0.99282486109696        0.92750213602951
N           -3.49846089833536        1.20770548924256        0.46470823210776
C           -2.80108561438633        0.26350799160956       -0.24231806537686
C           -3.37412257138811       -1.11220901225932       -0.56319688752298
C           -3.22357855604208       -2.01909848769307        0.66793787938462
C           -2.58765408733082       -1.72313757122601       -1.73492261594592
N           -4.78448493286610       -1.01064082461228       -0.92696925253715
N           -1.58397220243560        0.47376363222703       -0.64121157639796
C           -0.96861164136938        1.66673521560897       -0.39341799489911
C            0.42253729923121        1.83526551296386       -0.88347735003050
O            1.05825459705707        2.87792228603996       -0.68760518900427
N            0.91434250211119        0.78433902480666       -1.54741478430338
C            2.27190783791324        0.77308007955919       -2.08592891278296
C            3.24209894909094        0.21685919790453       -1.06587822295429
C            3.78399321687431        1.04638606285090       -0.08689885222573
C            4.65408769011920        0.53486239220994        0.86330879266686
C            5.00298052251269       -0.81616415839586        0.86108137940953
C            5.91710440004833       -1.37313772088649        1.90944364014380
F            4.18844840734006       -2.16710242727538        4.27601264930431
C            4.45782393433206       -1.64070502216964       -0.12266413281912
C            3.58608101560161       -1.13155205158482       -1.07452233897271
C           -1.61112176795832        2.67150898396821        0.27914113284740
O           -1.05088775932585        3.86168541104853        0.53595871532861
C           -2.97622711971443        2.47279610502424        0.74712543263939
O           -3.63843065472289        3.31276642366144        1.34579447218368
H           -5.56511851110273        1.15741334460530        0.10441244664026
H           -5.08041269642396        1.70295218545361        1.72791061567511
H           -4.99280216735716       -0.01893039138887        1.29870279468848
H           -3.56839806798290       -3.02232607177362        0.42259353311065
H           -2.17577697861063       -2.06958559340069        0.96365898484050
H           -3.80851725678789       -1.64870752431811        1.50808545023768
H           -1.54603868467377       -1.88031095026962       -1.45824365231806
H           -3.03131544941867       -2.67888124760119       -2.00736644710292
H           -2.62389364517774       -1.05876119344841       -2.59623828132029
H           -4.86508530539686       -0.60675226793255       -1.85086096271353
H           -5.18159535158515       -1.93831780564743       -0.96992575828021
H            0.33073672688241       -0.02900162270621       -1.67178566817563
H            2.53553559636410        1.80302890941649       -2.34691079273536
H            2.26609232883194        0.16328706491223       -2.99192181851966
H            3.52435852049748        2.09987461920756       -0.07460192546610
H            5.07422903862162        1.19951160124757        1.61206070958618
H            5.32324229329894       -1.68512809847062        2.78506025209785
H            6.45523423524284       -2.24418583889323        1.53570463562016
H            6.63787954669340       -0.62391981710842        2.23770624342462
H            4.72104471431927       -2.69318154488600       -0.15467899905115
H            3.17666110626156       -1.78714992516009       -1.83512312821976
H           -0.13544063527955        3.86081077456371        0.15042948172265

          :  Hamiltonian                  GFN1-xTB          :
         :: total energy             -80.236705187839 Eh    ::
         :: gradient norm              0.000328438263 Eh/a0 ::
         :: HOMO-LUMO gap              0.668318817605 eV    ::
         :: SCC energy               -81.127026752977 Eh    ::
         :: -> Gsolv                  -0.157546665962 Eh    ::
         :: repulsion energy           0.919913335873 Eh    ::

    * Orbital Energies and Occupations

         #    Occupation            Energy/Eh            Energy/eV
      -------------------------------------------------------------
         1        2.0000           -0.8203328             -22.3224
       ...           ...                  ...                  ...
        56        2.0000           -0.4626517             -12.5894
        57        2.0000           -0.4593630             -12.4999
        58        2.0000           -0.4496581             -12.2358
        59        2.0000           -0.4480694             -12.1926
        60        2.0000           -0.4326842             -11.7739
        61        2.0000           -0.4276912             -11.6381
        62        2.0000           -0.4240927             -11.5401
        63        2.0000           -0.4143791             -11.2758
        64        2.0000           -0.4114912             -11.1972
        65        2.0000           -0.4095109             -11.1434
        66        2.0000           -0.3324533              -9.0465
        67        2.0000           -0.3324508              -9.0464
        68        2.0000           -0.3318998              -9.0315 (HOMO)
        69        0.0000           -0.3073396              -8.3631 (LUMO)
        70                         -0.2720003              -7.4015
        71                         -0.2457483              -6.6872
        72                         -0.2446352              -6.6569
        73                         -0.2237914              -6.0897
        74                         -0.1441167              -3.9216
        75                         -0.1302944              -3.5455
        76                         -0.1239666              -3.3733
        77                         -0.1228323              -3.3424
        78                         -0.1191048              -3.2410
        79                         -0.1124287              -3.0593
       ...                                ...                  ...
       144                          0.7150755              19.4582
      -------------------------------------------------------------
                  HL-Gap            0.0245603 Eh            0.6683 eV

Wiberg/Mayer (AO) data.
largest (>0.10) Wiberg bond orders for each atom

     #   Z sym  total        # sym  WBO       # sym  WBO       # sym  WBO
 ---------------------------------------------------------------------------
     1   6 C    3.925 --    28 H    0.978    26 H    0.976    27 H    0.976
                             2 N    0.931
     2   7 N    3.506 --     3 C    1.183    24 C    1.110     1 C    0.931
                            25 O    0.134
     3   6 C    3.923 --     8 N    1.551     2 N    1.183     4 C    0.976
     4   6 C    3.966 --     6 C    0.989     7 N    0.984     5 C    0.982
                             3 C    0.976
     5   6 C    3.993 --    30 H    0.985    29 H    0.983     4 C    0.982
                            31 H    0.979
     6   6 C    3.994 --     4 C    0.989    33 H    0.985    34 H    0.985
                            32 H    0.983
     7   7 N    2.977 --     4 C    0.984    35 H    0.942    36 H    0.939
     8   7 N    3.045 --     3 C    1.551     9 C    1.192
     9   6 C    3.963 --    22 C    1.484     8 N    1.192    10 C    1.015
    10   6 C    3.908 --    11 O    1.509    12 N    1.301     9 C    1.015
    11   8 O    1.903 --    10 C    1.509    12 N    0.165
    12   7 N    3.378 --    10 C    1.301    13 C    0.931    37 H    0.896
                            11 O    0.165
    13   6 C    3.941 --    14 C    0.991    39 H    0.977    38 H    0.972
                            12 N    0.931
    14   6 C    3.983 --    21 C    1.418    15 C    1.412    13 C    0.991
                            17 C    0.106
    15   6 C    3.995 --    16 C    1.455    14 C    1.412    40 H    0.971
                            20 C    0.108
    16   6 C    3.995 --    15 C    1.455    17 C    1.402    41 H    0.973
                            21 C    0.107
    17   6 C    3.985 --    20 C    1.406    16 C    1.402    18 C    1.033
                            14 C    0.106
    18   6 C    3.988 --    17 C    1.033    43 H    0.984    44 H    0.983
                            42 H    0.925
    19   9 F    0.101
    20   6 C    3.995 --    21 C    1.449    17 C    1.406    45 H    0.973
                            15 C    0.108
    21   6 C    3.995 --    20 C    1.449    14 C    1.418    46 H    0.973
                            16 C    0.107
    22   6 C    3.923 --     9 C    1.484    23 O    1.108    24 C    1.083
    23   8 O    2.068 --    22 C    1.108    47 H    0.769
    24   6 C    3.913 --    25 O    1.566     2 N    1.110    22 C    1.083
    25   8 O    1.883 --    24 C    1.566     2 N    0.134
    26   1 H    1.018 --     1 C    0.976
    27   1 H    1.011 --     1 C    0.976
    28   1 H    1.023 --     1 C    0.978
    29   1 H    1.000 --     5 C    0.983
    30   1 H    1.004 --     5 C    0.985
    31   1 H    1.005 --     5 C    0.979
    32   1 H    1.014 --     6 C    0.983
    33   1 H    1.003 --     6 C    0.985
    34   1 H    1.007 --     6 C    0.985
    35   1 H    0.957 --     7 N    0.942
    36   1 H    0.954 --     7 N    0.939
    37   1 H    0.961 --    12 N    0.896
    38   1 H    1.010 --    13 C    0.972
    39   1 H    1.004 --    13 C    0.977
    40   1 H    1.011 --    15 C    0.971
    41   1 H    1.003 --    16 C    0.973
    42   1 H    1.038 --    18 C    0.925
    43   1 H    1.006 --    18 C    0.984
    44   1 H    1.006 --    18 C    0.983
    45   1 H    1.003 --    20 C    0.973
    46   1 H    1.002 --    21 C    0.973
    47   1 H    0.861 --    23 O    0.769
 ---------------------------------------------------------------------------

           -------------------------------------------------
          | TOTAL ENERGY              -80.236705187839 Eh   |
          | GRADIENT NORM               0.000328438263 Eh/α |
          | HOMO-LUMO GAP               0.668318817605 eV   |
           -------------------------------------------------

 * finished run on 2023/06/20 at 15:10:13.795
