   * xtb version 6.5.1 (579679a) compiled by 'ehlert@majestix' on 2022-07-11
          program call               : /lustre/hpc/kemi/ree/PhD/git/ReactivityQM/dep/xtb-6.5.1/bin/xtb --gfn 1 /lustre/hpc/kemi/ree/PhD/git/ReactivityQM/calculations/R02oxygendeprot/reac01/conf10/R02oxygendeprot_reac01_conf10_gfn1.xyz --opt --vfukui --chrg -1 --uhf 0 --alpb DMSO

   ID    Z sym.   atoms
    1    6 C      1, 3, 5, 7-10, 12, 14, 17, 18, 21, 23
    2    8 O      2, 4, 13, 19, 22, 24
    3    7 N      6, 11, 15, 16, 20
    4    1 H      25-38

      * Solvation model:               ALPB
        Solvent                        DMSO
        Solvent mass                       7.8130E+01 g/mol
          :  Hamiltonian                  GFN1-xTB          :
 * total energy  :   -79.6035441 Eh     change       -0.3009859E-10 Eh
 * total energy  :   -79.6149913 Eh     change       -0.1144725E-01 Eh
 * total energy  :   -79.6190053 Eh     change       -0.4013974E-02 Eh
 * total energy  :   -79.6195221 Eh     change       -0.5168160E-03 Eh
 * total energy  :   -79.6199757 Eh     change       -0.4535784E-03 Eh
 * total energy  :   -79.6202698 Eh     change       -0.2941050E-03 Eh
 * total energy  :   -79.6205920 Eh     change       -0.3221849E-03 Eh
 * total energy  :   -79.6208441 Eh     change       -0.2521516E-03 Eh
 * total energy  :   -79.6210122 Eh     change       -0.1680253E-03 Eh
 * total energy  :   -79.6211335 Eh     change       -0.1213623E-03 Eh
 * total energy  :   -79.6235579 Eh     change       -0.1044769E-04 Eh
 * total energy  :   -79.6235658 Eh     change       -0.7946687E-05 Eh
 * total energy  :   -79.6235731 Eh     change       -0.7263406E-05 Eh
 * total energy  :   -79.6235815 Eh     change       -0.8387836E-05 Eh
 * total energy  :   -79.6235918 Eh     change       -0.1025959E-04 Eh
 * total energy  :   -79.6236024 Eh     change       -0.1064773E-04 Eh
 * total energy  :   -79.6236114 Eh     change       -0.9035576E-05 Eh
 * total energy  :   -79.6236174 Eh     change       -0.5934765E-05 Eh
 * total energy  :   -79.6236223 Eh     change       -0.4896703E-05 Eh
   *** GEOMETRY OPTIMIZATION CONVERGED AFTER 57 ITERATIONS ***

 final structure:
================
38
 xtb: 6.5.1 (579679a)
C            2.67214464749687        4.35552665357481       -0.83670255724464
O            2.94333190181968        3.07682775790608       -0.27965002724176
C            1.90817440535430        2.20034667663656       -0.29069884251245
O            0.81751883801235        2.52712374190726       -0.74466821397909
C            2.21445535999244        0.88621434938108        0.25366892955787
N            1.13626651269110        0.02294901521787        0.18424165743838
C            1.23262662609542       -1.18860652930735        0.58597678990229
C            0.04956791370813       -2.13129929607464        0.46385868753754
C           -0.30362829374295       -2.75509563414294        1.82067884064497
C            0.36220049755485       -3.21843053400741       -0.57546178249805
N           -1.06427580282036       -1.30507934403179        0.00145392968461
C           -2.28779220844463       -1.76569631863192       -0.28084625652675
O           -2.65296750553072       -2.93136258396714       -0.19462699070481
C           -3.22016869383349       -0.69336576626971       -0.72870884257095
N           -4.44118299428187       -0.83288719006488       -1.14598319508940
N           -4.90239252975509        0.41726271823678       -1.43934636258807
C           -3.93445843479947        1.24146093191479       -1.18045722740571
C           -3.94111864583541        2.71442815929899       -1.31961624933801
O           -2.84307199945381        0.60322728189723       -0.73029685540627
N            2.40783709953471       -1.69045117265021        1.10304075952052
C            3.55193420811430       -0.94431086491347        1.24905918802047
O            4.55611988951942       -1.46313852088992        1.72938804657398
C            3.47119526568106        0.49291634434788        0.78145678581936
O            4.48387061367053        1.20835147683549        0.88757608028227
H            3.59552076209562        4.93103171924797       -0.78307142344303
H            2.35334907906108        4.26255647782781       -1.87969683963009
H            1.88419494295530        4.86452887983985       -0.27272575899049
H           -1.17432985712391       -3.40049051640032        1.71781658920332
H           -0.52233637984202       -1.97329233952019        2.54647602618244
H            0.53013614219861       -3.35247749958354        2.18345008841644
H            0.56188698049611       -2.76097057394937       -1.54364429320491
H            1.23952062084475       -3.78063880231838       -0.26177601637076
H           -0.47797367674098       -3.90398774324574       -0.66978555312659
H           -0.84876904480208       -0.31642622994509       -0.11541201764555
H           -3.12908363913802        3.03435680556620       -1.97225177524393
H           -4.89241919578443        3.03634199440560       -1.73514477380354
H           -3.79468116277277        3.18082678498054       -0.34530131598024
H            2.45879775779174       -2.64826930913556        1.40776777177704

          :  Hamiltonian                  GFN1-xTB          :
         :: total energy             -79.623622274573 Eh    ::
         :: gradient norm              0.000602463115 Eh/a0 ::
         :: HOMO-LUMO gap              1.778298978077 eV    ::
         :: SCC energy               -80.349332390330 Eh    ::
         :: -> Gsolv                  -0.113897054456 Eh    ::
         :: repulsion energy           0.748805001825 Eh    ::

    * Orbital Energies and Occupations

         #    Occupation            Energy/Eh            Energy/eV
      -------------------------------------------------------------
         1        2.0000           -0.8580990             -23.3501
       ...           ...                  ...                  ...
        52        2.0000           -0.4820867             -13.1182
        53        2.0000           -0.4727323             -12.8637
        54        2.0000           -0.4635077             -12.6127
        55        2.0000           -0.4575038             -12.4493
        56        2.0000           -0.4540679             -12.3558
        57        2.0000           -0.4516372             -12.2897
        58        2.0000           -0.4437437             -12.0749
        59        2.0000           -0.4401915             -11.9782
        60        2.0000           -0.4357852             -11.8583
        61        2.0000           -0.4354168             -11.8483
        62        2.0000           -0.4183478             -11.3838
        63        2.0000           -0.3790002             -10.3131
        64        2.0000           -0.3654447              -9.9443 (HOMO)
        65                         -0.3000934              -8.1660 (LUMO)
        66                         -0.2697919              -7.3414
        67                         -0.2509441              -6.8285
        68                         -0.2392714              -6.5109
        69                         -0.1965108              -5.3473
        70                         -0.1888535              -5.1390
        71                         -0.1390293              -3.7832
        72                         -0.1250865              -3.4038
        73                         -0.1197075              -3.2574
        74                         -0.1155149              -3.1433
        75                         -0.1072235              -2.9177
       ...                                ...                  ...
       124                          0.7566446              20.5893
      -------------------------------------------------------------
                  HL-Gap            0.0653513 Eh            1.7783 eV

Wiberg/Mayer (AO) data.
largest (>0.10) Wiberg bond orders for each atom

     #   Z sym  total        # sym  WBO       # sym  WBO       # sym  WBO
 ---------------------------------------------------------------------------
     1   6 C    3.898 --    25 H    0.987    27 H    0.980    26 H    0.980
                             2 O    0.924
     2   8 O    2.161 --     3 C    1.050     1 C    0.924     4 O    0.110
     3   6 C    3.851 --     4 O    1.577     5 C    1.112     2 O    1.050
     4   8 O    1.854 --     3 C    1.577     2 O    0.110
     5   6 C    3.914 --    23 C    1.273     6 N    1.148     3 C    1.112
                            24 O    0.130
     6   7 N    3.061 --     7 C    1.631     5 C    1.148
     7   6 C    3.933 --     6 N    1.631    20 N    1.098     8 C    0.978
     8   6 C    3.937 --     9 C    0.985    10 C    0.981     7 C    0.978
                            11 N    0.930
     9   6 C    3.990 --    29 H    0.986     8 C    0.985    30 H    0.983
                            28 H    0.981
    10   6 C    3.989 --    31 H    0.986    32 H    0.985     8 C    0.981
                            33 H    0.980
    11   7 N    3.381 --    12 C    1.296     8 C    0.930    34 H    0.870
                            13 O    0.184
    12   6 C    3.922 --    13 O    1.560    11 N    1.296    14 C    0.985
    13   8 O    1.882 --    12 C    1.560    11 N    0.184
    14   6 C    3.870 --    15 N    1.624    19 O    1.051    12 C    0.985
    15   7 N    2.995 --    14 C    1.624    16 N    1.195
    16   7 N    2.979 --    17 C    1.613    15 N    1.195
    17   6 C    3.871 --    16 N    1.613    19 O    1.076    18 C    1.031
    18   6 C    3.988 --    17 C    1.031    36 H    0.983    35 H    0.965
                            37 H    0.963
    19   8 O    2.321 --    17 C    1.076    14 C    1.051
    20   7 N    3.424 --    21 C    1.155     7 C    1.098    38 H    0.897
                            22 O    0.134
    21   6 C    3.877 --    22 O    1.582    20 N    1.155    23 C    0.967
    22   8 O    1.862 --    21 C    1.582    20 N    0.134
    23   6 C    3.944 --    24 O    1.520     5 C    1.273    21 C    0.967
    24   8 O    1.826 --    23 C    1.520     5 C    0.130
    25   1 H    1.015 --     1 C    0.987
    26   1 H    1.014 --     1 C    0.980
    27   1 H    1.014 --     1 C    0.980
    28   1 H    1.009 --     9 C    0.981
    29   1 H    1.004 --     9 C    0.986
    30   1 H    1.001 --     9 C    0.983
    31   1 H    1.004 --    10 C    0.986
    32   1 H    1.002 --    10 C    0.985
    33   1 H    1.010 --    10 C    0.980
    34   1 H    0.966 --    11 N    0.870
    35   1 H    0.997 --    18 C    0.965
    36   1 H    1.000 --    18 C    0.983
    37   1 H    0.998 --    18 C    0.963
    38   1 H    0.947 --    20 N    0.897
 ---------------------------------------------------------------------------

           -------------------------------------------------
          | TOTAL ENERGY              -79.623622274573 Eh   |
          | GRADIENT NORM               0.000602463115 Eh/α |
          | HOMO-LUMO GAP               1.778298978077 eV   |
           -------------------------------------------------

 * finished run on 2023/06/21 at 17:00:36.156
