   * xtb version 6.5.1 (579679a) compiled by 'ehlert@majestix' on 2022-07-11
          program call               : /lustre/hpc/kemi/ree/PhD/git/ReactivityQM/dep/xtb-6.5.1/bin/xtb --gfn 1 /lustre/hpc/kemi/ree/PhD/git/ReactivityQM/calculations/R01/reac02prodE05/conf11/R01_reac02prodE05_conf11_gfn1.xyz --opt --vfukui --chrg -1 --uhf 0 --alpb DMSO

   ID    Z sym.   atoms
    1    6 C      1, 3, 5, 6, 8, 11-15
    2    8 O      2, 4, 7, 9
    3    7 N      10, 16, 17
    4    1 H      18-33

      * Solvation model:               ALPB
        Solvent                        DMSO
        Solvent mass                       7.8130E+01 g/mol
          :  Hamiltonian                  GFN1-xTB          :
 * total energy  :   -58.5520358 Eh     change       -0.7069900E-11 Eh
 * total energy  :   -58.5597258 Eh     change       -0.7690019E-02 Eh
 * total energy  :   -58.5616784 Eh     change       -0.1952611E-02 Eh
 * total energy  :   -58.5619814 Eh     change       -0.3030111E-03 Eh
 * total energy  :   -58.5622153 Eh     change       -0.2338590E-03 Eh
 * total energy  :   -58.5623005 Eh     change       -0.8525349E-04 Eh
 * total energy  :   -58.5623689 Eh     change       -0.6838769E-04 Eh
 * total energy  :   -58.5624041 Eh     change       -0.3519760E-04 Eh
 * total energy  :   -58.5624280 Eh     change       -0.2389673E-04 Eh
 * total energy  :   -58.5624484 Eh     change       -0.2044997E-04 Eh
 * total energy  :   -58.5624981 Eh     change       -0.6938518E-05 Eh
 * total energy  :   -58.5625029 Eh     change       -0.4796963E-05 Eh
 * total energy  :   -58.5625035 Eh     change       -0.6318055E-06 Eh
 * total energy  :   -58.5625117 Eh     change       -0.8233918E-05 Eh
 * total energy  :   -58.5625177 Eh     change       -0.5948785E-05 Eh
 * total energy  :   -58.5625237 Eh     change       -0.5970834E-05 Eh
 * total energy  :   -58.5624906 Eh     change        0.3310735E-04 Eh
 * total energy  :   -58.5625333 Eh     change       -0.4276052E-04 Eh
 * total energy  :   -58.5625378 Eh     change       -0.4511478E-05 Eh
   *** GEOMETRY OPTIMIZATION CONVERGED AFTER 22 ITERATIONS ***

 final structure:
================
33
 xtb: 6.5.1 (579679a)
C            4.80547887311502        1.05190331821760       -0.91512937163617
O            3.67820909378532        0.21011337290309       -0.70489284184819
C            2.56726520562477        0.80657902952398       -0.23373606047831
O            2.54487305352429        2.00296151095338       -0.01033046476134
C            1.40532782427468       -0.10917190716559       -0.04905001994775
C            1.52108336853112       -1.50130443191718       -0.03674325515993
O            2.75076405500948       -2.17179360978857       -0.04233775612120
C            0.35730793094250       -2.31663333244975       -0.08219416524400
O            0.37759605315445       -3.56290965971409       -0.16224749570077
N           -0.83659158508303       -1.61840289205228       -0.15912698079083
C           -0.91746594246554       -0.26534008171801        0.38831870784326
C           -1.04779530763375       -0.34906543752200        1.93174015634886
C           -2.15824269489145        0.41184661984461       -0.27014131204924
C           -1.90727399048465        0.51861196791347       -1.77923743620796
C           -2.39519061630264        1.81389412729760        0.30992140716497
N           -3.32787810700638       -0.44661807526577       -0.06462595890240
N            0.24834980197187        0.53359814522171        0.07513660406232
H            5.59101891336184        0.43239292681935       -1.34523634624539
H            5.14644580588665        1.48133457068181        0.03139757458592
H            4.55505563251327        1.86546834168541       -1.60240533793845
H            2.53592284204148       -3.11878899145298       -0.05307453934843
H           -1.67315731877914       -2.16424321135421       -0.00393464179489
H           -1.98168312884463       -0.82620720889149        2.22000856611151
H           -1.00462157738386        0.64895800272977        2.36326610285076
H           -0.22000134022563       -0.93521363473124        2.33121123522340
H           -2.76298115764768        0.97293540288595       -2.27796718804809
H           -1.02462298926869        1.13332085896083       -1.96280516345921
H           -1.74010062740343       -0.47342365836816       -2.20150123038799
H           -2.74464383947096        1.75461546122827        1.33964770224562
H           -1.46496298661342        2.38428101718954        0.28237119724065
H           -3.15112103045599        2.33862206009539       -0.27373139532276
H           -4.09437989430990       -0.11145840573772       -0.63146896319790
H           -3.63198631946606       -0.39086319602296        0.89876167091386

          :  Hamiltonian                  GFN1-xTB          :
         :: total energy             -58.562537831773 Eh    ::
         :: gradient norm              0.000648446503 Eh/a0 ::
         :: HOMO-LUMO gap              1.382958051230 eV    ::
         :: SCC energy               -59.098496008641 Eh    ::
         :: -> Gsolv                  -0.104512895337 Eh    ::
         :: repulsion energy           0.555821106047 Eh    ::

    * Orbital Energies and Occupations

         #    Occupation            Energy/Eh            Energy/eV
      -------------------------------------------------------------
         1        2.0000           -0.8086533             -22.0046
       ...           ...                  ...                  ...
        36        2.0000           -0.4796128             -13.0509
        37        2.0000           -0.4757552             -12.9460
        38        2.0000           -0.4736209             -12.8879
        39        2.0000           -0.4713791             -12.8269
        40        2.0000           -0.4544459             -12.3661
        41        2.0000           -0.4476515             -12.1812
        42        2.0000           -0.4376182             -11.9082
        43        2.0000           -0.4216624             -11.4740
        44        2.0000           -0.3993664             -10.8673
        45        2.0000           -0.3914498             -10.6519
        46        2.0000           -0.3863035             -10.5119
        47        2.0000           -0.3722243             -10.1287
        48        2.0000           -0.3148973              -8.5688 (HOMO)
        49                         -0.2640745              -7.1858 (LUMO)
        50                         -0.1876280              -5.1056
        51                         -0.1270447              -3.4571
        52                         -0.1128276              -3.0702
        53                         -0.1036671              -2.8209
        54                         -0.1013925              -2.7590
        55                         -0.0924829              -2.5166
        56                         -0.0836523              -2.2763
        57                         -0.0645804              -1.7573
        58                         -0.0636962              -1.7333
        59                         -0.0583146              -1.5868
       ...                                ...                  ...
       100                          0.7365637              20.0429
      -------------------------------------------------------------
                  HL-Gap            0.0508228 Eh            1.3830 eV

Wiberg/Mayer (AO) data.
largest (>0.10) Wiberg bond orders for each atom

     #   Z sym  total        # sym  WBO       # sym  WBO       # sym  WBO
 ---------------------------------------------------------------------------
     1   6 C    3.894 --    18 H    0.987    19 H    0.980    20 H    0.980
                             2 O    0.918
     2   8 O    2.183 --     3 C    1.080     1 C    0.918     4 O    0.122
     3   6 C    3.818 --     4 O    1.638     2 O    1.080     5 C    1.005
     4   8 O    1.890 --     3 C    1.638     2 O    0.122
     5   6 C    3.971 --    17 N    1.421     6 C    1.332     3 C    1.005
     6   6 C    3.863 --     5 C    1.332     8 C    1.199     7 O    0.970
                            17 N    0.180
     7   8 O    1.943 --     6 C    0.970    21 H    0.851
     8   6 C    3.920 --     9 O    1.456     6 C    1.199    10 N    1.110
     9   8 O    1.785 --     8 C    1.456    10 N    0.104
    10   7 N    3.223 --     8 C    1.110    11 C    0.935    22 H    0.915
                             9 O    0.104
    11   6 C    3.941 --    17 N    1.001    12 C    0.970    13 C    0.954
                            10 N    0.935
    12   6 C    3.995 --    25 H    0.985    23 H    0.984    24 H    0.984
                            11 C    0.970
    13   6 C    3.961 --    14 C    1.001    15 C    0.993    16 N    0.979
                            11 C    0.954
    14   6 C    3.997 --    13 C    1.001    26 H    0.987    28 H    0.984
                            27 H    0.983
    15   6 C    3.996 --    13 C    0.993    31 H    0.986    29 H    0.984
                            30 H    0.982
    16   7 N    2.968 --    13 C    0.979    33 H    0.949    32 H    0.948
    17   7 N    2.924 --     5 C    1.421    11 C    1.001     6 C    0.180
    18   1 H    1.015 --     1 C    0.987
    19   1 H    1.012 --     1 C    0.980
    20   1 H    1.013 --     1 C    0.980
    21   1 H    0.892 --     7 O    0.851
    22   1 H    0.978 --    10 N    0.915
    23   1 H    1.004 --    12 C    0.984
    24   1 H    1.013 --    12 C    0.984
    25   1 H    1.008 --    12 C    0.985
    26   1 H    1.005 --    14 C    0.987
    27   1 H    1.022 --    14 C    0.983
    28   1 H    1.019 --    14 C    0.984
    29   1 H    1.008 --    15 C    0.984
    30   1 H    1.020 --    15 C    0.982
    31   1 H    1.007 --    15 C    0.986
    32   1 H    0.965 --    16 N    0.948
    33   1 H    0.969 --    16 N    0.949
 ---------------------------------------------------------------------------

           -------------------------------------------------
          | TOTAL ENERGY              -58.562537831773 Eh   |
          | GRADIENT NORM               0.000648446503 Eh/α |
          | HOMO-LUMO GAP               1.382958051230 eV   |
           -------------------------------------------------

 * finished run on 2023/06/20 at 15:00:27.403
