   * xtb version 6.5.1 (579679a) compiled by 'ehlert@majestix' on 2022-07-11
          program call               : /lustre/hpc/kemi/ree/PhD/git/ReactivityQM/dep/xtb-6.5.1/bin/xtb --gfn 1 /lustre/hpc/kemi/ree/PhD/git/ReactivityQM/calculations/R01/reac01prodN06/conf08/R01_reac01prodN06_conf08_gfn1.xyz --opt --vfukui --chrg 1 --uhf 0 --alpb DMSO

   ID    Z sym.   atoms
    1    6 C      1, 3, 5, 6, 9, 10
    2    8 O      2, 4, 11
    3    7 N      7, 8
    4    1 H      12-20

      * Solvation model:               ALPB
        Solvent                        DMSO
        Solvent mass                       7.8130E+01 g/mol
          :  Hamiltonian                  GFN1-xTB          :
 * total energy  :   -37.5803456 Eh     change       -0.1278977E-11 Eh
 * total energy  :   -37.5918579 Eh     change       -0.1151226E-01 Eh
 * total energy  :   -37.5962413 Eh     change       -0.4383380E-02 Eh
 * total energy  :   -37.5968948 Eh     change       -0.6535226E-03 Eh
 * total energy  :   -37.5973302 Eh     change       -0.4354318E-03 Eh
 * total energy  :   -37.5974818 Eh     change       -0.1516052E-03 Eh
 * total energy  :   -37.5976292 Eh     change       -0.1473386E-03 Eh
 * total energy  :   -37.5977453 Eh     change       -0.1161438E-03 Eh
 * total energy  :   -37.5978291 Eh     change       -0.8376048E-04 Eh
 * total energy  :   -37.5979092 Eh     change       -0.8009718E-04 Eh
 * total energy  :   -37.5982465 Eh     change       -0.4970033E-05 Eh
 * total energy  :   -37.5982519 Eh     change       -0.5374540E-05 Eh
 * total energy  :   -37.5982558 Eh     change       -0.3865001E-05 Eh
 * total energy  :   -37.5982624 Eh     change       -0.6669551E-05 Eh
 * total energy  :   -37.5982706 Eh     change       -0.8184725E-05 Eh
 * total energy  :   -37.5982810 Eh     change       -0.1036428E-04 Eh
 * total energy  :   -37.5982835 Eh     change       -0.2528395E-05 Eh
 * total energy  :   -37.5982952 Eh     change       -0.1165814E-04 Eh
 * total energy  :   -37.5982995 Eh     change       -0.4333843E-05 Eh
   *** GEOMETRY OPTIMIZATION CONVERGED AFTER 32 ITERATIONS ***

 final structure:
================
20
 xtb: 6.5.1 (579679a)
C           -2.53053943285610        1.68491076196122       -0.37001726840321
O           -1.32392472435262        0.90617698947119       -0.17811983579195
C           -1.43213709934202       -0.35818251074570        0.04183940103984
O           -2.39626156783052       -1.04159297580651        0.16522912651976
C            0.02881694806754       -1.01679988993982        0.19186040726656
C           -0.03018406011968       -2.49407285875139       -0.16818323858131
N            0.40950521119125       -0.71538883472991        1.52279820408508
N            1.35855172146626        0.11116564187155        1.51940610610137
C            1.69030887373862        0.36776891878407        0.20522324855452
C            2.74587627002896        1.26801544344684       -0.23384880115197
O            0.94547673156751       -0.29681437747512       -0.59383378649685
H           -3.31879356962825        1.30755415588035        0.28148544276301
H           -2.26570944500109        2.70939003375524       -0.11969722327721
H           -2.82792402012911        1.60778601985862       -1.41550547596464
H           -0.78791138225583       -2.97220372884391        0.44921553528260
H            0.94314688657024       -2.94402813731146        0.01247643990461
H           -0.29318944049223       -2.59217379886417       -1.21903801152933
H            3.71016152733222        0.83873228948254        0.05544685961505
H            2.71501657784116        1.40921187029876       -1.31180635886225
H            2.65971399420329        2.22054298765743        0.29237622892670

          :  Hamiltonian                  GFN1-xTB          :
         :: total energy             -37.598299494862 Eh    ::
         :: gradient norm              0.000560373850 Eh/a0 ::
         :: HOMO-LUMO gap              2.228315820117 eV    ::
         :: SCC energy               -37.939319069353 Eh    ::
         :: -> Gsolv                  -0.080624631430 Eh    ::
         :: repulsion energy           0.349871434363 Eh    ::

    * Orbital Energies and Occupations

         #    Occupation            Energy/Eh            Energy/eV
      -------------------------------------------------------------
         1        2.0000           -0.9437682             -25.6812
       ...           ...                  ...                  ...
        18        2.0000           -0.6164997             -16.7758
        19        2.0000           -0.6119502             -16.6520
        20        2.0000           -0.6012249             -16.3602
        21        2.0000           -0.6011463             -16.3580
        22        2.0000           -0.5855725             -15.9342
        23        2.0000           -0.5803795             -15.7929
        24        2.0000           -0.5720519             -15.5663
        25        2.0000           -0.5667983             -15.4234
        26        2.0000           -0.5645414             -15.3620
        27        2.0000           -0.5502020             -14.9718
        28        2.0000           -0.5396400             -14.6844
        29        2.0000           -0.5357853             -14.5795
        30        2.0000           -0.5166104             -14.0577 (HOMO)
        31                         -0.4347213             -11.8294 (LUMO)
        32                         -0.3416512              -9.2968
        33                         -0.3167855              -8.6202
        34                         -0.1811303              -4.9288
        35                         -0.1647051              -4.4819
        36                         -0.1600022              -4.3539
        37                         -0.1132724              -3.0823
        38                         -0.1096850              -2.9847
        39                         -0.1013422              -2.7577
        40                         -0.0985577              -2.6819
        41                         -0.0975871              -2.6555
       ...                                ...                  ...
        62                          0.7487282              20.3739
      -------------------------------------------------------------
                  HL-Gap            0.0818891 Eh            2.2283 eV

Wiberg/Mayer (AO) data.
largest (>0.10) Wiberg bond orders for each atom

     #   Z sym  total        # sym  WBO       # sym  WBO       # sym  WBO
 ---------------------------------------------------------------------------
     1   6 C    3.814 --    13 H    0.980    12 H    0.980    14 H    0.975
                             2 O    0.836
     2   8 O    2.266 --     3 C    1.231     1 C    0.836     4 O    0.154
     3   6 C    3.864 --     4 O    1.741     2 O    1.231     5 C    0.748
     4   8 O    2.072 --     3 C    1.741     2 O    0.154
     5   6 C    3.837 --     7 N    1.075     6 C    0.933    11 O    0.905
                             3 C    0.748
     6   6 C    3.949 --    17 H    0.976    16 H    0.975    15 H    0.973
                             5 C    0.933
     7   7 N    3.010 --     8 N    1.683     5 C    1.075
     8   7 N    3.022 --     7 N    1.683     9 C    1.175
     9   6 C    3.800 --    11 O    1.307     8 N    1.175    10 C    1.087
    10   6 C    3.962 --     9 C    1.087    19 H    0.970    20 H    0.929
                            18 H    0.905
    11   8 O    2.395 --     9 C    1.307     5 C    0.905
    12   1 H    0.997 --     1 C    0.980
    13   1 H    1.002 --     1 C    0.980
    14   1 H    0.997 --     1 C    0.975
    15   1 H    0.995 --     6 C    0.973
    16   1 H    0.989 --     6 C    0.975
    17   1 H    0.990 --     6 C    0.976
    18   1 H    0.977 --    10 C    0.905
    19   1 H    0.984 --    10 C    0.970
    20   1 H    0.980 --    10 C    0.929
 ---------------------------------------------------------------------------

           -------------------------------------------------
          | TOTAL ENERGY              -37.598299494862 Eh   |
          | GRADIENT NORM               0.000560373850 Eh/α |
          | HOMO-LUMO GAP               2.228315820117 eV   |
           -------------------------------------------------

 * finished run on 2023/06/20 at 14:56:11.047
