   * xtb version 6.5.1 (579679a) compiled by 'ehlert@majestix' on 2022-07-11
          program call               : /lustre/hpc/kemi/ree/PhD/git/ReactivityQM/dep/xtb-6.5.1/bin/xtb --gfn 1 /lustre/hpc/kemi/ree/PhD/git/ReactivityQM/calculations/R02/reac01prodN12/conf08/R02_reac01prodN12_conf08_gfn1.xyz --opt --vfukui --chrg 1 --uhf 0 --alpb DMSO

   ID    Z sym.   atoms
    1    6 C      1, 3, 5, 7-10, 12, 14, 15, 18, 19, 22, 24
    2    8 O      2, 4, 13, 20, 23, 25
    3    7 N      6, 11, 16, 17, 21
    4    1 H      26-43

      * Solvation model:               ALPB
        Solvent                        DMSO
        Solvent mass                       7.8130E+01 g/mol
          :  Hamiltonian                  GFN1-xTB          :
 * total energy  :   -83.1169746 Eh     change       -0.1989520E-09 Eh
 * total energy  :   -83.1310117 Eh     change       -0.1403705E-01 Eh
 * total energy  :   -83.1362276 Eh     change       -0.5215948E-02 Eh
 * total energy  :   -83.1370596 Eh     change       -0.8319435E-03 Eh
 * total energy  :   -83.1376723 Eh     change       -0.6127800E-03 Eh
 * total energy  :   -83.1379407 Eh     change       -0.2683784E-03 Eh
 * total energy  :   -83.1381949 Eh     change       -0.2541292E-03 Eh
 * total energy  :   -83.1383598 Eh     change       -0.1649348E-03 Eh
 * total energy  :   -83.1384618 Eh     change       -0.1019823E-03 Eh
 * total energy  :   -83.1385353 Eh     change       -0.7352614E-04 Eh
 * total energy  :   -83.1391513 Eh     change       -0.8998212E-05 Eh
 * total energy  :   -83.1391644 Eh     change       -0.1300521E-04 Eh
 * total energy  :   -83.1391809 Eh     change       -0.1650813E-04 Eh
 * total energy  :   -83.1391982 Eh     change       -0.1732561E-04 Eh
 * total energy  :   -83.1392164 Eh     change       -0.1817884E-04 Eh
 * total energy  :   -83.1392320 Eh     change       -0.1568137E-04 Eh
 * total energy  :   -83.1392476 Eh     change       -0.1558639E-04 Eh
 * total energy  :   -83.1392544 Eh     change       -0.6735485E-05 Eh
 * total energy  :   -83.1392565 Eh     change       -0.2083155E-05 Eh
   *** GEOMETRY OPTIMIZATION CONVERGED AFTER 38 ITERATIONS ***

 final structure:
================
43
 xtb: 6.5.1 (579679a)
C           -5.27521390746750        2.99838770945461       -0.13060447677613
O           -4.19509221560218        2.05733544684647       -0.07040493990014
C           -4.24321990055436        1.04307672961033       -0.91844600669450
O           -5.14383779394850        0.88417317381668       -1.72348061169441
C           -3.09945971378879        0.10706641676049       -0.80471444764554
N           -2.13577960153864        0.40115883293833        0.12795749339750
C           -1.13209729153229       -0.39324523864544        0.25840666680462
C           -0.09916203855878       -0.11371944227946        1.32736620874695
C           -0.28244337844827       -1.11974245028893        2.47020093198447
C           -0.22102781894577        1.32948220631453        1.81527711174272
N            1.23640632617664       -0.31288104890020        0.70655744758099
C            2.34883271790030       -0.19869857795443        1.40671513505683
O            2.50515571191802        0.06635584376712        2.56602830858568
C            3.66593315344605       -0.53791918568649        0.54377607123722
C            4.24636379893506       -1.81532152527596        1.15110568142348
N            4.50197329173630        0.58972995732659        0.60071157600730
N            4.66639990507519        1.06553227857492       -0.56197224431510
C            3.97901040245363        0.27392256529131       -1.43775126506396
C            3.91127407105035        0.46931021683312       -2.88117549132141
O            3.37394190364191       -0.68241535758521       -0.82287151050154
N           -0.99333253541953       -1.52715351670111       -0.48996651890306
C           -1.88789501514987       -1.92922355584723       -1.47214264653001
O           -1.69795062250741       -2.94389824490133       -2.11179835899441
C           -3.02406489089870       -1.00700731945977       -1.60660069026657
O           -3.93097123781249       -1.32683430745700       -2.52304068383534
H           -5.04724873937303        3.77665240664636        0.59474077827379
H           -5.34556149528989        3.41981501053175       -1.13573195923440
H           -6.21469377679139        2.50210681471631        0.12292055176065
H            0.41184387714175       -0.90358745140427        3.27981936128215
H           -1.30127527210876       -1.04837028027191        2.84838120003262
H           -0.10544875405733       -2.13039675872503        2.10816892130589
H           -0.05748420529572        2.01618501707858        0.98668847301322
H           -1.22315522591566        1.48699287380773        2.21092917193614
H            0.50849304084459        1.52544204832301        2.59826719541515
H            1.28252137630990       -0.53621328563100       -0.27249310103660
H            4.42977693390875       -1.64367201156270        2.21011457913744
H            3.53330979559963       -2.62560958096532        1.02107531533378
H            5.17543874733533       -2.05670692254902        0.63945500728651
H            4.92579234907616        0.47507077580961       -3.28798269441556
H            3.31678326896691       -0.31035898299869       -3.35109307805349
H            3.48406777197517        1.45287255112711       -3.09256987137729
H           -0.19800149403646       -2.12909386276693       -0.35254953250389
H           -4.64889951844936       -0.64859996771441       -2.54727105827966

          :  Hamiltonian                  GFN1-xTB          :
         :: total energy             -83.139256453309 Eh    ::
         :: gradient norm              0.000379528489 Eh/a0 ::
         :: HOMO-LUMO gap              0.352462495952 eV    ::
         :: SCC energy               -83.932528031083 Eh    ::
         :: -> Gsolv                  -0.123590164186 Eh    ::
         :: repulsion energy           0.820067994541 Eh    ::

    * Orbital Energies and Occupations

         #    Occupation            Energy/Eh            Energy/eV
      -------------------------------------------------------------
         1        2.0000           -0.9374186             -25.5085
       ...           ...                  ...                  ...
        55        2.0000           -0.5329203             -14.5015
        56        2.0000           -0.5254704             -14.2988
        57        2.0000           -0.5220546             -14.2058
        58        2.0000           -0.5202603             -14.1570
        59        2.0000           -0.5158405             -14.0367
        60        2.0000           -0.5057185             -13.7613
        61        2.0000           -0.5036910             -13.7061
        62        2.0000           -0.4984120             -13.5625
        63        2.0000           -0.4979191             -13.5491
        64        2.0000           -0.4944723             -13.4553
        65        2.0000           -0.4723237             -12.8526
        66        2.0000           -0.4579295             -12.4609
        67        1.9978           -0.4411698             -12.0048 (HOMO)
        68        0.0022           -0.4282170             -11.6524 (LUMO)
        69                         -0.3351237              -9.1192
        70                         -0.3315689              -9.0224
        71                         -0.3021822              -8.2228
        72                         -0.2976008              -8.0981
        73                         -0.2509754              -6.8294
        74                         -0.1777059              -4.8356
        75                         -0.1698290              -4.6213
        76                         -0.1590336              -4.3275
        77                         -0.1479752              -4.0266
        78                         -0.1409282              -3.8349
       ...                                ...                  ...
       136                          0.7220706              19.6485
      -------------------------------------------------------------
                  HL-Gap            0.0129528 Eh            0.3525 eV

Wiberg/Mayer (AO) data.
largest (>0.10) Wiberg bond orders for each atom

     #   Z sym  total        # sym  WBO       # sym  WBO       # sym  WBO
 ---------------------------------------------------------------------------
     1   6 C    3.862 --    26 H    0.986    27 H    0.979    28 H    0.979
                             2 O    0.888
     2   8 O    2.219 --     3 C    1.141     1 C    0.888     4 O    0.131
     3   6 C    3.850 --     4 O    1.608     2 O    1.141     5 C    1.017
     4   8 O    1.948 --     3 C    1.608     2 O    0.131
     5   6 C    3.957 --    24 C    1.483     6 N    1.172     3 C    1.017
     6   7 N    3.026 --     7 C    1.598     5 C    1.172
     7   6 C    3.931 --     6 N    1.598    21 N    1.166     8 C    0.979
     8   6 C    3.907 --    10 C    0.995     9 C    0.979     7 C    0.979
                            11 N    0.877
     9   6 C    3.983 --    31 H    0.983    30 H    0.982     8 C    0.979
                            29 H    0.977
    10   6 C    3.985 --     8 C    0.995    32 H    0.984    34 H    0.981
                            33 H    0.980
    11   7 N    3.377 --    12 C    1.352    35 H    0.881     8 C    0.877
                            13 O    0.180
    12   6 C    3.908 --    13 O    1.665    11 N    1.352    14 C    0.743
    13   8 O    2.056 --    12 C    1.665    11 N    0.180
    14   6 C    3.839 --    16 N    1.110    15 C    0.913    20 O    0.908
                            12 C    0.743
    15   6 C    3.947 --    37 H    0.979    36 H    0.975    38 H    0.974
                            14 C    0.913
    16   7 N    2.998 --    17 N    1.627    14 C    1.110
    17   7 N    3.015 --    16 N    1.627    18 C    1.220
    18   6 C    3.802 --    20 O    1.268    17 N    1.220    19 C    1.079
    19   6 C    3.963 --    18 C    1.079    40 H    0.973    39 H    0.922
                            41 H    0.921
    20   8 O    2.371 --    18 C    1.268    14 C    0.908
    21   7 N    3.451 --     7 C    1.166    22 C    1.107    42 H    0.884
                            23 O    0.134
    22   6 C    3.904 --    23 O    1.621    21 N    1.107    24 C    1.048
    23   8 O    1.916 --    22 C    1.621    21 N    0.134
    24   6 C    3.917 --     5 C    1.483    25 O    1.142    22 C    1.048
    25   8 O    2.104 --    24 C    1.142    43 H    0.769
    26   1 H    1.010 --     1 C    0.986
    27   1 H    1.006 --     1 C    0.979
    28   1 H    1.005 --     1 C    0.979
    29   1 H    1.001 --     9 C    0.977
    30   1 H    0.997 --     9 C    0.982
    31   1 H    0.998 --     9 C    0.983
    32   1 H    1.003 --    10 C    0.984
    33   1 H    1.007 --    10 C    0.980
    34   1 H    1.002 --    10 C    0.981
    35   1 H    0.926 --    11 N    0.881
    36   1 H    0.994 --    15 C    0.975
    37   1 H    0.991 --    15 C    0.979
    38   1 H    0.990 --    15 C    0.974
    39   1 H    0.977 --    19 C    0.922
    40   1 H    0.985 --    19 C    0.973
    41   1 H    0.978 --    19 C    0.921
    42   1 H    0.924 --    21 N    0.884
    43   1 H    0.847 --    25 O    0.769
 ---------------------------------------------------------------------------

           -------------------------------------------------
          | TOTAL ENERGY              -83.139256453309 Eh   |
          | GRADIENT NORM               0.000379528489 Eh/α |
          | HOMO-LUMO GAP               0.352462495952 eV   |
           -------------------------------------------------

 * finished run on 2023/06/20 at 15:34:54.280
