                         Program Version 5.0.1 -  RELEASE  -
|  1> # ORCA input file
|  2> ! SP r2SCAN-3c CPCM
|  3>
|  4> %maxcore 1875.0
|  5> %pal nprocs 4 end
|  6> %cpcm smd true SMDsolvent "DMSO" end
|  7>
|  8> *xyz 1 1
|  9> C      -4.790327   -1.214264    0.691593
| 10> N      -3.375486   -1.344951    0.322485
| 11> C      -2.561083   -0.264545    0.128595
| 12> C      -3.046204    1.172504    0.262335
| 13> C      -3.758580    1.590100   -1.033001
| 14> C      -1.830576    2.088620    0.484430
| 15> N      -3.958605    1.301485    1.391160
| 16> N      -1.315984   -0.403609   -0.218080
| 17> C      -0.768645   -1.644921   -0.363624
| 18> C       0.651749   -1.700657   -0.737483
| 19> O       1.285468   -2.742054   -0.856511
| 20> N       1.211276   -0.472930   -0.961755
| 21> C       2.566309   -0.329002   -1.329397
| 22> C       3.510736   -0.034113   -0.036943
| 23> C       3.279924   -1.197872    0.950488
| 24> C       4.882014   -0.033601   -0.563201
| 25> C       5.628487    1.104265   -0.660858
| 26> C       5.088530    2.304822   -0.182945
| 27> F       5.808718    3.391948   -0.273541
| 28> C       3.819155    2.391480    0.402771
| 29> C       3.067953    1.257691    0.502958
| 30> C      -1.507362   -2.779682   -0.143117
| 31> O      -1.023434   -4.017987   -0.247154
| 32> C      -2.915180   -2.660403    0.233730
| 33> O      -3.653923   -3.608087    0.452664
| 34> H      -5.306335   -2.129869    0.401396
| 35> H      -4.872849   -1.070784    1.767921
| 36> H      -5.233651   -0.366697    0.181509
| 37> H      -4.675680    1.022812   -1.182716
| 38> H      -4.008343    2.648759   -0.981929
| 39> H      -3.099531    1.425244   -1.884134
| 40> H      -1.258845    1.750898    1.346808
| 41> H      -1.180575    2.078248   -0.388383
| 42> H      -2.172019    3.106958    0.661424
| 43> H      -3.433418    1.220011    2.251618
| 44> H      -4.373384    2.223065    1.372324
| 45> H       0.634412    0.341929   -0.803078
| 46> H       2.923242   -1.264052   -1.765326
| 47> H       2.690585    0.504161   -2.017830
| 48> H       3.459692   -2.149155    0.453016
| 49> H       2.255175   -1.167430    1.313542
| 50> H       3.962147   -1.090812    1.791544
| 51> H       5.282824   -0.979477   -0.909812
| 52> H       6.629390    1.097883   -1.075237
| 53> H       3.467799    3.344610    0.777662
| 54> H       2.086002    1.292757    0.959837
| 55> H      -0.071570   -3.993291   -0.485752
| 56> **                         ****END OF INPUT****

CARTESIAN COORDINATES (ANGSTROEM)
---------------------------------
  C     -4.790327   -1.214264    0.691593
  N     -3.375486   -1.344951    0.322485
  C     -2.561083   -0.264545    0.128595
  C     -3.046204    1.172504    0.262335
  C     -3.758580    1.590100   -1.033001
  C     -1.830576    2.088620    0.484430
  N     -3.958605    1.301485    1.391160
  N     -1.315984   -0.403609   -0.218080
  C     -0.768645   -1.644921   -0.363624
  C      0.651749   -1.700657   -0.737483
  O      1.285468   -2.742054   -0.856511
  N      1.211276   -0.472930   -0.961755
  C      2.566309   -0.329002   -1.329397
  C      3.510736   -0.034113   -0.036943
  C      3.279924   -1.197872    0.950488
  C      4.882014   -0.033601   -0.563201
  C      5.628487    1.104265   -0.660858
  C      5.088530    2.304822   -0.182945
  F      5.808718    3.391948   -0.273541
  C      3.819155    2.391480    0.402771
  C      3.067953    1.257691    0.502958
  C     -1.507362   -2.779682   -0.143117
  O     -1.023434   -4.017987   -0.247154
  C     -2.915180   -2.660403    0.233730
  O     -3.653923   -3.608087    0.452664
  H     -5.306335   -2.129869    0.401396
  H     -4.872849   -1.070784    1.767921
  H     -5.233651   -0.366697    0.181509
  H     -4.675680    1.022812   -1.182716
  H     -4.008343    2.648759   -0.981929
  H     -3.099531    1.425244   -1.884134
  H     -1.258845    1.750898    1.346808
  H     -1.180575    2.078248   -0.388383
  H     -2.172019    3.106958    0.661424
  H     -3.433418    1.220011    2.251618
  H     -4.373384    2.223065    1.372324
  H      0.634412    0.341929   -0.803078
  H      2.923242   -1.264052   -1.765326
  H      2.690585    0.504161   -2.017830
  H      3.459692   -2.149155    0.453016
  H      2.255175   -1.167430    1.313542
  H      3.962147   -1.090812    1.791544
  H      5.282824   -0.979477   -0.909812
  H      6.629390    1.097883   -1.075237
  H      3.467799    3.344610    0.777662
  H      2.086002    1.292757    0.959837
  H     -0.071570   -3.993291   -0.485752

 Total Charge           Charge          ....    1
 Multiplicity           Mult            ....    1
 Number of Electrons    NEL             ....  184
 Basis Dimension        Dim             ....  625

ORBITAL ENERGIES
----------------

  NO   OCC          E(Eh)            E(eV)
   0   2.0000     -24.560189      -668.3167
   1   2.0000     -18.995412      -516.8914
   2   2.0000     -18.946265      -515.5541
   3   2.0000     -18.928576      -515.0728
   4   2.0000     -14.237292      -387.4164
   5   2.0000     -14.204882      -386.5345
   6   2.0000     -14.163820      -385.4171
   7   2.0000     -14.132430      -384.5630
   8   2.0000     -10.194926      -277.4180
   9   2.0000     -10.152924      -276.2751
  10   2.0000     -10.145143      -276.0634
  11   2.0000     -10.121162      -275.4108
  12   2.0000     -10.120905      -275.4038
  13   2.0000     -10.104471      -274.9566
  14   2.0000     -10.100319      -274.8437
  15   2.0000     -10.100277      -274.8425
  16   2.0000     -10.097587      -274.7693
  17   2.0000     -10.086425      -274.4656
  18   2.0000     -10.082781      -274.3664
  19   2.0000     -10.080402      -274.3017
  20   2.0000     -10.080215      -274.2966
  21   2.0000     -10.054248      -273.5900
  22   2.0000     -10.041818      -273.2518
  23   2.0000     -10.021347      -272.6947
  24   2.0000     -10.012083      -272.4426
  25   2.0000      -1.258518       -34.2460
  26   2.0000      -1.055035       -28.7090
  27   2.0000      -1.030304       -28.0360
  28   2.0000      -1.017912       -27.6988
  29   2.0000      -0.965288       -26.2668
  30   2.0000      -0.922328       -25.0978
  31   2.0000      -0.886774       -24.1304
  32   2.0000      -0.875018       -23.8105
  33   2.0000      -0.864849       -23.5337
  34   2.0000      -0.792939       -21.5770
  35   2.0000      -0.772180       -21.0121
  36   2.0000      -0.766128       -20.8474
  37   2.0000      -0.718301       -19.5460
  38   2.0000      -0.713493       -19.4151
  39   2.0000      -0.680282       -18.5114
  40   2.0000      -0.679559       -18.4918
  41   2.0000      -0.656131       -17.8542
  42   2.0000      -0.638442       -17.3729
  43   2.0000      -0.635624       -17.2962
  44   2.0000      -0.631170       -17.1750
  45   2.0000      -0.601355       -16.3637
  46   2.0000      -0.572936       -15.5904
  47   2.0000      -0.560663       -15.2564
  48   2.0000      -0.560252       -15.2452
  49   2.0000      -0.537492       -14.6259
  50   2.0000      -0.525313       -14.2945
  51   2.0000      -0.511402       -13.9160
  52   2.0000      -0.501568       -13.6484
  53   2.0000      -0.489862       -13.3298
  54   2.0000      -0.484799       -13.1920
  55   2.0000      -0.469212       -12.7679
  56   2.0000      -0.460539       -12.5319
  57   2.0000      -0.454143       -12.3579
  58   2.0000      -0.448661       -12.2087
  59   2.0000      -0.441470       -12.0130
  60   2.0000      -0.439400       -11.9567
  61   2.0000      -0.435836       -11.8597
  62   2.0000      -0.425210       -11.5705
  63   2.0000      -0.422979       -11.5098
  64   2.0000      -0.414444       -11.2776
  65   2.0000      -0.411678       -11.2023
  66   2.0000      -0.405241       -11.0272
  67   2.0000      -0.399453       -10.8697
  68   2.0000      -0.390372       -10.6226
  69   2.0000      -0.382262       -10.4019
  70   2.0000      -0.375853       -10.2275
  71   2.0000      -0.369164       -10.0455
  72   2.0000      -0.367984       -10.0133
  73   2.0000      -0.360638        -9.8135
  74   2.0000      -0.356903        -9.7118
  75   2.0000      -0.355706        -9.6792
  76   2.0000      -0.347107        -9.4453
  77   2.0000      -0.344796        -9.3824
  78   2.0000      -0.342366        -9.3162
  79   2.0000      -0.339025        -9.2253
  80   2.0000      -0.337310        -9.1787
  81   2.0000      -0.329793        -8.9741
  82   2.0000      -0.328282        -8.9330
  83   2.0000      -0.313169        -8.5217
  84   2.0000      -0.287598        -7.8259
  85   2.0000      -0.273251        -7.4355
  86   2.0000      -0.269035        -7.3208
  87   2.0000      -0.251255        -6.8370
  88   2.0000      -0.247528        -6.7356
  89   2.0000      -0.237893        -6.4734
  90   2.0000      -0.210368        -5.7244
  91   2.0000      -0.205109        -5.5813
  92   0.0000      -0.161465        -4.3937
  93   0.0000      -0.090795        -2.4707
  94   0.0000      -0.072380        -1.9696
  95   0.0000      -0.040733        -1.1084
  96   0.0000       0.010786         0.2935

MULLIKEN ATOMIC CHARGES
-----------------------
   0 C :   -0.414734
   1 N :    0.234952
   2 C :    0.096052
   3 C :    0.160764
   4 C :   -0.533456
   5 C :   -0.577154
   6 N :   -0.651732
   7 N :   -0.151483
   8 C :    0.137467
   9 C :    0.078348
  10 O :   -0.515152
  11 N :   -0.028619
  12 C :   -0.461474
  13 C :    0.271822
  14 C :   -0.552923
  15 C :   -0.070573
  16 C :   -0.230844
  17 C :    0.479399
  18 F :   -0.151886
  19 C :   -0.234792
  20 C :   -0.114979
  21 C :    0.072249
  22 O :   -0.355481
  23 C :    0.089562
  24 O :   -0.435996
  25 H :    0.186012
  26 H :    0.192765
  27 H :    0.186078
  28 H :    0.173330
  29 H :    0.181409
  30 H :    0.186573
  31 H :    0.177084
  32 H :    0.174168
  33 H :    0.172083
  34 H :    0.288121
  35 H :    0.292833
  36 H :    0.316182
  37 H :    0.241814
  38 H :    0.227278
  39 H :    0.209388
  40 H :    0.192513
  41 H :    0.191340
  42 H :    0.228661
  43 H :    0.221958
  44 H :    0.221587
  45 H :    0.228891
  46 H :    0.370590
Sum of atomic charges:    1.0000000

LOEWDIN ATOMIC CHARGES
----------------------
   0 C :   -0.079369
   1 N :   -0.624172
   2 C :    0.372537
   3 C :    0.063983
   4 C :   -0.353155
   5 C :   -0.363094
   6 N :   -0.698032
   7 N :   -0.603317
   8 C :    0.194098
   9 C :    0.376915
  10 O :   -0.505453
  11 N :   -0.600770
  12 C :    0.064449
  13 C :   -0.134214
  14 C :   -0.334098
  15 C :    0.003113
  16 C :   -0.121480
  17 C :    0.336852
  18 F :   -0.198152
  19 C :   -0.119152
  20 C :    0.005299
  21 C :    0.282165
  22 O :   -0.441056
  23 C :    0.381478
  24 O :   -0.465340
  25 H :    0.202005
  26 H :    0.197045
  27 H :    0.198921
  28 H :    0.167306
  29 H :    0.170377
  30 H :    0.171683
  31 H :    0.168964
  32 H :    0.167923
  33 H :    0.162730
  34 H :    0.253413
  35 H :    0.255533
  36 H :    0.304254
  37 H :    0.226842
  38 H :    0.213967
  39 H :    0.185736
  40 H :    0.184327
  41 H :    0.174625
  42 H :    0.209937
  43 H :    0.211577
  44 H :    0.211631
  45 H :    0.209381
  46 H :    0.311787

  Mayer bond orders larger than 0.100000
B(  0-C ,  1-N ) :   0.8993 B(  0-C , 25-H ) :   0.9377 B(  0-C , 26-H ) :   0.9339
B(  0-C , 27-H ) :   0.9323 B(  1-N ,  2-C ) :   1.2652 B(  1-N , 23-C ) :   1.0583
B(  2-C ,  3-C ) :   0.8850 B(  2-C ,  7-N ) :   1.6213 B(  2-C , 21-C ) :   0.1078
B(  3-C ,  4-C ) :   0.9419 B(  3-C ,  5-C ) :   0.9648 B(  3-C ,  6-N ) :   0.8245
B(  3-C ,  7-N ) :  -0.1107 B(  4-C , 28-H ) :   0.9484 B(  4-C , 29-H ) :   0.9602
B(  4-C , 30-H ) :   0.9735 B(  5-C , 31-H ) :   0.9667 B(  5-C , 32-H ) :   0.9751
B(  5-C , 33-H ) :   0.9679 B(  6-N , 34-H ) :   0.9101 B(  6-N , 35-H ) :   0.9110
B(  7-N ,  8-C ) :   0.9933 B(  7-N ,  9-C ) :   0.1043 B(  8-C ,  9-C ) :   0.9468
B(  8-C , 21-C ) :   1.2524 B(  9-C , 10-O ) :   1.7274 B(  9-C , 11-N ) :   1.1832
B( 11-N , 12-C ) :   0.9008 B( 11-N , 36-H ) :   0.8757 B( 12-C , 13-C ) :   0.6944
B( 12-C , 37-H ) :   0.9391 B( 12-C , 38-H ) :   0.9512 B( 13-C , 14-C ) :   0.8460
B( 13-C , 15-C ) :   1.0957 B( 13-C , 20-C ) :   1.1181 B( 14-C , 39-H ) :   0.9509
B( 14-C , 40-H ) :   0.9361 B( 14-C , 41-H ) :   0.9600 B( 15-C , 16-C ) :   1.5291
B( 15-C , 42-H ) :   0.8970 B( 16-C , 17-C ) :   1.2733 B( 16-C , 43-H ) :   0.9247
B( 17-C , 18-F ) :   0.9634 B( 17-C , 19-C ) :   1.2610 B( 19-C , 20-C ) :   1.5389
B( 19-C , 44-H ) :   0.9250 B( 20-C , 45-H ) :   0.8975 B( 21-C , 22-O ) :   1.1424
B( 21-C , 23-C ) :   1.0209 B( 22-O , 46-H ) :   0.7786 B( 23-C , 24-O ) :   1.9159

Dispersion correction           -0.021982088
FINAL SINGLE POINT ENERGY     -1205.212937454919

DIPOLE MOMENT
-------------
                                X             Y             Z
Electronic contribution:     22.12137      -4.64613      -3.23819
Nuclear contribution   :    -15.99133      10.04987       3.22722
                        -----------------------------------------
Total Dipole Moment    :      6.13004       5.40374      -0.01097
                        -----------------------------------------
Magnitude (a.u.)       :      8.17177
Magnitude (Debye)      :     20.77100

Rotational constants in cm-1:     0.012991     0.003729     0.003048
Rotational constants in MHz :   389.465971   111.798507    91.366720

                             ****ORCA TERMINATED NORMALLY****
TOTAL RUN TIME: 0 days 0 hours 2 minutes 25 seconds 572 msec
