   * xtb version 6.5.1 (579679a) compiled by 'ehlert@majestix' on 2022-07-11
          program call               : /lustre/hpc/kemi/ree/PhD/git/ReactivityQM/dep/xtb-6.5.1/bin/xtb --gfn 1 /lustre/hpc/kemi/ree/PhD/git/ReactivityQM/calculations/RaltegravirCLI/reac02prodN08/conf16/RaltegravirCLI_reac02prodN08_conf16_gfn1.xyz --opt --vfukui --chrg 1 --uhf 0 --alpb DMSO

   ID    Z sym.   atoms
    1    6 C      1, 3-6, 9, 10, 13-18, 20-22, 24
    2    7 N      2, 7, 8, 12
    3    8 O      11, 23, 25
    4    9 F      19
    5    1 H      26-47

      * Solvation model:               ALPB
        Solvent                        DMSO
        Solvent mass                       7.8130E+01 g/mol
          :  Hamiltonian                  GFN1-xTB          :
 * total energy  :   -79.4743623 Eh     change       -0.1421085E-13 Eh
 * total energy  :   -79.4831643 Eh     change       -0.8802059E-02 Eh
 * total energy  :   -79.4856854 Eh     change       -0.2521028E-02 Eh
 * total energy  :   -79.4860600 Eh     change       -0.3746891E-03 Eh
 * total energy  :   -79.4864881 Eh     change       -0.4280884E-03 Eh
 * total energy  :   -79.4866895 Eh     change       -0.2013489E-03 Eh
 * total energy  :   -79.4868973 Eh     change       -0.2078612E-03 Eh
 * total energy  :   -79.4870382 Eh     change       -0.1408345E-03 Eh
 * total energy  :   -79.4871188 Eh     change       -0.8057936E-04 Eh
 * total energy  :   -79.4871820 Eh     change       -0.6320682E-04 Eh
 * total energy  :   -79.4879738 Eh     change       -0.4310546E-04 Eh
 * total energy  :   -79.4880035 Eh     change       -0.2966204E-04 Eh
 * total energy  :   -79.4880182 Eh     change       -0.1479464E-04 Eh
 * total energy  :   -79.4880325 Eh     change       -0.1423745E-04 Eh
 * total energy  :   -79.4880489 Eh     change       -0.1640889E-04 Eh
 * total energy  :   -79.4880680 Eh     change       -0.1907984E-04 Eh
 * total energy  :   -79.4880837 Eh     change       -0.1572208E-04 Eh
 * total energy  :   -79.4880909 Eh     change       -0.7161907E-05 Eh
 * total energy  :   -79.4880950 Eh     change       -0.4166576E-05 Eh
   *** GEOMETRY OPTIMIZATION CONVERGED AFTER 37 ITERATIONS ***

 final structure:
================
47
 xtb: 6.5.1 (579679a)
C           -4.79032677528284       -1.21426369617440        0.69159270856292
N           -3.37548614111378       -1.34495108154991        0.32248546554848
C           -2.56108287545949       -0.26454526012987        0.12859524980341
C           -3.04620442564406        1.17250383472509        0.26233514855882
C           -3.75858004703507        1.59010023051314       -1.03300134825005
C           -1.83057638829534        2.08861954403266        0.48442975897113
N           -3.95860451169311        1.30148500102602        1.39116031240344
N           -1.31598416688568       -0.40360851429399       -0.21808010178599
C           -0.76864453034639       -1.64492074062854       -0.36362427295649
C            0.65174895160934       -1.70065664156053       -0.73748322965415
O            1.28546764403078       -2.74205404472689       -0.85651117501149
N            1.21127639087630       -0.47293014756308       -0.96175540615962
C            2.56630871211630       -0.32900150580533       -1.32939706718396
C            3.51073595860677       -0.03411335196518       -0.03694257693523
C            3.27992413296725       -1.19787173049860        0.95048765331256
C            4.88201432880271       -0.03360109254404       -0.56320100400823
C            5.62848658334331        1.10426476170413       -0.66085841961880
C            5.08853033392470        2.30482183566122       -0.18294462770284
F            5.80871775858420        3.39194784188198       -0.27354133169003
C            3.81915515293923        2.39147988268338        0.40277080832039
C            3.06795287182890        1.25769050637569        0.50295797164751
C           -1.50736198065082       -2.77968217393828       -0.14311695244315
O           -1.02343422216116       -4.01798679180118       -0.24715403799362
C           -2.91518040788657       -2.66040284697367        0.23373020809339
O           -3.65392301143280       -3.60808710996659        0.45266442397196
H           -5.30633499443288       -2.12986922939851        0.40139601213534
H           -4.87284871770133       -1.07078421265022        1.76792121592154
H           -5.23365090738934       -0.36669715612691        0.18150937147448
H           -4.67568020644692        1.02281249671632       -1.18271590047683
H           -4.00834276655200        2.64875930114276       -0.98192949405878
H           -3.09953051456090        1.42524371889153       -1.88413355442975
H           -1.25884468387536        1.75089750229279        1.34680791786601
H           -1.18057500615011        2.07824844185403       -0.38838305587661
H           -2.17201874740094        3.10695796990872        0.66142374804967
H           -3.43341756731827        1.22001064502032        2.25161800400293
H           -4.37338362333493        2.22306473003391        1.37232370267965
H            0.63441209141831        0.34192892147602       -0.80307790418770
H            2.92324206075132       -1.26405243190648       -1.76532580431354
H            2.69058547156942        0.50416122430670       -2.01783025958807
H            3.45969194054171       -2.14915525825367        0.45301613485753
H            2.25517528068002       -1.16743048069824        1.31354185537322
H            3.96214724262715       -1.09081171768149        1.79154355422273
H            5.28282447298711       -0.97947713616733       -0.90981234516313
H            6.62938985327040        1.09788266199270       -1.07523725617983
H            3.46779877402690        3.34461032170272        0.77766179268710
H            2.08600234646510        1.29275699652210        0.95983702756122
H           -0.07157013491581       -3.99329101745554       -0.48575192035819

          :  Hamiltonian                  GFN1-xTB          :
         :: total energy             -79.488095025031 Eh    ::
         :: gradient norm              0.000416771711 Eh/a0 ::
         :: HOMO-LUMO gap              0.235665720899 eV    ::
         :: SCC energy               -80.370457330266 Eh    ::
         :: -> Gsolv                  -0.114280701424 Eh    ::
         :: repulsion energy           0.913930658495 Eh    ::

    * Orbital Energies and Occupations

         #    Occupation            Energy/Eh            Energy/eV
      -------------------------------------------------------------
         1        2.0000           -0.9371537             -25.5013
       ...           ...                  ...                  ...
        55        2.0000           -0.5206052             -14.1664
        56        2.0000           -0.5168269             -14.0636
        57        2.0000           -0.5141221             -13.9900
        58        2.0000           -0.5072456             -13.8029
        59        2.0000           -0.5016391             -13.6503
        60        2.0000           -0.4942858             -13.4502
        61        2.0000           -0.4904991             -13.3472
        62        2.0000           -0.4788941             -13.0314
        63        2.0000           -0.4714486             -12.8288
        64        2.0000           -0.4634094             -12.6100
        65        2.0000           -0.4487836             -12.2120
        66        2.0000           -0.4308682             -11.7245
        67        1.9793           -0.4204521             -11.4411 (HOMO)
        68        0.0207           -0.4117915             -11.2054 (LUMO)
        69                         -0.3297801              -8.9738
        70                         -0.3290425              -8.9537
        71                         -0.2874522              -7.8220
        72                         -0.2498862              -6.7997
        73                         -0.2425126              -6.5991
        74                         -0.1632010              -4.4409
        75                         -0.1580405              -4.3005
        76                         -0.1455393              -3.9603
        77                         -0.1428744              -3.8878
        78                         -0.1361878              -3.7059
       ...                                ...                  ...
       144                          0.7085619              19.2809
      -------------------------------------------------------------
                  HL-Gap            0.0086606 Eh            0.2357 eV

Wiberg/Mayer (AO) data.
largest (>0.10) Wiberg bond orders for each atom

     #   Z sym  total        # sym  WBO       # sym  WBO       # sym  WBO
 ---------------------------------------------------------------------------
     1   6 C    3.918 --    28 H    0.977    26 H    0.976    27 H    0.975
                             2 N    0.926
     2   7 N    3.513 --     3 C    1.193    24 C    1.111     1 C    0.926
                            25 O    0.135
     3   6 C    3.915 --     8 N    1.541     2 N    1.193     4 C    0.976
     4   6 C    3.964 --     6 C    0.986     7 N    0.986     5 C    0.980
                             3 C    0.976
     5   6 C    3.992 --    31 H    0.985    30 H    0.982     4 C    0.980
                            29 H    0.979
     6   6 C    3.990 --     4 C    0.986    32 H    0.985    34 H    0.984
                            33 H    0.982
     7   7 N    2.969 --     4 C    0.986    35 H    0.939    36 H    0.935
     8   7 N    3.046 --     3 C    1.541     9 C    1.189
     9   6 C    3.958 --    22 C    1.461     8 N    1.189    10 C    1.042
    10   6 C    3.890 --    11 O    1.573    12 N    1.173     9 C    1.042
    11   8 O    1.932 --    10 C    1.573    12 N    0.130
    12   7 N    3.387 --    10 C    1.173    13 C    1.040    37 H    0.881
                            11 O    0.130
    13   6 C    3.929 --    12 N    1.040    39 H    0.975    38 H    0.963
                            14 C    0.770
    14   6 C    3.980 --    21 C    1.102    16 C    1.101    15 C    0.932
                            13 C    0.770
    15   6 C    3.967 --    42 H    0.982    41 H    0.980    40 H    0.979
                            14 C    0.932
    16   6 C    3.934 --    17 C    1.594    14 C    1.101    43 H    0.964
    17   6 C    3.983 --    16 C    1.594    18 C    1.297    44 H    0.957
    18   6 C    3.816 --    17 C    1.297    20 C    1.296    19 F    1.025
    19   9 F    1.177 --    18 C    1.025
    20   6 C    3.983 --    21 C    1.596    18 C    1.296    45 H    0.957
    21   6 C    3.938 --    20 C    1.596    14 C    1.102    46 H    0.964
    22   6 C    3.907 --     9 C    1.461    23 O    1.125    24 C    1.066
    23   8 O    2.090 --    22 C    1.125    47 H    0.784
    24   6 C    3.913 --    25 O    1.587     2 N    1.111    22 C    1.066
    25   8 O    1.900 --    24 C    1.587     2 N    0.135
    26   1 H    1.008 --     1 C    0.976
    27   1 H    1.014 --     1 C    0.975
    28   1 H    1.022 --     1 C    0.977
    29   1 H    1.004 --     5 C    0.979
    30   1 H    0.998 --     5 C    0.982
    31   1 H    1.003 --     5 C    0.985
    32   1 H    1.007 --     6 C    0.985
    33   1 H    1.012 --     6 C    0.982
    34   1 H    1.002 --     6 C    0.984
    35   1 H    0.953 --     7 N    0.939
    36   1 H    0.950 --     7 N    0.935
    37   1 H    0.952 --    12 N    0.881
    38   1 H    1.000 --    13 C    0.963
    39   1 H    0.997 --    13 C    0.975
    40   1 H    1.002 --    15 C    0.979
    41   1 H    0.998 --    15 C    0.980
    42   1 H    0.997 --    15 C    0.982
    43   1 H    0.989 --    16 C    0.964
    44   1 H    0.986 --    17 C    0.957
    45   1 H    0.985 --    20 C    0.957
    46   1 H    0.993 --    21 C    0.964
    47   1 H    0.851 --    23 O    0.784
 ---------------------------------------------------------------------------

           -------------------------------------------------
          | TOTAL ENERGY              -79.488095025031 Eh   |
          | GRADIENT NORM               0.000416771711 Eh/α |
          | HOMO-LUMO GAP               0.235665720899 eV   |
           -------------------------------------------------

 * finished run on 2023/06/20 at 15:27:02.700
