   * xtb version 6.5.1 (579679a) compiled by 'ehlert@majestix' on 2022-07-11
          program call               : /lustre/hpc/kemi/ree/PhD/git/ReactivityQM/dep/xtb-6.5.1/bin/xtb --gfn 1 /lustre/hpc/kemi/ree/PhD/git/ReactivityQM/calculations/R03/reac02prodE01/conf10/R03_reac02prodE01_conf10_gfn1.xyz --opt --vfukui --chrg -1 --uhf 0 --alpb DMSO

   ID    Z sym.   atoms
    1    6 C      1, 3, 5, 7-10, 12, 13, 15, 18, 19, 22, 23, 25
    2    8 O      2, 4, 14, 20, 24, 26
    3    7 N      6, 11, 16, 17, 21
    4    1 H      27-46

      * Solvation model:               ALPB
        Solvent                        DMSO
        Solvent mass                       7.8130E+01 g/mol
          :  Hamiltonian                  GFN1-xTB          :
 * total energy  :   -87.0244565 Eh     change       -0.8881784E-11 Eh
 * total energy  :   -87.0394148 Eh     change       -0.1495829E-01 Eh
 * total energy  :   -87.0451976 Eh     change       -0.5782816E-02 Eh
 * total energy  :   -87.0465876 Eh     change       -0.1390017E-02 Eh
 * total energy  :   -87.0475022 Eh     change       -0.9146104E-03 Eh
 * total energy  :   -87.0481553 Eh     change       -0.6530923E-03 Eh
 * total energy  :   -87.0486411 Eh     change       -0.4857688E-03 Eh
 * total energy  :   -87.0489338 Eh     change       -0.2926922E-03 Eh
 * total energy  :   -87.0491074 Eh     change       -0.1736124E-03 Eh
 * total energy  :   -87.0492620 Eh     change       -0.1546304E-03 Eh
 * total energy  :   -87.0527484 Eh     change        0.4211642E-05 Eh
 * total energy  :   -87.0527604 Eh     change       -0.1207930E-04 Eh
 * total energy  :   -87.0527675 Eh     change       -0.7022203E-05 Eh
 * total energy  :   -87.0527744 Eh     change       -0.6965954E-05 Eh
 * total energy  :   -87.0527804 Eh     change       -0.5952519E-05 Eh
 * total energy  :   -87.0527870 Eh     change       -0.6638477E-05 Eh
 * total energy  :   -87.0527949 Eh     change       -0.7831353E-05 Eh
 * total energy  :   -87.0528022 Eh     change       -0.7298610E-05 Eh
 * total energy  :   -87.0528068 Eh     change       -0.4616609E-05 Eh
   *** GEOMETRY OPTIMIZATION CONVERGED AFTER 50 ITERATIONS ***

 final structure:
================
46
 xtb: 6.5.1 (579679a)
C            5.73038639077996       -0.06517122966694        2.78356533520686
O            4.57963698539477       -0.08083532152068        1.93600032168192
C            4.76755353615707        0.29561889663099        0.67624099293003
O            5.85516920637899        0.64287557319904        0.24550405068430
C            3.54631861790762        0.24966856360156       -0.15628696284592
N            2.38640227657681       -0.14407430116566        0.43975174687220
C            1.28661196526332       -0.24116315694661       -0.24662220989479
C            0.04722959476476       -0.71220042092308        0.53125590759780
C           -0.00883594710184       -2.24037458259144        0.35213343823114
C            0.28287706255038       -0.41538793486169        2.02445471849172
N           -1.11258760513266        0.05183163264320        0.07426253859420
C           -2.44405687314542       -0.66652471436582       -0.18162702369122
C           -3.15684165502761       -0.88785967161561        1.19186327576542
O           -2.35838060929830       -1.72109865946787       -0.94036246162699
C           -3.25208774844034        0.46418448960599       -0.91221970640792
N           -2.82219421746523        1.27006963550805       -1.83245872467060
N           -3.91774824595490        1.95938069180404       -2.31452322771059
C           -4.93656189494962        1.51839307919387       -1.65711905470209
C           -6.35422150084543        1.93073153196137       -1.79985164009314
O           -4.59178197701669        0.57477047881643       -0.75868078035412
N            1.25342969328612        0.02481641653924       -1.58934623906553
C            0.04173619148700       -0.15163864181325       -2.40201453096268
C            2.35779147016767        0.50728754724134       -2.27982609274108
O            2.28982453276818        0.81052714083210       -3.46756819118769
C            3.57802936329949        0.59533295092351       -1.48345109210604
O            4.67472228014819        1.01523065996917       -2.13277925072729
H            6.48749930033106       -0.75305052397839        2.40022932453152
H            6.14970454983770        0.94244868793355        2.82902062120091
H            5.39718807473363       -0.38113131177179        3.76975950677672
H           -0.08670097259453       -2.52809278099506       -0.69393074471838
H           -0.85442330273360       -2.66131544332305        0.89076964907752
H            0.91101057070938       -2.66331099018909        0.75888751765815
H            0.44408468526619        0.65064554725505        2.18041001869826
H           -0.58693147689777       -0.72687605626158        2.59946608913699
H            1.15593965241931       -0.95317617051138        2.39115925422041
H           -1.28476163123628        0.80045375836958        0.73752893180026
H           -2.61404074877341       -1.63118433577275        1.77082478122988
H           -3.22083038607870        0.03863052612846        1.75906548009568
H           -4.16148666987040       -1.26176870006646        0.99973602671494
H           -6.42566655647032        2.75083732802926       -2.51016823606312
H           -6.75233331860077        2.24753992231625       -0.83659903530214
H           -6.95667282038107        1.09412535818774       -2.15481640484203
H            0.34068726256901       -0.27260433880805       -3.44334746761969
H           -0.60014560288536        0.72688218556085       -2.30583204248682
H           -0.51079422100052       -1.03235600912900       -2.08107953831715
H            5.44625671910664        1.02891269349389       -1.52688786905575

          :  Hamiltonian                  GFN1-xTB          :
         :: total energy             -87.052806768929 Eh    ::
         :: gradient norm              0.000632192786 Eh/a0 ::
         :: HOMO-LUMO gap              0.944408578849 eV    ::
         :: SCC energy               -87.840867535544 Eh    ::
         :: -> Gsolv                  -0.114938856631 Eh    ::
         :: repulsion energy           0.818197662808 Eh    ::

    * Orbital Energies and Occupations

         #    Occupation            Energy/Eh            Energy/eV
      -------------------------------------------------------------
         1        2.0000           -0.8373376             -22.7851
       ...           ...                  ...                  ...
        59        2.0000           -0.4649246             -12.6512
        60        2.0000           -0.4623190             -12.5803
        61        2.0000           -0.4539592             -12.3529
        62        2.0000           -0.4496321             -12.2351
        63        2.0000           -0.4432794             -12.0622
        64        2.0000           -0.4380727             -11.9206
        65        2.0000           -0.4283884             -11.6570
        66        2.0000           -0.4182016             -11.3798
        67        2.0000           -0.4123924             -11.2218
        68        2.0000           -0.4107713             -11.1777
        69        2.0000           -0.3767372             -10.2515
        70        2.0000           -0.3564148              -9.6985
        71        2.0000           -0.3476614              -9.4603 (HOMO)
        72                         -0.3129550              -8.5159 (LUMO)
        73                         -0.2644210              -7.1953
        74                         -0.2307744              -6.2797
        75                         -0.2289427              -6.2298
        76                         -0.2140178              -5.8237
        77                         -0.1444453              -3.9306
        78                         -0.1353218              -3.6823
        79                         -0.1300955              -3.5401
        80                         -0.1083857              -2.9493
        81                         -0.1004394              -2.7331
        82                         -0.0981306              -2.6703
       ...                                ...                  ...
       144                          0.7194412              19.5770
      -------------------------------------------------------------
                  HL-Gap            0.0347064 Eh            0.9444 eV

Wiberg/Mayer (AO) data.
largest (>0.10) Wiberg bond orders for each atom

     #   Z sym  total        # sym  WBO       # sym  WBO       # sym  WBO
 ---------------------------------------------------------------------------
     1   6 C    3.871 --    29 H    0.986    28 H    0.979    27 H    0.979
                             2 O    0.897
     2   8 O    2.213 --     3 C    1.127     1 C    0.897     4 O    0.127
     3   6 C    3.843 --     4 O    1.603     2 O    1.127     5 C    1.024
     4   8 O    1.933 --     3 C    1.603     2 O    0.127
     5   6 C    3.967 --    25 C    1.473     6 N    1.199     3 C    1.024
     6   7 N    3.022 --     7 C    1.543     5 C    1.199
     7   6 C    3.911 --     6 N    1.543    21 N    1.187     8 C    0.963
     8   6 C    3.966 --    10 C    0.990    11 N    0.981     9 C    0.977
                             7 C    0.963
     9   6 C    3.993 --    32 H    0.985    30 H    0.978    31 H    0.977
                             8 C    0.977
    10   6 C    3.996 --     8 C    0.990    33 H    0.985    34 H    0.984
                            35 H    0.983
    11   7 N    2.988 --     8 C    0.981    36 H    0.948    12 C    0.849
    12   6 C    3.932 --    14 O    1.206    13 C    0.942    15 C    0.880
                            11 N    0.849
    13   6 C    3.992 --    38 H    0.989    39 H    0.984    37 H    0.981
                            12 C    0.942
    14   8 O    1.569 --    12 C    1.206
    15   6 C    3.806 --    16 N    1.648    20 O    1.049    12 C    0.880
    16   7 N    2.997 --    15 C    1.648    17 N    1.148
    17   7 N    2.975 --    18 C    1.655    16 N    1.148
    18   6 C    3.886 --    17 N    1.655    20 O    1.062    19 C    1.024
    19   6 C    3.992 --    18 C    1.024    40 H    0.985    41 H    0.971
                            42 H    0.968
    20   8 O    2.296 --    18 C    1.062    15 C    1.049
    21   7 N    3.522 --     7 C    1.187    23 C    1.133    22 C    0.921
                            24 O    0.137
    22   6 C    3.912 --    43 H    0.980    45 H    0.967    44 H    0.966
                            21 N    0.921
    23   6 C    3.919 --    24 O    1.556    21 N    1.133    25 C    1.079
    24   8 O    1.874 --    23 C    1.556    21 N    0.137
    25   6 C    3.920 --     5 C    1.473    26 O    1.102    23 C    1.079
    26   8 O    2.073 --    25 C    1.102    46 H    0.790
    27   1 H    1.007 --     1 C    0.979
    28   1 H    1.007 --     1 C    0.979
    29   1 H    1.011 --     1 C    0.986
    30   1 H    1.030 --     9 C    0.978
    31   1 H    1.021 --     9 C    0.977
    32   1 H    1.008 --     9 C    0.985
    33   1 H    1.008 --    10 C    0.985
    34   1 H    1.008 --    10 C    0.984
    35   1 H    1.018 --    10 C    0.983
    36   1 H    0.978 --    11 N    0.948
    37   1 H    1.015 --    13 C    0.981
    38   1 H    1.008 --    13 C    0.989
    39   1 H    1.016 --    13 C    0.984
    40   1 H    1.002 --    19 C    0.985
    41   1 H    1.001 --    19 C    0.971
    42   1 H    1.002 --    19 C    0.968
    43   1 H    1.014 --    22 C    0.980
    44   1 H    1.051 --    22 C    0.966
    45   1 H    1.040 --    22 C    0.967
    46   1 H    0.860 --    26 O    0.790
 ---------------------------------------------------------------------------

           -------------------------------------------------
          | TOTAL ENERGY              -87.052806768929 Eh   |
          | GRADIENT NORM               0.000632192786 Eh/α |
          | HOMO-LUMO GAP               0.944408578849 eV   |
           -------------------------------------------------

 * finished run on 2023/06/20 at 15:15:07.887
