   * xtb version 6.5.1 (579679a) compiled by 'ehlert@majestix' on 2022-07-11
          program call               : /lustre/hpc/kemi/ree/PhD/git/ReactivityQM/dep/xtb-6.5.1/bin/xtb --gfn 1 /lustre/hpc/kemi/ree/PhD/git/ReactivityQM/calculations/R03/reac02prodE01/conf04/R03_reac02prodE01_conf04_gfn1.xyz --opt --vfukui --chrg -1 --uhf 0 --alpb DMSO

   ID    Z sym.   atoms
    1    6 C      1, 3, 5, 7-10, 12, 13, 15, 18, 19, 22, 23, 25
    2    8 O      2, 4, 14, 20, 24, 26
    3    7 N      6, 11, 16, 17, 21
    4    1 H      27-46

      * Solvation model:               ALPB
        Solvent                        DMSO
        Solvent mass                       7.8130E+01 g/mol
          :  Hamiltonian                  GFN1-xTB          :
 * total energy  :   -87.0245463 Eh     change       -0.6781420E-10 Eh
 * total energy  :   -87.0386235 Eh     change       -0.1407713E-01 Eh
 * total energy  :   -87.0436200 Eh     change       -0.4996541E-02 Eh
 * total energy  :   -87.0446679 Eh     change       -0.1047875E-02 Eh
 * total energy  :   -87.0450689 Eh     change       -0.4010641E-03 Eh
 * total energy  :   -87.0452075 Eh     change       -0.1385612E-03 Eh
 * total energy  :   -87.0453070 Eh     change       -0.9944871E-04 Eh
 * total energy  :   -87.0453802 Eh     change       -0.7323515E-04 Eh
 * total energy  :   -87.0454427 Eh     change       -0.6251984E-04 Eh
 * total energy  :   -87.0454947 Eh     change       -0.5195439E-04 Eh
 * total energy  :   -87.0463972 Eh     change       -0.2141172E-04 Eh
 * total energy  :   -87.0464093 Eh     change       -0.1212155E-04 Eh
 * total energy  :   -87.0464258 Eh     change       -0.1651497E-04 Eh
 * total energy  :   -87.0464382 Eh     change       -0.1237182E-04 Eh
 * total energy  :   -87.0464534 Eh     change       -0.1517919E-04 Eh
 * total energy  :   -87.0464659 Eh     change       -0.1255045E-04 Eh
 * total energy  :   -87.0464751 Eh     change       -0.9149556E-05 Eh
 * total energy  :   -87.0464806 Eh     change       -0.5486505E-05 Eh
 * total energy  :   -87.0464848 Eh     change       -0.4257334E-05 Eh
   *** GEOMETRY OPTIMIZATION CONVERGED AFTER 41 ITERATIONS ***

 final structure:
================
46
 xtb: 6.5.1 (579679a)
C           -6.06602024255961        1.91512441140278       -2.10161975417124
O           -5.21635388476956        1.34007660241454       -1.10084786347865
C           -3.96816428253513        1.03492709498557       -1.49505517982457
O           -3.57763767931376        1.23347453645654       -2.62125701715550
C           -3.14248716563029        0.42891437443130       -0.41630754394285
N           -1.88589827197751        0.09065473821043       -0.82450856590077
C           -1.03742618761913       -0.47927190168517       -0.02523604956511
C            0.32877213039370       -0.82487355788260       -0.63431154938708
C            0.23269248855761       -2.27988878524168       -1.12465417540942
C            0.55711458750183        0.11000149004715       -1.83951879461621
N            1.36275067514325       -0.62282480095878        0.37866541770065
C            2.78292889074613       -1.16235419929350        0.04591283967581
C            2.97405397436812       -2.40286192374433        0.98346630862305
O            3.04813422884653       -1.38168382844147       -1.20638505982899
C            3.72496228167858       -0.06445347296654        0.63669859172281
N            4.86224521929061       -0.26096761980187        1.22679152714203
N            5.43094666684986        0.98168139640400        1.43408709168166
C            4.60122356262027        1.84208946806997        0.94893981783506
C            4.74522000376728        3.31818953992544        0.92234998615698
O            3.50546779067640        1.25498486130308        0.42827122433881
N           -1.38323510656271       -0.78871457584723        1.26676260533336
C           -0.48266328333597       -1.49468297204992        2.18210692300526
C           -2.60886999075711       -0.43095821629804        1.81152673874730
O           -2.87910971392949       -0.66244950103048        2.98579622920040
C           -3.53349538091140        0.20872332574463        0.87829513869763
O           -4.72589586628002        0.52170961844652        1.41503468212100
H           -5.63581146095361        2.85156728244898       -2.46315361126408
H           -7.02714956642828        2.09838841053386       -1.62821876945366
H           -6.18063216031237        1.22097982840862       -2.93715718703726
H            0.08276242802405       -2.96926090903589       -0.29522346358664
H           -0.61377201137150       -2.37185197652847       -1.80549587013441
H            1.14297357583624       -2.55754087345319       -1.65488069425163
H            1.53400850174502       -0.09263530658487       -2.27637295571547
H           -0.21142445617144       -0.04638707494964       -2.59569379772625
H            0.52293409912801        1.14977008510680       -1.51522648983270
H            1.44484440160099        0.38305505393463        0.51485629493798
H            2.32546778540401       -3.20893587859898        0.64762798423515
H            4.01068892075100       -2.73317188443018        0.92025730874692
H            2.73548588289527       -2.14909530850972        2.01474937301718
H            5.64309784902164        3.60500048521770        1.46386042935528
H            4.81660490493551        3.67311662726366       -0.10576833747765
H            3.87823311170190        3.79010851057352        1.38257677372246
H            0.04796210043031       -2.27984069293094        1.65319574795159
H            0.23747649672610       -0.79485229532071        2.60442782489548
H           -1.07871567806518       -1.93279866017433        2.98218454383100
H           -5.32429316913794        0.93981747444044        0.77502932706038

          :  Hamiltonian                  GFN1-xTB          :
         :: total energy             -87.046484809916 Eh    ::
         :: gradient norm              0.000564312100 Eh/a0 ::
         :: HOMO-LUMO gap              0.990889687628 eV    ::
         :: SCC energy               -87.837013250925 Eh    ::
         :: -> Gsolv                  -0.116169124771 Eh    ::
         :: repulsion energy           0.820344560987 Eh    ::

    * Orbital Energies and Occupations

         #    Occupation            Energy/Eh            Energy/eV
      -------------------------------------------------------------
         1        2.0000           -0.8373502             -22.7855
       ...           ...                  ...                  ...
        59        2.0000           -0.4645922             -12.6422
        60        2.0000           -0.4612807             -12.5521
        61        2.0000           -0.4555404             -12.3959
        62        2.0000           -0.4494707             -12.2307
        63        2.0000           -0.4417136             -12.0196
        64        2.0000           -0.4372681             -11.8987
        65        2.0000           -0.4276060             -11.6358
        66        2.0000           -0.4166916             -11.3388
        67        2.0000           -0.4125160             -11.2251
        68        2.0000           -0.4116941             -11.2028
        69        2.0000           -0.3790922             -10.3156
        70        2.0000           -0.3511128              -9.5543
        71        2.0000           -0.3479133              -9.4672 (HOMO)
        72                         -0.3114987              -8.4763 (LUMO)
        73                         -0.2635551              -7.1717
        74                         -0.2299358              -6.2569
        75                         -0.2279848              -6.2038
        76                         -0.2128448              -5.7918
        77                         -0.1444508              -3.9307
        78                         -0.1341697              -3.6509
        79                         -0.1293405              -3.5195
        80                         -0.1224786              -3.3328
        81                         -0.1053025              -2.8654
        82                         -0.0899699              -2.4482
       ...                                ...                  ...
       144                          0.7373449              20.0642
      -------------------------------------------------------------
                  HL-Gap            0.0364145 Eh            0.9909 eV

Wiberg/Mayer (AO) data.
largest (>0.10) Wiberg bond orders for each atom

     #   Z sym  total        # sym  WBO       # sym  WBO       # sym  WBO
 ---------------------------------------------------------------------------
     1   6 C    3.866 --    28 H    0.986    29 H    0.980    27 H    0.980
                             2 O    0.890
     2   8 O    2.198 --     3 C    1.080     1 C    0.890     4 O    0.127
     3   6 C    3.842 --     4 O    1.669     2 O    1.080     5 C    1.009
     4   8 O    1.929 --     3 C    1.669     2 O    0.127
     5   6 C    3.966 --    25 C    1.486     6 N    1.196     3 C    1.009
     6   7 N    3.027 --     7 C    1.553     5 C    1.196
     7   6 C    3.907 --     6 N    1.553    21 N    1.173     8 C    0.966
     8   6 C    3.963 --    10 C    0.985    11 N    0.983     9 C    0.977
                             7 C    0.966
     9   6 C    3.993 --    31 H    0.987    30 H    0.980     8 C    0.977
                            32 H    0.972
    10   6 C    3.994 --    35 H    0.986    34 H    0.985     8 C    0.985
                            33 H    0.975
    11   7 N    2.998 --     8 C    0.983    36 H    0.944    12 C    0.833
    12   6 C    3.935 --    14 O    1.218    13 C    0.941    15 C    0.888
                            11 N    0.833
    13   6 C    3.991 --    39 H    0.990    38 H    0.986    37 H    0.984
                            12 C    0.941
    14   8 O    1.577 --    12 C    1.218
    15   6 C    3.811 --    16 N    1.653    20 O    1.047    12 C    0.888
    16   7 N    2.969 --    15 C    1.653    17 N    1.148
    17   7 N    2.976 --    18 C    1.657    16 N    1.148
    18   6 C    3.886 --    17 N    1.657    20 O    1.062    19 C    1.024
    19   6 C    3.993 --    18 C    1.024    40 H    0.985    42 H    0.971
                            41 H    0.968
    20   8 O    2.302 --    18 C    1.062    15 C    1.047
    21   7 N    3.514 --     7 C    1.173    23 C    1.131    22 C    0.930
                            24 O    0.137
    22   6 C    3.924 --    43 H    0.977    45 H    0.977    44 H    0.975
                            21 N    0.930
    23   6 C    3.918 --    24 O    1.559    21 N    1.131    25 C    1.077
    24   8 O    1.877 --    23 C    1.559    21 N    0.137
    25   6 C    3.917 --     5 C    1.486    26 O    1.089    23 C    1.077
    26   8 O    2.071 --    25 C    1.089    46 H    0.809
    27   1 H    1.007 --     1 C    0.980
    28   1 H    1.010 --     1 C    0.986
    29   1 H    1.007 --     1 C    0.980
    30   1 H    1.009 --     9 C    0.980
    31   1 H    1.008 --     9 C    0.987
    32   1 H    1.028 --     9 C    0.972
    33   1 H    1.032 --    10 C    0.975
    34   1 H    1.018 --    10 C    0.985
    35   1 H    1.010 --    10 C    0.986
    36   1 H    0.980 --    11 N    0.944
    37   1 H    1.016 --    13 C    0.984
    38   1 H    1.021 --    13 C    0.986
    39   1 H    1.017 --    13 C    0.990
    40   1 H    1.003 --    19 C    0.985
    41   1 H    1.002 --    19 C    0.968
    42   1 H    1.001 --    19 C    0.971
    43   1 H    1.028 --    22 C    0.977
    44   1 H    1.025 --    22 C    0.975
    45   1 H    1.012 --    22 C    0.977
    46   1 H    0.859 --    26 O    0.809
 ---------------------------------------------------------------------------

           -------------------------------------------------
          | TOTAL ENERGY              -87.046484809916 Eh   |
          | GRADIENT NORM               0.000564312100 Eh/α |
          | HOMO-LUMO GAP               0.990889687628 eV   |
           -------------------------------------------------

 * finished run on 2023/06/20 at 15:15:13.786
