   * xtb version 6.5.1 (579679a) compiled by 'ehlert@majestix' on 2022-07-11
          program call               : /lustre/hpc/kemi/ree/PhD/git/ReactivityQM/dep/xtb-6.5.1/bin/xtb --gfn 1 /lustre/hpc/kemi/ree/PhD/git/ReactivityQM/calculations/RaltegravirCLI/reac02prodN16/conf19/RaltegravirCLI_reac02prodN16_conf19_gfn1.xyz --opt --vfukui --chrg 1 --uhf 0 --alpb DMSO

   ID    Z sym.   atoms
    1    6 C      1, 3-7, 9, 11, 13-16, 19, 20, 22, 24, 25
    2    9 F      2
    3    7 N      8, 12, 17, 18
    4    8 O      10, 21, 23
    5    1 H      26-47

      * Solvation model:               ALPB
        Solvent                        DMSO
        Solvent mass                       7.8130E+01 g/mol
          :  Hamiltonian                  GFN1-xTB          :
 * total energy  :   -79.4278342 Eh     change       -0.1116973E-10 Eh
 * total energy  :   -79.4434019 Eh     change       -0.1556765E-01 Eh
 * total energy  :   -79.4482669 Eh     change       -0.4865071E-02 Eh
 * total energy  :   -79.4491576 Eh     change       -0.8906498E-03 Eh
 * total energy  :   -79.4497247 Eh     change       -0.5671043E-03 Eh
 * total energy  :   -79.4500230 Eh     change       -0.2983066E-03 Eh
 * total energy  :   -79.4502012 Eh     change       -0.1782374E-03 Eh
 * total energy  :   -79.4503126 Eh     change       -0.1114001E-03 Eh
 * total energy  :   -79.4503983 Eh     change       -0.8566426E-04 Eh
 * total energy  :   -79.4504664 Eh     change       -0.6805703E-04 Eh
 * total energy  :   -79.4506491 Eh     change       -0.3631488E-04 Eh
 * total energy  :   -79.4506803 Eh     change       -0.3111905E-04 Eh
 * total energy  :   -79.4507281 Eh     change       -0.4778922E-04 Eh
 * total energy  :   -79.4507535 Eh     change       -0.2545290E-04 Eh
 * total energy  :   -79.4507775 Eh     change       -0.2395802E-04 Eh
 * total energy  :   -79.4508002 Eh     change       -0.2272235E-04 Eh
 * total energy  :   -79.4508199 Eh     change       -0.1970930E-04 Eh
 * total energy  :   -79.4508277 Eh     change       -0.7813492E-05 Eh
 * total energy  :   -79.4508325 Eh     change       -0.4793709E-05 Eh
   *** GEOMETRY OPTIMIZATION CONVERGED AFTER 24 ITERATIONS ***

 final structure:
================
47
 xtb: 6.5.1 (579679a)
C            7.19902854726012        0.22129900353605       -2.55192687282320
F            5.96331345121134        0.79957687329936       -2.08914845043076
C            5.08199597326941        0.30519325668484       -1.02289307539065
C            4.04190836076428       -0.49789733114950       -1.41400439800458
C            3.19589204327823       -0.93023743945269       -0.39994446207639
C            3.42006239853348       -0.55450602261931        0.92546757671343
C            2.48202878533040       -1.03315751574391        2.01393829024743
N            1.20131156452917       -0.34902177419002        1.93171017933367
C            0.21814860283732       -0.84106106577946        1.14417766148481
O            0.34352718727830       -1.89397302588379        0.53057017137649
C           -1.04335266910856       -0.03737634388801        1.08000965313225
N           -1.99452400440199       -0.57550826762834        0.26106935635240
C           -3.15019133135475       -0.01703921949976        0.08045603076188
C           -4.07263163378514       -0.69972344892991       -0.92342804129955
C           -3.49846883525617       -2.08067704727085       -1.28041211538402
C           -4.15233684334269        0.16036590158156       -2.19300856095032
N           -5.41211172463736       -0.85627897001171       -0.36117096242154
N           -3.48472323419168        1.15478414923612        0.71074024800435
C           -4.76345253979593        1.85583237163280        0.56056291872664
C           -2.58776765335368        1.79808135932687        1.53966563037577
O           -2.85060035250044        2.86518372725468        2.09244186724822
C           -1.31003799156534        1.13707310272334        1.72185495677906
O           -0.45066538617805        1.77349129966734        2.54397245846261
C            4.50301929674289        0.26333503527252        1.24255564007723
C            5.37140961157441        0.71282548145532        0.25246852843656
H            7.86707586933122        0.21471960600468       -1.69621578844075
H            7.51637247670168        0.89672202061241       -3.34021948028957
H            6.95051821426498       -0.77290107812839       -2.90980653693502
H            3.89253485683860       -0.77642920432517       -2.44739756614867
H            2.35673409126769       -1.57035704293899       -0.64736162510354
H            2.91164234423509       -0.83856876611983        2.99798109123128
H            2.30126513688226       -2.10679219559156        1.89965019627916
H            1.14559161200900        0.57226064470988        2.33359945246613
H           -2.51820911074772       -1.97748433697754       -1.74380580324182
H           -4.17044941973021       -2.58151631031390       -1.97518625614384
H           -3.39879652163803       -2.68918030576806       -0.38255040973366
H           -3.15109944545457        0.33943944522679       -2.58311862459995
H           -4.62601517186182        1.11808204092489       -1.98739818346137
H           -4.73663302624973       -0.36022378829571       -2.95059184575178
H           -5.38259020375419       -1.52118338804365        0.40024272214671
H           -6.02506294228934       -1.22817968607604       -1.07366050447297
H           -5.05400656279171        2.24157172271903        1.53841210190293
H           -4.63449582143831        2.69196364669683       -0.12718162125761
H           -5.52343739935293        1.17273258515471        0.19245480718391
H           -0.87597561452557        2.59438498210005        2.86118627722040
H            4.68569356007264        0.55528312175707        2.26930091251450
H            6.21856245508491        1.34507219704417        0.47562345587976

          :  Hamiltonian                  GFN1-xTB          :
         :: total energy             -79.450832505032 Eh    ::
         :: gradient norm              0.000737613154 Eh/a0 ::
         :: HOMO-LUMO gap              2.601109160727 eV    ::
         :: SCC energy               -80.349341276345 Eh    ::
         :: -> Gsolv                  -0.111130614592 Eh    ::
         :: repulsion energy           0.927595297866 Eh    ::

    * Orbital Energies and Occupations

         #    Occupation            Energy/Eh            Energy/eV
      -------------------------------------------------------------
         1        2.0000           -1.0103150             -27.4921
       ...           ...                  ...                  ...
        55        2.0000           -0.5117002             -13.9241
        56        2.0000           -0.5027439             -13.6804
        57        2.0000           -0.4955548             -13.4847
        58        2.0000           -0.4923901             -13.3986
        59        2.0000           -0.4887923             -13.3007
        60        2.0000           -0.4871947             -13.2572
        61        2.0000           -0.4718373             -12.8393
        62        2.0000           -0.4688332             -12.7576
        63        2.0000           -0.4521060             -12.3024
        64        2.0000           -0.4477490             -12.1839
        65        2.0000           -0.4389856             -11.9454
        66        2.0000           -0.4246187             -11.5545
        67        2.0000           -0.4146607             -11.2835 (HOMO)
        68                         -0.3190717              -8.6824 (LUMO)
        69                         -0.3153473              -8.5810
        70                         -0.3145353              -8.5589
        71                         -0.2770645              -7.5393
        72                         -0.2614481              -7.1144
        73                         -0.2330183              -6.3407
        74                         -0.1930174              -5.2523
        75                         -0.1848274              -5.0294
        76                         -0.1519640              -4.1352
        77                         -0.1452937              -3.9536
        78                         -0.1438500              -3.9144
       ...                                ...                  ...
       144                          0.7099740              19.3194
      -------------------------------------------------------------
                  HL-Gap            0.0955890 Eh            2.6011 eV

Wiberg/Mayer (AO) data.
largest (>0.10) Wiberg bond orders for each atom

     #   Z sym  total        # sym  WBO       # sym  WBO       # sym  WBO
 ---------------------------------------------------------------------------
     1   6 C    3.676 --    26 H    0.980    28 H    0.980    27 H    0.974
                             2 F    0.715
     2   9 F    1.438 --     1 C    0.715     3 C    0.635
     3   6 C    3.690 --    25 C    1.437     4 C    1.430     2 F    0.635
     4   6 C    3.984 --     3 C    1.430     5 C    1.426    29 H    0.961
                            24 C    0.109
     5   6 C    3.983 --     4 C    1.426     6 C    1.413    30 H    0.960
                            25 C    0.112
     6   6 C    3.984 --    24 C    1.424     5 C    1.413     7 C    0.995
     7   6 C    3.952 --     6 C    0.995    31 H    0.976    32 H    0.963
                             8 N    0.950
     8   7 N    3.331 --     9 C    1.246     7 C    0.950    33 H    0.883
                            10 O    0.164
     9   6 C    3.903 --    10 O    1.576     8 N    1.246    11 C    0.997
    10   8 O    1.887 --     9 C    1.576     8 N    0.164
    11   6 C    3.965 --    22 C    1.504    12 N    1.198     9 C    0.997
    12   7 N    3.031 --    13 C    1.563    11 C    1.198
    13   6 C    3.921 --    12 N    1.563    18 N    1.174    14 C    0.975
    14   6 C    3.965 --    15 C    0.991    16 C    0.983    17 N    0.981
                            13 C    0.975
    15   6 C    3.994 --    14 C    0.991    35 H    0.986    36 H    0.984
                            34 H    0.983
    16   6 C    3.994 --    37 H    0.986    14 C    0.983    39 H    0.983
                            38 H    0.983
    17   7 N    2.994 --    14 C    0.981    40 H    0.940    41 H    0.939
    18   7 N    3.518 --    13 C    1.174    20 C    1.139    19 C    0.926
                            21 O    0.133
    19   6 C    3.918 --    42 H    0.976    43 H    0.976    44 H    0.968
                            18 N    0.926
    20   6 C    3.918 --    21 O    1.538    18 N    1.139    22 C    1.091
    21   8 O    1.884 --    20 C    1.538    18 N    0.133
    22   6 C    3.916 --    11 C    1.504    20 C    1.091    23 O    1.072
    23   8 O    2.066 --    22 C    1.072    45 H    0.799
    24   6 C    3.987 --     6 C    1.424    25 C    1.417    46 H    0.965
                             4 C    0.109
    25   6 C    3.984 --     3 C    1.437    24 C    1.417    47 H    0.961
                             5 C    0.112
    26   1 H    0.993 --     1 C    0.980
    27   1 H    0.991 --     1 C    0.974
    28   1 H    0.993 --     1 C    0.980
    29   1 H    0.990 --     4 C    0.961
    30   1 H    1.008 --     5 C    0.960
    31   1 H    1.000 --     7 C    0.976
    32   1 H    1.007 --     7 C    0.963
    33   1 H    0.941 --     8 N    0.883
    34   1 H    1.013 --    15 C    0.983
    35   1 H    1.004 --    15 C    0.986
    36   1 H    1.009 --    15 C    0.984
    37   1 H    1.003 --    16 C    0.986
    38   1 H    1.003 --    16 C    0.983
    39   1 H    1.000 --    16 C    0.983
    40   1 H    0.956 --    17 N    0.940
    41   1 H    0.953 --    17 N    0.939
    42   1 H    1.007 --    19 C    0.976
    43   1 H    1.003 --    19 C    0.976
    44   1 H    1.028 --    19 C    0.968
    45   1 H    0.844 --    23 O    0.799
    46   1 H    0.994 --    24 C    0.965
    47   1 H    0.989 --    25 C    0.961
 ---------------------------------------------------------------------------

           -------------------------------------------------
          | TOTAL ENERGY              -79.450832505032 Eh   |
          | GRADIENT NORM               0.000737613154 Eh/α |
          | HOMO-LUMO GAP               2.601109160727 eV   |
           -------------------------------------------------

 * finished run on 2023/06/20 at 15:39:16.226
