   * xtb version 6.5.1 (579679a) compiled by 'ehlert@majestix' on 2022-07-11
          program call               : /lustre/hpc/kemi/ree/PhD/git/ReactivityQM/dep/xtb-6.5.1/bin/xtb --gfn 1 /lustre/hpc/kemi/ree/PhD/git/ReactivityQM/calculations/R02oxygendeprot/reac01prodE07/conf01/R02oxygendeprot_reac01prodE07_conf01_gfn1.xyz --opt --vfukui --chrg -2 --uhf 0 --alpb DMSO

   ID    Z sym.   atoms
    1    6 C      1, 3, 5, 7-10, 12, 14, 15, 18, 19, 22, 24
    2    8 O      2, 4, 13, 20, 23, 25
    3    7 N      6, 11, 16, 17, 21
    4    1 H      26-42

      * Solvation model:               ALPB
        Solvent                        DMSO
        Solvent mass                       7.8130E+01 g/mol
          :  Hamiltonian                  GFN1-xTB          :
 * total energy  :   -83.5835510 Eh     change       -0.8697043E-11 Eh
 * total energy  :   -83.5988482 Eh     change       -0.1529723E-01 Eh
 * total energy  :   -83.6058966 Eh     change       -0.7048437E-02 Eh
 * total energy  :   -83.6071274 Eh     change       -0.1230804E-02 Eh
 * total energy  :   -83.6077900 Eh     change       -0.6625341E-03 Eh
 * total energy  :   -83.6080343 Eh     change       -0.2443306E-03 Eh
 * total energy  :   -83.6082762 Eh     change       -0.2418613E-03 Eh
 * total energy  :   -83.6085011 Eh     change       -0.2249027E-03 Eh
 * total energy  :   -83.6087293 Eh     change       -0.2282523E-03 Eh
 * total energy  :   -83.6089340 Eh     change       -0.2046785E-03 Eh
 * total energy  :   -83.6169004 Eh     change       -0.8886461E-05 Eh
 * total energy  :   -83.6169126 Eh     change       -0.1224499E-04 Eh
 * total energy  :   -83.6169240 Eh     change       -0.1133368E-04 Eh
 * total energy  :   -83.6169317 Eh     change       -0.7743766E-05 Eh
 * total energy  :   -83.6169375 Eh     change       -0.5777252E-05 Eh
 * total energy  :   -83.6169429 Eh     change       -0.5388510E-05 Eh
 * total energy  :   -83.6169483 Eh     change       -0.5398669E-05 Eh
 * total energy  :   -83.6169535 Eh     change       -0.5209045E-05 Eh
 * total energy  :   -83.6169583 Eh     change       -0.4798184E-05 Eh
   *** GEOMETRY OPTIMIZATION CONVERGED AFTER 59 ITERATIONS ***

 final structure:
================
42
 xtb: 6.5.1 (579679a)
C            6.75321367495280       -0.08224497977918        1.94289345428563
O            5.74941039771297        0.63288690611182        1.24168995035349
C            4.57008993277970       -0.02562166088781        1.06560754296759
O            4.42761316193453       -1.16198682529037        1.50834196891586
C            3.55848164088312        0.71804681458346        0.33652873713907
N            2.38091051556669        0.00350882674431        0.17644448565299
C            1.38839449209512        0.51932892985061       -0.44958803324618
C            0.10367104291259       -0.24844574669921       -0.68675859524030
C           -0.08727107277129       -1.30332782308927        0.41391951565722
C            0.20387629939940       -0.92493589860925       -2.06227696208863
N           -0.99480340576285        0.73963950709374       -0.70820788420326
C           -2.32132125787599        0.17096026930604       -0.84153290016192
O           -2.87173046325465        0.28934609645998       -2.14920683779702
C           -3.51488644440677       -0.87547876923307       -2.62194633889526
C           -3.10102234811946        0.12640772143495        0.28536452227773
N           -2.63476460749364        0.21441784899185        1.55611286147991
N           -3.72387537188055       -0.01596348253319        2.37540015871444
C           -4.74513644064070       -0.23243363038104        1.62788468765967
C           -6.13796586960764       -0.53025715397573        2.05848820322004
O           -4.45649183925021       -0.16673921681954        0.28215640649032
N            1.45197803670691        1.78618976405046       -0.99150652877010
C            2.54284797340793        2.60136792511374       -0.90848512862360
O            2.51536571425252        3.72408890859579       -1.41803123529368
C            3.73409974778017        2.03110917835329       -0.17177685631959
O            4.76039949890654        2.73472393478205       -0.06483673297592
H            7.01770550769028       -1.00304266690188        1.41277010690180
H            7.62585765906880        0.56676418387248        2.00633664944876
H            6.41464346950708       -0.34361919605775        2.95093951217781
H           -0.29352050525143       -0.81636631183606        1.36842803610569
H            0.81520152587486       -1.90779578750558        0.50743661194854
H           -0.92678845405858       -1.95108551790450        0.16477597414365
H           -0.68830698177314       -1.51977176286703       -2.25306822573153
H            0.29513960762238       -0.16927747644317       -2.84229347230306
H            1.07452942095078       -1.57936343103699       -2.09743258031624
H           -0.96958509155729        1.22794696667382        0.19204837247862
H           -3.71406591602069       -0.73528338818311       -3.68776463653513
H           -4.46889529396531       -1.04733165780453       -2.10374808454956
H           -2.88685386018631       -1.76880241043021       -2.49175050455703
H           -6.19443570964830       -0.49317148359150        3.14469766476290
H           -6.44596917069119       -1.52141318898713        1.72128307626147
H           -6.83549858724629        0.19722031074553        1.64055557713466
H            0.62975737144065        2.13980237403682       -1.46412353860806

          :  Hamiltonian                  GFN1-xTB          :
         :: total energy             -83.616958282046 Eh    ::
         :: gradient norm              0.000328058707 Eh/a0 ::
         :: HOMO-LUMO gap              0.505265744587 eV    ::
         :: SCC energy               -84.348456271436 Eh    ::
         :: -> Gsolv                  -0.260352807775 Eh    ::
         :: repulsion energy           0.757442664063 Eh    ::

    * Orbital Energies and Occupations

         #    Occupation            Energy/Eh            Energy/eV
      -------------------------------------------------------------
         1        2.0000           -0.7914623             -21.5368
       ...           ...                  ...                  ...
        56        2.0000           -0.4430825             -12.0569
        57        2.0000           -0.4282132             -11.6523
        58        2.0000           -0.4251395             -11.5686
        59        2.0000           -0.4193554             -11.4112
        60        2.0000           -0.4149790             -11.2922
        61        2.0000           -0.4013157             -10.9204
        62        2.0000           -0.3921731             -10.6716
        63        2.0000           -0.3822891             -10.4026
        64        2.0000           -0.3721352             -10.1263
        65        2.0000           -0.3665741              -9.9750
        66        2.0000           -0.3644709              -9.9178
        67        2.0000           -0.3534653              -9.6183
        68        1.9999           -0.2788077              -7.5867 (HOMO)
        69        0.0001           -0.2602396              -7.0815 (LUMO)
        70                         -0.2216734              -6.0320
        71                         -0.1872282              -5.0947
        72                         -0.1810445              -4.9265
        73                         -0.1396717              -3.8007
        74                         -0.1190121              -3.2385
        75                         -0.1128542              -3.0709
        76                         -0.1057022              -2.8763
        77                         -0.0979013              -2.6640
        78                         -0.0939389              -2.5562
        79                         -0.0882753              -2.4021
       ...                                ...                  ...
       134                          0.7563724              20.5819
      -------------------------------------------------------------
                  HL-Gap            0.0185682 Eh            0.5053 eV

Wiberg/Mayer (AO) data.
largest (>0.10) Wiberg bond orders for each atom

     #   Z sym  total        # sym  WBO       # sym  WBO       # sym  WBO
 ---------------------------------------------------------------------------
     1   6 C    3.903 --    27 H    0.987    26 H    0.980    28 H    0.980
                             2 O    0.930
     2   8 O    2.153 --     3 C    1.036     1 C    0.930     4 O    0.107
     3   6 C    3.848 --     4 O    1.567     5 C    1.127     2 O    1.036
     4   8 O    1.844 --     3 C    1.567     2 O    0.107
     5   6 C    3.919 --    24 C    1.279     6 N    1.144     3 C    1.127
                            25 O    0.130
     6   7 N    3.022 --     7 C    1.633     5 C    1.144
     7   6 C    3.926 --     6 N    1.633    21 N    1.096     8 C    0.979
     8   6 C    3.971 --     9 C    0.988    10 C    0.982     7 C    0.979
                            11 N    0.960
     9   6 C    3.996 --     8 C    0.988    31 H    0.986    30 H    0.984
                            29 H    0.982
    10   6 C    3.994 --    34 H    0.988    33 H    0.986     8 C    0.982
                            32 H    0.978
    11   7 N    3.032 --    12 C    0.960     8 C    0.960    35 H    0.943
    12   6 C    3.679 --    15 C    1.472    11 N    0.960    13 O    0.905
                            16 N    0.149
    13   8 O    1.998 --    14 C    0.961    12 C    0.905
    14   6 C    3.934 --    36 H    0.985    37 H    0.980    38 H    0.976
                            13 O    0.961
    15   6 C    3.865 --    12 C    1.472    16 N    1.283    20 O    0.963
    16   7 N    2.835 --    15 C    1.283    17 N    1.146    12 C    0.149
                            18 C    0.116
    17   7 N    2.988 --    18 C    1.679    16 N    1.146
    18   6 C    3.884 --    17 N    1.679    19 C    1.018    20 O    0.991
                            16 N    0.116
    19   6 C    3.996 --    18 C    1.018    39 H    0.987    41 H    0.976
                            40 H    0.975
    20   8 O    2.184 --    18 C    0.991    15 C    0.963
    21   7 N    3.440 --    22 C    1.181     7 C    1.096    42 H    0.890
                            23 O    0.136
    22   6 C    3.884 --    23 O    1.556    21 N    1.181    24 C    0.973
    23   8 O    1.837 --    22 C    1.556    21 N    0.136
    24   6 C    3.944 --    25 O    1.503     5 C    1.279    22 C    0.973
    25   8 O    1.808 --    24 C    1.503     5 C    0.130
    26   1 H    1.015 --     1 C    0.980
    27   1 H    1.016 --     1 C    0.987
    28   1 H    1.015 --     1 C    0.980
    29   1 H    1.031 --     9 C    0.982
    30   1 H    1.019 --     9 C    0.984
    31   1 H    1.016 --     9 C    0.986
    32   1 H    1.014 --    10 C    0.978
    33   1 H    1.011 --    10 C    0.986
    34   1 H    1.008 --    10 C    0.988
    35   1 H    0.993 --    11 N    0.943
    36   1 H    1.023 --    14 C    0.985
    37   1 H    1.029 --    14 C    0.980
    38   1 H    1.030 --    14 C    0.976
    39   1 H    1.008 --    19 C    0.987
    40   1 H    1.007 --    19 C    0.975
    41   1 H    1.007 --    19 C    0.976
    42   1 H    0.968 --    21 N    0.890
 ---------------------------------------------------------------------------

           -------------------------------------------------
          | TOTAL ENERGY              -83.616958282046 Eh   |
          | GRADIENT NORM               0.000328058707 Eh/α |
          | HOMO-LUMO GAP               0.505265744587 eV   |
           -------------------------------------------------

 * finished run on 2023/06/21 at 17:08:50.616
