   * xtb version 6.5.1 (579679a) compiled by 'ehlert@majestix' on 2022-07-11
          program call               : /lustre/hpc/kemi/ree/PhD/git/ReactivityQM/dep/xtb-6.5.1/bin/xtb --gfn 1 /lustre/hpc/kemi/ree/PhD/git/ReactivityQM/calculations/R03/reac02prodN01/conf20/R03_reac02prodN01_conf20_gfn1.xyz --opt --vfukui --chrg 1 --uhf 0 --alpb DMSO

   ID    Z sym.   atoms
    1    6 C      1, 3, 5, 7-10, 12, 14, 17, 18, 20, 22, 23, 25
    2    8 O      2, 4, 13, 19, 24, 26
    3    7 N      6, 11, 15, 16, 21
    4    1 H      27-46

      * Solvation model:               ALPB
        Solvent                        DMSO
        Solvent mass                       7.8130E+01 g/mol
          :  Hamiltonian                  GFN1-xTB          :
 * total energy  :   -86.2621417 Eh     change       -0.5826450E-11 Eh
 * total energy  :   -86.2810093 Eh     change       -0.1886760E-01 Eh
 * total energy  :   -86.2897595 Eh     change       -0.8750161E-02 Eh
 * total energy  :   -86.2922545 Eh     change       -0.2494979E-02 Eh
 * total energy  :   -86.2936959 Eh     change       -0.1441432E-02 Eh
 * total energy  :   -86.2943234 Eh     change       -0.6275538E-03 Eh
 * total energy  :   -86.2947478 Eh     change       -0.4243821E-03 Eh
 * total energy  :   -86.2950834 Eh     change       -0.3355451E-03 Eh
 * total energy  :   -86.2953101 Eh     change       -0.2266979E-03 Eh
 * total energy  :   -86.2954683 Eh     change       -0.1582032E-03 Eh
 * total energy  :   -86.2968290 Eh     change       -0.3344089E-04 Eh
 * total energy  :   -86.2968442 Eh     change       -0.1516412E-04 Eh
 * total energy  :   -86.2968588 Eh     change       -0.1465280E-04 Eh
 * total energy  :   -86.2968670 Eh     change       -0.8232963E-05 Eh
 * total energy  :   -86.2968735 Eh     change       -0.6422505E-05 Eh
 * total energy  :   -86.2968829 Eh     change       -0.9405284E-05 Eh
 * total energy  :   -86.2968872 Eh     change       -0.4305652E-05 Eh
 * total energy  :   -86.2968922 Eh     change       -0.5032737E-05 Eh
 * total energy  :   -86.2968970 Eh     change       -0.4766790E-05 Eh
   *** GEOMETRY OPTIMIZATION CONVERGED AFTER 38 ITERATIONS ***

 final structure:
================
46
 xtb: 6.5.1 (579679a)
C           -6.64621381203971       -2.62660535201004        0.20193537264809
O           -5.71969297673934       -1.54232075775890        0.32367887604542
C           -4.53120686169002       -1.70925255696476       -0.24899817385947
O           -4.21686195253092       -2.70983391997132       -0.85206067572445
C           -3.62125981521728       -0.53834432664897       -0.07097130898288
N           -2.38578970194840       -0.70913616649093       -0.63481346224194
C           -1.47224797194139        0.20076407441193       -0.56966792004307
C           -0.16147465328098       -0.12337655099067       -1.27307480252247
C           -0.15819106035748       -1.59771018283868       -1.69792146648264
C            0.01639454990842        0.77491522737591       -2.50413007808992
N            0.93595742756929        0.06620794366444       -0.30260543750603
C            2.22995916126793       -0.00574214334540       -0.63589552441648
O            2.70203501939429       -0.14242555100139       -1.74711301499437
C            3.10129239540643        0.13431599319139        0.57223147677278
N            2.76853403418689        0.28902868810752        1.79744824557703
N            3.90291527020440        0.37726174630429        2.55485007054959
C            4.92280645441241        0.27692899306656        1.79034765175402
C            6.35217671151569        0.30755839226726        2.13491071722002
O            4.49138560229634        0.11198538992494        0.46816050306845
C            5.27500975201250       -0.05063869148727       -0.75985406922094
N           -1.68939278995187        1.40153130621455        0.05964559788991
C           -0.73407399124641        2.50669951293023        0.14876148029487
C           -2.90652016025896        1.68031238411071        0.65789377433432
O           -3.12672254520638        2.74849019851001        1.21737952451580
C           -3.91022751047904        0.62767170564019        0.58116028861790
O           -5.07672938468537        0.90762576301746        1.16847593971884
H           -7.55040680782755       -2.32320006241370        0.72608416851967
H           -6.86285106929326       -2.81855002301640       -0.85167161586177
H           -6.22813955593756       -3.52864484469872        0.65514496672683
H           -0.96245101441072       -1.77451138029927       -2.41013641413855
H           -0.30644275550489       -2.23789224005586       -0.83017478837685
H            0.79474647909390       -1.83808200710456       -2.16426504717091
H            0.82882610816420        0.40405934862165       -3.12523955822198
H            0.23806324797289        1.80025290646344       -2.22049890125931
H           -0.90519454125644        0.75952162451566       -3.08516490007262
H            0.70257547202020        0.05583525819513        0.67874916277437
H            6.86042102030739        1.10479303790147        1.59185224351549
H            6.82657679785888       -0.63955599346478        1.87452668060447
H            6.44674449552838        0.47821541464270        3.20625239464345
H            5.03536091842474        0.78777411534997       -1.41031142009670
H            4.98162002835685       -0.99818433870668       -1.20662565556803
H            6.31925705797318       -0.04903256615831       -0.46442724789844
H           -0.76067053691391        2.89130312205644        1.16841766959098
H           -1.04280991656710        3.29568930311536       -0.53734655219915
H            0.26730711865468        2.17365837564484       -0.08941283170041
H           -5.02439473724892        1.80063683017799        1.55832006126677

          :  Hamiltonian                  GFN1-xTB          :
         :: total energy             -86.296896974161 Eh    ::
         :: gradient norm              0.000535238022 Eh/a0 ::
         :: HOMO-LUMO gap              1.880068178815 eV    ::
         :: SCC energy               -87.136718576378 Eh    ::
         :: -> Gsolv                  -0.126035038120 Eh    ::
         :: repulsion energy           0.868959979949 Eh    ::

    * Orbital Energies and Occupations

         #    Occupation            Energy/Eh            Energy/eV
      -------------------------------------------------------------
         1        2.0000           -0.9703049             -26.4033
       ...           ...                  ...                  ...
        58        2.0000           -0.5214798             -14.1902
        59        2.0000           -0.5171935             -14.0736
        60        2.0000           -0.5168455             -14.0641
        61        2.0000           -0.5142279             -13.9929
        62        2.0000           -0.5115647             -13.9204
        63        2.0000           -0.4998652             -13.6020
        64        2.0000           -0.4968927             -13.5211
        65        2.0000           -0.4904457             -13.3457
        66        2.0000           -0.4837812             -13.1644
        67        2.0000           -0.4808796             -13.0854
        68        2.0000           -0.4666079             -12.6970
        69        2.0000           -0.4554582             -12.3936
        70        2.0000           -0.4373379             -11.9006 (HOMO)
        71                         -0.3682466             -10.0205 (LUMO)
        72                         -0.3298281              -8.9751
        73                         -0.3161436              -8.6027
        74                         -0.2938710              -7.9966
        75                         -0.2490015              -6.7757
        76                         -0.2461289              -6.6975
        77                         -0.1912697              -5.2047
        78                         -0.1764649              -4.8019
        79                         -0.1645634              -4.4780
        80                         -0.1509743              -4.1082
        81                         -0.1401488              -3.8136
       ...                                ...                  ...
       144                          0.7268310              19.7781
      -------------------------------------------------------------
                  HL-Gap            0.0690912 Eh            1.8801 eV

Wiberg/Mayer (AO) data.
largest (>0.10) Wiberg bond orders for each atom

     #   Z sym  total        # sym  WBO       # sym  WBO       # sym  WBO
 ---------------------------------------------------------------------------
     1   6 C    3.870 --    27 H    0.986    29 H    0.980    28 H    0.979
                             2 O    0.895
     2   8 O    2.206 --     3 C    1.119     1 C    0.895     4 O    0.136
     3   6 C    3.852 --     4 O    1.658     2 O    1.119     5 C    0.996
     4   8 O    1.920 --     3 C    1.658     2 O    0.136
     5   6 C    3.962 --    25 C    1.494     6 N    1.184     3 C    0.996
     6   7 N    3.035 --     7 C    1.583     5 C    1.184
     7   6 C    3.934 --     6 N    1.583    21 N    1.164     8 C    0.976
     8   6 C    3.915 --     9 C    0.988    10 C    0.983     7 C    0.976
                            11 N    0.900
     9   6 C    3.986 --     8 C    0.988    31 H    0.984    32 H    0.983
                            30 H    0.982
    10   6 C    3.985 --     8 C    0.983    35 H    0.983    34 H    0.980
                            33 H    0.977
    11   7 N    3.384 --    12 C    1.291     8 C    0.900    36 H    0.890
                            13 O    0.191
    12   6 C    3.926 --    13 O    1.591    11 N    1.291    14 C    0.969
    13   8 O    1.947 --    12 C    1.591    11 N    0.191
    14   6 C    3.803 --    15 N    1.703    12 C    0.969    19 O    0.889
    15   7 N    3.045 --    14 C    1.703    16 N    1.149
    16   7 N    3.024 --    17 C    1.694    15 N    1.149
    17   6 C    3.801 --    16 N    1.694    18 C    1.044    19 O    0.877
    18   6 C    3.968 --    17 C    1.044    39 H    0.969    37 H    0.951
                            38 H    0.949
    19   8 O    2.656 --    14 C    0.889    17 C    0.877    20 C    0.744
    20   6 C    3.720 --    42 H    0.974    40 H    0.968    41 H    0.967
                            19 O    0.744
    21   7 N    3.507 --     7 C    1.164    23 C    1.129    22 C    0.927
                            24 O    0.135
    22   6 C    3.919 --    45 H    0.979    43 H    0.974    44 H    0.974
                            21 N    0.927
    23   6 C    3.913 --    24 O    1.562    21 N    1.129    25 C    1.073
    24   8 O    1.904 --    23 C    1.562    21 N    0.135
    25   6 C    3.922 --     5 C    1.494    26 O    1.112    23 C    1.073
    26   8 O    2.089 --    25 C    1.112    46 H    0.803
    27   1 H    1.010 --     1 C    0.986
    28   1 H    1.007 --     1 C    0.979
    29   1 H    1.007 --     1 C    0.980
    30   1 H    1.008 --     9 C    0.982
    31   1 H    1.007 --     9 C    0.984
    32   1 H    1.002 --     9 C    0.983
    33   1 H    1.007 --    10 C    0.977
    34   1 H    1.000 --    10 C    0.980
    35   1 H    1.000 --    10 C    0.983
    36   1 H    0.938 --    11 N    0.890
    37   1 H    0.988 --    18 C    0.951
    38   1 H    0.987 --    18 C    0.949
    39   1 H    0.989 --    18 C    0.969
    40   1 H    0.998 --    20 C    0.968
    41   1 H    0.999 --    20 C    0.967
    42   1 H    0.990 --    20 C    0.974
    43   1 H    1.004 --    22 C    0.974
    44   1 H    0.999 --    22 C    0.974
    45   1 H    1.007 --    22 C    0.979
    46   1 H    0.845 --    26 O    0.803
 ---------------------------------------------------------------------------

           -------------------------------------------------
          | TOTAL ENERGY              -86.296896974161 Eh   |
          | GRADIENT NORM               0.000535238022 Eh/α |
          | HOMO-LUMO GAP               1.880068178815 eV   |
           -------------------------------------------------

 * finished run on 2023/06/20 at 15:36:32.840
