   * xtb version 6.5.1 (579679a) compiled by 'ehlert@majestix' on 2022-07-11
          program call               : /lustre/hpc/kemi/ree/PhD/git/ReactivityQM/dep/xtb-6.5.1/bin/xtb --gfn 1 /lustre/hpc/kemi/ree/PhD/git/ReactivityQM/calculations/R01/reac02prodN10/conf17/R01_reac02prodN10_conf17_gfn1.xyz --opt --vfukui --chrg 1 --uhf 0 --alpb DMSO

   ID    Z sym.   atoms
    1    6 C      1, 3, 4, 6, 8-11, 14, 16
    2    8 O      2, 5, 15, 17
    3    7 N      7, 12, 13
    4    1 H      18-33

      * Solvation model:               ALPB
        Solvent                        DMSO
        Solvent mass                       7.8130E+01 g/mol
          :  Hamiltonian                  GFN1-xTB          :
 * total energy  :   -57.7956549 Eh     change       -0.1152500E-10 Eh
 * total energy  :   -57.8052829 Eh     change       -0.9628022E-02 Eh
 * total energy  :   -57.8077989 Eh     change       -0.2515983E-02 Eh
 * total energy  :   -57.8082302 Eh     change       -0.4312995E-03 Eh
 * total energy  :   -57.8085847 Eh     change       -0.3545345E-03 Eh
 * total energy  :   -57.8087945 Eh     change       -0.2097857E-03 Eh
 * total energy  :   -57.8089827 Eh     change       -0.1881580E-03 Eh
 * total energy  :   -57.8091234 Eh     change       -0.1406620E-03 Eh
 * total energy  :   -57.8092196 Eh     change       -0.9624101E-04 Eh
 * total energy  :   -57.8092892 Eh     change       -0.6960874E-04 Eh
 * total energy  :   -57.8094168 Eh     change       -0.1880771E-04 Eh
 * total energy  :   -57.8094263 Eh     change       -0.9536461E-05 Eh
 * total energy  :   -57.8094404 Eh     change       -0.1404856E-04 Eh
 * total energy  :   -57.8094518 Eh     change       -0.1141050E-04 Eh
 * total energy  :   -57.8094656 Eh     change       -0.1375717E-04 Eh
 * total energy  :   -57.8094723 Eh     change       -0.6696202E-05 Eh
 * total energy  :   -57.8094710 Eh     change        0.1250903E-05 Eh
 * total energy  :   -57.8094772 Eh     change       -0.6202620E-05 Eh
 * total energy  :   -57.8094800 Eh     change       -0.2798984E-05 Eh
   *** GEOMETRY OPTIMIZATION CONVERGED AFTER 23 ITERATIONS ***

 final structure:
================
33
 xtb: 6.5.1 (579679a)
C            4.08347726386588        1.00976102725396        0.55868607216830
O            2.69166608660664        0.57010020201023        0.49050309867640
C            2.14585337883392        0.13865470577535        1.77995601462622
C            2.42268007890541       -0.25932546799430       -0.71103439483372
O            3.37834296371598       -0.59559165009614       -1.34041466487121
C            1.03623777460547       -0.49397343770122       -1.00566701251180
N            0.08313471839880        0.03092286482021       -0.17266562662354
C           -1.16810813024329       -0.18484583385288       -0.40597007259490
C           -2.20280325149906        0.34912209418990        0.55726569681065
C           -3.18113906720361        1.28023607569175       -0.18050877318759
C           -2.94695192639653       -0.82719803806460        1.20418540847451
N           -1.48487344743578        1.06712150992221        1.60167880229803
N           -1.57830184827196       -0.90251215224549       -1.49125028521089
C           -0.73564657284591       -1.46637321670021       -2.42611257650232
O           -1.15789089945081       -2.08835347009111       -3.37611077757072
C            0.69521692713438       -1.23202119137616       -2.12781273240137
O            1.54658206591998       -1.76425060792374       -2.97927623559710
H            4.33430382959981        1.41352155968668       -0.41913917816439
H            4.12392077699775        1.78302871826921        1.32059470917158
H            4.72178968924045        0.16320167399958        0.81012768900624
H            2.47950218886259        0.87073759130428        2.51025138422400
H            2.52070513020894       -0.85548078874242        2.01749326256438
H            1.06022061146757        0.15714652254851        1.68972504439656
H           -3.73623133402834        0.73127220138666       -0.93957916056819
H           -2.63507768041374        2.09342264701749       -0.65585642581328
H           -3.88591789811835        1.69971727642830        0.53520924333748
H           -2.23921018420610       -1.45713972191602        1.74154229873139
H           -3.45674555528616       -1.42334434794399        0.44935285211808
H           -3.68436536371270       -0.44458935565380        1.90798519734702
H           -2.14564860770405        1.42171590507999        2.28040583958325
H           -1.00188081954985        1.85594125452475        1.19186306440364
H           -2.56628262184467       -1.04647296665548       -1.65388699344487
H            2.48344172385113       -1.59415358300869       -2.76154076807763

          :  Hamiltonian                  GFN1-xTB          :
         :: total energy             -57.809480007341 Eh    ::
         :: gradient norm              0.000448345025 Eh/a0 ::
         :: HOMO-LUMO gap              1.223176673517 eV    ::
         :: SCC energy               -58.390785067096 Eh    ::
         :: -> Gsolv                  -0.103546261246 Eh    ::
         :: repulsion energy           0.600572145030 Eh    ::

    * Orbital Energies and Occupations

         #    Occupation            Energy/Eh            Energy/eV
      -------------------------------------------------------------
         1        2.0000           -0.9314793             -25.3468
       ...           ...                  ...                  ...
        35        2.0000           -0.5543027             -15.0833
        36        2.0000           -0.5485543             -14.9269
        37        2.0000           -0.5446958             -14.8219
        38        2.0000           -0.5319484             -14.4751
        39        2.0000           -0.5266144             -14.3299
        40        2.0000           -0.5161636             -14.0455
        41        2.0000           -0.5131223             -13.9628
        42        2.0000           -0.5089780             -13.8500
        43        2.0000           -0.4988981             -13.5757
        44        2.0000           -0.4852686             -13.2048
        45        2.0000           -0.4746041             -12.9146
        46        2.0000           -0.4594430             -12.5021
        47        2.0000           -0.4241461             -11.5416 (HOMO)
        48                         -0.3791952             -10.3184 (LUMO)
        49                         -0.3094306              -8.4200
        50                         -0.2860683              -7.7843
        51                         -0.1959974              -5.3334
        52                         -0.1816071              -4.9418
        53                         -0.1681238              -4.5749
        54                         -0.1483147              -4.0358
        55                         -0.1335301              -3.6335
        56                         -0.1308665              -3.5611
        57                         -0.1276447              -3.4734
        58                         -0.1227081              -3.3391
       ...                                ...                  ...
       100                          0.7187703              19.5587
      -------------------------------------------------------------
                  HL-Gap            0.0449509 Eh            1.2232 eV

Wiberg/Mayer (AO) data.
largest (>0.10) Wiberg bond orders for each atom

     #   Z sym  total        # sym  WBO       # sym  WBO       # sym  WBO
 ---------------------------------------------------------------------------
     1   6 C    3.781 --    20 H    0.979    19 H    0.977    18 H    0.974
                             2 O    0.809
     2   8 O    2.505 --     1 C    0.809     3 C    0.795     4 C    0.780
     3   6 C    3.769 --    22 H    0.982    21 H    0.977    23 H    0.958
                             2 O    0.795
     4   6 C    3.804 --     5 O    1.746     6 C    1.128     2 O    0.780
     5   8 O    2.066 --     4 C    1.746
     6   6 C    3.959 --    16 C    1.410     7 N    1.160     4 C    1.128
     7   7 N    3.048 --     8 C    1.573     6 C    1.160
     8   6 C    3.909 --     7 N    1.573    13 N    1.168     9 C    0.983
     9   6 C    3.966 --    12 N    0.995     8 C    0.983    11 C    0.979
                            10 C    0.973
    10   6 C    3.991 --    25 H    0.985    26 H    0.982    24 H    0.982
                             9 C    0.973
    11   6 C    3.991 --    27 H    0.985    28 H    0.984    29 H    0.982
                             9 C    0.979
    12   7 N    2.961 --     9 C    0.995    31 H    0.941    30 H    0.938
    13   7 N    3.469 --     8 C    1.168    14 C    1.133    32 H    0.877
                            15 O    0.142
    14   6 C    3.913 --    15 O    1.635    13 N    1.133    16 C    1.023
    15   8 O    1.937 --    14 C    1.635    13 N    0.142
    16   6 C    3.909 --     6 C    1.410    17 O    1.179    14 C    1.023
    17   8 O    2.154 --    16 C    1.179    33 H    0.780
    18   1 H    0.997 --     1 C    0.974
    19   1 H    0.995 --     1 C    0.977
    20   1 H    0.994 --     1 C    0.979
    21   1 H    0.994 --     3 C    0.977
    22   1 H    0.992 --     3 C    0.982
    23   1 H    1.034 --     3 C    0.958
    24   1 H    0.998 --    10 C    0.982
    25   1 H    1.001 --    10 C    0.985
    26   1 H    1.000 --    10 C    0.982
    27   1 H    1.004 --    11 C    0.985
    28   1 H    0.999 --    11 C    0.984
    29   1 H    0.998 --    11 C    0.982
    30   1 H    0.952 --    12 N    0.938
    31   1 H    0.962 --    12 N    0.941
    32   1 H    0.924 --    13 N    0.877
    33   1 H    0.830 --    17 O    0.780
 ---------------------------------------------------------------------------

           -------------------------------------------------
          | TOTAL ENERGY              -57.809480007341 Eh   |
          | GRADIENT NORM               0.000448345025 Eh/α |
          | HOMO-LUMO GAP               1.223176673517 eV   |
           -------------------------------------------------

 * finished run on 2023/06/20 at 15:10:14.302
