   * xtb version 6.5.1 (579679a) compiled by 'ehlert@majestix' on 2022-07-11
          program call               : /lustre/hpc/kemi/ree/PhD/git/ReactivityQM/dep/xtb-6.5.1/bin/xtb --gfn 1 /lustre/hpc/kemi/ree/PhD/git/ReactivityQM/calculations/R03/reac02prodE05/conf05/R03_reac02prodE05_conf05_gfn1.xyz --opt --vfukui --chrg -1 --uhf 0 --alpb DMSO

   ID    Z sym.   atoms
    1    6 C      1, 3, 5, 6, 8, 11-15, 17, 19, 22, 23, 26
    2    8 O      2, 4, 7, 9, 18, 24
    3    7 N      10, 16, 20, 21, 25
    4    1 H      27-46

      * Solvation model:               ALPB
        Solvent                        DMSO
        Solvent mass                       7.8130E+01 g/mol
          :  Hamiltonian                  GFN1-xTB          :
 * total energy  :   -86.9699494 Eh     change       -0.3196021E-10 Eh
 * total energy  :   -86.9824858 Eh     change       -0.1253639E-01 Eh
 * total energy  :   -86.9892520 Eh     change       -0.6766167E-02 Eh
 * total energy  :   -86.9913233 Eh     change       -0.2071281E-02 Eh
 * total energy  :   -86.9929498 Eh     change       -0.1626493E-02 Eh
 * total energy  :   -86.9940437 Eh     change       -0.1093925E-02 Eh
 * total energy  :   -86.9948716 Eh     change       -0.8279239E-03 Eh
 * total energy  :   -86.9957858 Eh     change       -0.9141625E-03 Eh
 * total energy  :   -86.9967433 Eh     change       -0.9575524E-03 Eh
 * total energy  :   -86.9977168 Eh     change       -0.9734484E-03 Eh
 * total energy  :   -87.0157068 Eh     change       -0.3729552E-04 Eh
 * total energy  :   -87.0157183 Eh     change       -0.1152437E-04 Eh
 * total energy  :   -87.0157493 Eh     change       -0.3101330E-04 Eh
 * total energy  :   -87.0157611 Eh     change       -0.1179875E-04 Eh
 * total energy  :   -87.0157655 Eh     change       -0.4361176E-05 Eh
 * total energy  :   -87.0157864 Eh     change       -0.2089710E-04 Eh
 * total energy  :   -87.0157919 Eh     change       -0.5552879E-05 Eh
 * total energy  :   -87.0157981 Eh     change       -0.6231073E-05 Eh
 * total energy  :   -87.0158013 Eh     change       -0.3160912E-05 Eh
   *** GEOMETRY OPTIMIZATION CONVERGED AFTER 79 ITERATIONS ***

 final structure:
================
46
 xtb: 6.5.1 (579679a)
C           -0.60025744068897        2.90444573459758       -2.05085727769430
O           -0.89520242939884        1.74726781554337       -1.27881070617245
C           -1.70332379083401        1.93609106404145       -0.20119935573021
O           -2.14221182249561        3.05740750533802        0.07574545052623
C           -1.99795119932756        0.73698916360679        0.52679994002008
C           -2.69056298459216        0.73813739103474        1.72444327040423
O           -3.16353203039291        1.87915329458429        2.28873081836826
C           -2.79551805552753       -0.48274934565327        2.50717151264909
O           -3.61819978740605       -0.67827582161901        3.43299562208560
N           -1.83648898308271       -1.41199252808571        2.18823601271798
C           -1.77683184421787       -2.59605771845323        3.04531664498848
C           -1.03520985529047       -1.38266749016485        1.02596936329079
C            0.47423674468604       -1.15127111899086        1.25355072727085
C            1.17673728174046       -2.47722810239520        1.59422530081579
C            0.77570862964527       -0.10259608361937        2.34444504177271
N            1.00169204476787       -0.66354781941402       -0.02735678777986
C            2.27049179647238       -0.34549231482540       -0.28358825865501
O            3.22292827319726       -0.46314052934095        0.47953025526888
C            2.42906692107521        0.18484457679548       -1.67251141268286
N            1.49719219610922        0.32059160317741       -2.56580847853404
N            2.08878175340381        0.84918559225817       -3.67776721053822
C            3.34443584190201        0.99907563868985       -3.39044159785970
C            4.41031478198376        1.53868607619336       -4.26380177027224
O            3.62429667999564        0.59761077328816       -2.14140553028744
N           -1.58717326344923       -0.53296131347217       -0.01062684853369
C           -2.67919567365528       -1.20497540344790       -0.73839591494433
H            0.10438108745412        2.59754455781391       -2.82414427894148
H           -0.15075303596708        3.68295427132331       -1.42607051316407
H           -1.50971903476747        3.30228478249420       -2.51199325643003
H           -3.00307809366224        2.62853527149648        1.67413828649292
H           -1.12174915432358       -2.42504557163653        3.90301994801398
H           -2.78056444378429       -2.82396026550951        3.41276619904036
H           -1.40674060475253       -3.43874568607318        2.46471134900361
H            0.87742406277849       -2.81464506481915        2.58421553414287
H            0.89740698167201       -3.23640384000216        0.86437789149766
H            2.25948880228222       -2.35773833516127        1.58811655690912
H            0.32629189049815       -0.41448284373867        3.28598958355252
H            1.85077069649159        0.00097676024344        2.48865673221784
H            0.36017280563446        0.86313310723546        2.05668596574468
H            0.29032140902580       -0.45298287685726       -0.72927086037348
H            3.97840452687136        1.86570740983234       -5.20653488939479
H            5.16135880489363        0.77228895342736       -4.45512263170503
H            4.90283979826795        2.37965458952028       -3.77615779063806
H           -3.55603838117430       -1.37077458003824       -0.09942853371005
H           -2.30569227752935       -2.16591662927414       -1.09205050775686
H           -2.96875262450432       -0.58891264994633       -1.59077359498591

          :  Hamiltonian                  GFN1-xTB          :
         :: total energy             -87.015801309730 Eh    ::
         :: gradient norm              0.000740448231 Eh/a0 ::
         :: HOMO-LUMO gap              0.505150618535 eV    ::
         :: SCC energy               -87.792603909519 Eh    ::
         :: -> Gsolv                  -0.102487448170 Eh    ::
         :: repulsion energy           0.809492461872 Eh    ::

    * Orbital Energies and Occupations

         #    Occupation            Energy/Eh            Energy/eV
      -------------------------------------------------------------
         1        2.0000           -0.8527986             -23.2058
       ...           ...                  ...                  ...
        59        2.0000           -0.4704032             -12.8003
        60        2.0000           -0.4685721             -12.7505
        61        2.0000           -0.4591074             -12.4929
        62        2.0000           -0.4479416             -12.1891
        63        2.0000           -0.4473430             -12.1728
        64        2.0000           -0.4404627             -11.9856
        65        2.0000           -0.4347645             -11.8305
        66        2.0000           -0.4233192             -11.5191
        67        2.0000           -0.4080755             -11.1043
        68        2.0000           -0.4018879             -10.9359
        69        2.0000           -0.3862493             -10.5104
        70        2.0000           -0.3689682             -10.0401
        71        1.9999           -0.3111507              -8.4668 (HOMO)
        72        0.0001           -0.2925867              -7.9617 (LUMO)
        73                         -0.2760589              -7.5119
        74                         -0.2477443              -6.7415
        75                         -0.1942527              -5.2859
        76                         -0.1812712              -4.9326
        77                         -0.1389993              -3.7824
        78                         -0.1364208              -3.7122
        79                         -0.1219067              -3.3173
        80                         -0.1195802              -3.2539
        81                         -0.1046442              -2.8475
        82                         -0.1017213              -2.7680
       ...                                ...                  ...
       144                          0.7319460              19.9173
      -------------------------------------------------------------
                  HL-Gap            0.0185639 Eh            0.5052 eV

Wiberg/Mayer (AO) data.
largest (>0.10) Wiberg bond orders for each atom

     #   Z sym  total        # sym  WBO       # sym  WBO       # sym  WBO
 ---------------------------------------------------------------------------
     1   6 C    3.893 --    27 H    0.985    29 H    0.981    28 H    0.981
                             2 O    0.920
     2   8 O    2.157 --     3 C    1.038     1 C    0.920
     3   6 C    3.856 --     4 O    1.515     5 C    1.160     2 O    1.038
     4   8 O    1.876 --     3 C    1.515
     5   6 C    3.934 --     6 C    1.439     3 C    1.160    25 N    0.981
     6   6 C    3.906 --     5 C    1.439     8 C    1.102     7 O    1.061
                            12 C    0.122
     7   8 O    2.039 --     6 C    1.061    30 H    0.806
     8   6 C    3.931 --     9 O    1.426    10 N    1.191     6 C    1.102
                            12 C    0.109
     9   8 O    1.760 --     8 C    1.426    10 N    0.153
    10   7 N    3.456 --     8 C    1.191    12 C    1.041    11 C    0.951
                             9 O    0.153
    11   6 C    3.960 --    33 H    0.988    31 H    0.981    32 H    0.977
                            10 N    0.951
    12   6 C    3.575 --    10 N    1.041    25 N    0.963    13 C    0.957
                             6 C    0.122     8 C    0.109
    13   6 C    3.915 --    14 C    0.988    15 C    0.979    12 C    0.957
                            16 N    0.913
    14   6 C    3.993 --    13 C    0.988    35 H    0.986    34 H    0.984
                            36 H    0.982
    15   6 C    3.996 --    39 H    0.985    37 H    0.985    38 H    0.983
                            13 C    0.979
    16   7 N    3.398 --    17 C    1.318    13 C    0.913    40 H    0.871
                            18 O    0.191
    17   6 C    3.926 --    18 O    1.550    16 N    1.318    19 C    0.977
    18   8 O    1.876 --    17 C    1.550    16 N    0.191
    19   6 C    3.866 --    20 N    1.621    24 O    1.058    17 C    0.977
    20   7 N    3.012 --    19 C    1.621    21 N    1.188
    21   7 N    2.982 --    22 C    1.615    20 N    1.188
    22   6 C    3.875 --    21 N    1.615    24 O    1.081    23 C    1.030
    23   6 C    3.988 --    22 C    1.030    41 H    0.983    43 H    0.966
                            42 H    0.964
    24   8 O    2.322 --    22 C    1.081    19 C    1.058
    25   7 N    3.098 --     5 C    0.981    12 C    0.963    26 C    0.961
    26   6 C    3.982 --    45 H    0.988    46 H    0.988    44 H    0.983
                            25 N    0.961
    27   1 H    1.027 --     1 C    0.985
    28   1 H    1.013 --     1 C    0.981
    29   1 H    1.012 --     1 C    0.981
    30   1 H    0.881 --     7 O    0.806
    31   1 H    1.010 --    11 C    0.981
    32   1 H    1.019 --    11 C    0.977
    33   1 H    1.021 --    11 C    0.988
    34   1 H    1.009 --    14 C    0.984
    35   1 H    1.017 --    14 C    0.986
    36   1 H    1.013 --    14 C    0.982
    37   1 H    1.007 --    15 C    0.985
    38   1 H    1.012 --    15 C    0.983
    39   1 H    1.013 --    15 C    0.985
    40   1 H    0.987 --    16 N    0.871
    41   1 H    1.000 --    23 C    0.983
    42   1 H    0.998 --    23 C    0.964
    43   1 H    0.998 --    23 C    0.966
    44   1 H    1.008 --    26 C    0.983
    45   1 H    1.029 --    26 C    0.988
    46   1 H    1.017 --    26 C    0.988
 ---------------------------------------------------------------------------

           -------------------------------------------------
          | TOTAL ENERGY              -87.015801309730 Eh   |
          | GRADIENT NORM               0.000740448231 Eh/α |
          | HOMO-LUMO GAP               0.505150618535 eV   |
           -------------------------------------------------

 * finished run on 2023/06/20 at 15:20:15.075
