                         Program Version 5.0.1 -  RELEASE  -
|  1> # ORCA input file
|  2> ! SP r2SCAN-3c CPCM
|  3>
|  4> %maxcore 1875.0
|  5> %pal nprocs 4 end
|  6> %cpcm smd true SMDsolvent "DMSO" end
|  7>
|  8> *xyz -2 1
|  9> C      -6.474330   -0.305511    0.679635
| 10> O      -5.297872    0.091874    0.002140
| 11> C      -4.151334   -0.564373    0.374665
| 12> O      -4.213010   -1.429760    1.252951
| 13> C      -2.941903   -0.164907   -0.327433
| 14> C      -2.937912    0.823075   -1.353852
| 15> O      -3.925769    1.529233   -1.716228
| 16> C      -1.638234    0.969703   -2.088469
| 17> O      -1.507063    1.607824   -3.145716
| 18> N      -0.564018    0.319742   -1.564186
| 19> C      -0.569156   -0.513962   -0.377714
| 20> C       0.246347   -1.782452   -0.703694
| 21> C       0.161031    0.288102    0.835590
| 22> C       0.059243   -0.558179    2.110248
| 23> C      -0.553916    1.621844    1.069772
| 24> N       1.567533    0.471250    0.552438
| 25> C       2.160094    1.441932   -0.212717
| 26> O       1.598481    2.480956   -0.610941
| 27> C       3.553825    1.162749   -0.494153
| 28> N       4.410330    1.923446   -1.155522
| 29> N       5.601293    1.247314   -1.172579
| 30> C       5.420197    0.136346   -0.539051
| 31> C       6.416847   -0.933820   -0.293777
| 32> O       4.155865   -0.000935   -0.076898
| 33> N      -1.850798   -0.898536    0.055246
| 34> H      -6.392645   -0.117165    1.756275
| 35> H      -7.299098    0.279197    0.270786
| 36> H      -6.675216   -1.372679    0.529918
| 37> H       0.305196    0.389228   -2.069363
| 38> H      -0.195733   -2.270185   -1.571676
| 39> H       1.283687   -1.540599   -0.926391
| 40> H       0.209287   -2.473885    0.134483
| 41> H      -0.970250   -0.898799    2.236708
| 42> H       0.350743    0.030700    2.979890
| 43> H       0.710073   -1.429473    2.056621
| 44> H      -1.558246    1.426378    1.447413
| 45> H      -0.012125    2.210550    1.809902
| 46> H      -0.632619    2.203617    0.152284
| 47> H       2.154967   -0.311804    0.787676
| 48> H       7.392598   -0.610423   -0.648397
| 49> H       6.473733   -1.159455    0.770795
| 50> H       6.129879   -1.846772   -0.816679
| 51> **                         ****END OF INPUT****

CARTESIAN COORDINATES (ANGSTROEM)
---------------------------------
  C     -6.474330   -0.305511    0.679635
  O     -5.297872    0.091874    0.002140
  C     -4.151334   -0.564373    0.374665
  O     -4.213010   -1.429760    1.252951
  C     -2.941903   -0.164907   -0.327433
  C     -2.937912    0.823075   -1.353852
  O     -3.925769    1.529233   -1.716228
  C     -1.638234    0.969703   -2.088469
  O     -1.507063    1.607824   -3.145716
  N     -0.564018    0.319742   -1.564186
  C     -0.569156   -0.513962   -0.377714
  C      0.246347   -1.782452   -0.703694
  C      0.161031    0.288102    0.835590
  C      0.059243   -0.558179    2.110248
  C     -0.553916    1.621844    1.069772
  N      1.567533    0.471250    0.552438
  C      2.160094    1.441932   -0.212717
  O      1.598481    2.480956   -0.610941
  C      3.553825    1.162749   -0.494153
  N      4.410330    1.923446   -1.155522
  N      5.601293    1.247314   -1.172579
  C      5.420197    0.136346   -0.539051
  C      6.416847   -0.933820   -0.293777
  O      4.155865   -0.000935   -0.076898
  N     -1.850798   -0.898536    0.055246
  H     -6.392645   -0.117165    1.756275
  H     -7.299098    0.279197    0.270786
  H     -6.675216   -1.372679    0.529918
  H      0.305196    0.389228   -2.069363
  H     -0.195733   -2.270185   -1.571676
  H      1.283687   -1.540599   -0.926391
  H      0.209287   -2.473885    0.134483
  H     -0.970250   -0.898799    2.236708
  H      0.350743    0.030700    2.979890
  H      0.710073   -1.429473    2.056621
  H     -1.558246    1.426378    1.447413
  H     -0.012125    2.210550    1.809902
  H     -0.632619    2.203617    0.152284
  H      2.154967   -0.311804    0.787676
  H      7.392598   -0.610423   -0.648397
  H      6.473733   -1.159455    0.770795
  H      6.129879   -1.846772   -0.816679

 Total Charge           Charge          ....   -2
 Multiplicity           Mult            ....    1
 Number of Electrons    NEL             ....  186
 Basis Dimension        Dim             ....  615

ORBITAL ENERGIES
----------------

  NO   OCC          E(Eh)            E(eV)
   0   2.0000     -19.030410      -517.8438
   1   2.0000     -18.951096      -515.6855
   2   2.0000     -18.884734      -513.8797
   3   2.0000     -18.884458      -513.8722
   4   2.0000     -18.875707      -513.6341
   5   2.0000     -18.847133      -512.8566
   6   2.0000     -14.174752      -385.7146
   7   2.0000     -14.167954      -385.5296
   8   2.0000     -14.167836      -385.5264
   9   2.0000     -14.144498      -384.8914
  10   2.0000     -14.069561      -382.8522
  11   2.0000     -10.118579      -275.3405
  12   2.0000     -10.107522      -275.0397
  13   2.0000     -10.104132      -274.9474
  14   2.0000     -10.101654      -274.8800
  15   2.0000     -10.082568      -274.3606
  16   2.0000     -10.069914      -274.0163
  17   2.0000     -10.057061      -273.6666
  18   2.0000     -10.052853      -273.5520
  19   2.0000     -10.034820      -273.0613
  20   2.0000     -10.034429      -273.0507
  21   2.0000     -10.009455      -272.3711
  22   2.0000      -9.999330      -272.0956
  23   2.0000      -9.996376      -272.0152
  24   2.0000      -9.994736      -271.9706
  25   2.0000      -1.112478       -30.2721
  26   2.0000      -1.018726       -27.7209
  27   2.0000      -0.966511       -26.3001
  28   2.0000      -0.958116       -26.0717
  29   2.0000      -0.941206       -25.6115
  30   2.0000      -0.924415       -25.1546
  31   2.0000      -0.897268       -24.4159
  32   2.0000      -0.886065       -24.1111
  33   2.0000      -0.863795       -23.5051
  34   2.0000      -0.799084       -21.7442
  35   2.0000      -0.789820       -21.4921
  36   2.0000      -0.734026       -19.9739
  37   2.0000      -0.696807       -18.9611
  38   2.0000      -0.691535       -18.8176
  39   2.0000      -0.663924       -18.0663
  40   2.0000      -0.637710       -17.3530
  41   2.0000      -0.634765       -17.2728
  42   2.0000      -0.614527       -16.7221
  43   2.0000      -0.583974       -15.8908
  44   2.0000      -0.571651       -15.5554
  45   2.0000      -0.565320       -15.3831
  46   2.0000      -0.541163       -14.7258
  47   2.0000      -0.503894       -13.7117
  48   2.0000      -0.500236       -13.6121
  49   2.0000      -0.493921       -13.4403
  50   2.0000      -0.461446       -12.5566
  51   2.0000      -0.452289       -12.3074
  52   2.0000      -0.449275       -12.2254
  53   2.0000      -0.436269       -11.8715
  54   2.0000      -0.430778       -11.7221
  55   2.0000      -0.419585       -11.4175
  56   2.0000      -0.410519       -11.1708
  57   2.0000      -0.405233       -11.0270
  58   2.0000      -0.391479       -10.6527
  59   2.0000      -0.386706       -10.5228
  60   2.0000      -0.382157       -10.3990
  61   2.0000      -0.372753       -10.1431
  62   2.0000      -0.368707       -10.0330
  63   2.0000      -0.363782        -9.8990
  64   2.0000      -0.356990        -9.7142
  65   2.0000      -0.356058        -9.6888
  66   2.0000      -0.350910        -9.5487
  67   2.0000      -0.345534        -9.4024
  68   2.0000      -0.338571        -9.2130
  69   2.0000      -0.334897        -9.1130
  70   2.0000      -0.328719        -8.9449
  71   2.0000      -0.326705        -8.8901
  72   2.0000      -0.325433        -8.8555
  73   2.0000      -0.321687        -8.7535
  74   2.0000      -0.315323        -8.5804
  75   2.0000      -0.306962        -8.3529
  76   2.0000      -0.290856        -7.9146
  77   2.0000      -0.288855        -7.8601
  78   2.0000      -0.287763        -7.8304
  79   2.0000      -0.283576        -7.7165
  80   2.0000      -0.272001        -7.4015
  81   2.0000      -0.243348        -6.6218
  82   2.0000      -0.234737        -6.3875
  83   2.0000      -0.231893        -6.3101
  84   2.0000      -0.225391        -6.1332
  85   2.0000      -0.208854        -5.6832
  86   2.0000      -0.203087        -5.5263
  87   2.0000      -0.201418        -5.4809
  88   2.0000      -0.196566        -5.3488
  89   2.0000      -0.181687        -4.9440
  90   2.0000      -0.176811        -4.8113
  91   2.0000      -0.141469        -3.8496
  92   2.0000      -0.076697        -2.0870
  93   0.0000      -0.061092        -1.6624
  94   0.0000      -0.027326        -0.7436
  95   0.0000       0.001989         0.0541
  96   0.0000       0.060861         1.6561
  97   0.0000       0.066183         1.8009

MULLIKEN ATOMIC CHARGES
-----------------------
   0 C :   -0.342277
   1 O :   -0.148307
   2 C :    0.100195
   3 O :   -0.443855
   4 C :   -0.048782
   5 C :   -0.166514
   6 O :   -0.387469
   7 C :   -0.071097
   8 O :   -0.410509
   9 N :    0.070326
  10 C :   -0.000919
  11 C :   -0.676253
  12 C :    0.245907
  13 C :   -0.639519
  14 C :   -0.720470
  15 N :   -0.059282
  16 C :   -0.293111
  17 O :   -0.468750
  18 C :    0.375543
  19 N :   -0.233062
  20 N :   -0.289943
  21 C :    0.348358
  22 C :   -0.643823
  23 O :   -0.082894
  24 N :   -0.189979
  25 H :    0.155956
  26 H :    0.156102
  27 H :    0.156020
  28 H :    0.240283
  29 H :    0.168312
  30 H :    0.166477
  31 H :    0.178289
  32 H :    0.200358
  33 H :    0.168147
  34 H :    0.165088
  35 H :    0.169599
  36 H :    0.168635
  37 H :    0.208216
  38 H :    0.298755
  39 H :    0.196646
  40 H :    0.188224
  41 H :    0.191381
Sum of atomic charges:   -2.0000000

LOEWDIN ATOMIC CHARGES
----------------------
   0 C :   -0.065464
   1 O :   -0.621900
   2 C :    0.376314
   3 O :   -0.510094
   4 C :    0.108994
   5 C :    0.177154
   6 O :   -0.623819
   7 C :    0.332843
   8 O :   -0.529342
   9 N :   -0.568777
  10 C :    0.232816
  11 C :   -0.353670
  12 C :    0.097080
  13 C :   -0.368356
  14 C :   -0.354361
  15 N :   -0.635305
  16 C :    0.330426
  17 O :   -0.541519
  18 C :    0.381665
  19 N :   -0.401013
  20 N :   -0.410278
  21 C :    0.345857
  22 C :   -0.328036
  23 O :   -0.435638
  24 N :   -0.778524
  25 H :    0.168250
  26 H :    0.172186
  27 H :    0.168703
  28 H :    0.281831
  29 H :    0.163148
  30 H :    0.161379
  31 H :    0.166929
  32 H :    0.181081
  33 H :    0.159334
  34 H :    0.162904
  35 H :    0.166215
  36 H :    0.161776
  37 H :    0.185924
  38 H :    0.290820
  39 H :    0.185596
  40 H :    0.182950
  41 H :    0.183924

  Mayer bond orders larger than 0.100000
B(  0-C ,  1-O ) :   0.8575 B(  0-C , 25-H ) :   0.9650 B(  0-C , 26-H ) :   0.9717
B(  0-C , 27-H ) :   0.9651 B(  1-O ,  2-C ) :   1.0835 B(  2-C ,  3-O ) :   1.8648
B(  2-C ,  4-C ) :   1.1788 B(  2-C , 24-N ) :   0.1033 B(  4-C ,  5-C ) :   0.9499
B(  4-C ,  6-O ) :  -0.1294 B(  4-C , 24-N ) :   1.0260 B(  5-C ,  6-O ) :   1.9404
B(  5-C ,  7-C ) :   0.8936 B(  7-C ,  8-O ) :   2.0843 B(  7-C ,  9-N ) :   1.0555
B(  9-N , 10-C ) :   0.9566 B(  9-N , 28-H ) :   0.9003 B( 10-C , 11-C ) :   0.9234
B( 10-C , 12-C ) :   0.6258 B( 10-C , 24-N ) :   0.9106 B( 11-C , 29-H ) :   0.9824
B( 11-C , 30-H ) :   0.9808 B( 11-C , 31-H ) :   0.9803 B( 12-C , 13-C ) :   0.9243
B( 12-C , 14-C ) :   0.7581 B( 12-C , 15-N ) :   0.9713 B( 13-C , 32-H ) :   0.9766
B( 13-C , 33-H ) :   0.9728 B( 13-C , 34-H ) :   0.9685 B( 14-C , 35-H ) :   0.9624
B( 14-C , 36-H ) :   0.9863 B( 14-C , 37-H ) :   0.9944 B( 15-N , 16-C ) :   1.0702
B( 15-N , 38-H ) :   0.8828 B( 16-C , 17-O ) :   1.8342 B( 16-C , 18-C ) :   0.8283
B( 17-O , 18-C ) :  -0.1128 B( 18-C , 19-N ) :   1.6208 B( 18-C , 21-C ) :   0.1044
B( 18-C , 23-O ) :   1.0420 B( 19-N , 20-N ) :   1.3018 B( 20-N , 21-C ) :   1.6896
B( 21-C , 22-C ) :   0.8158 B( 21-C , 23-O ) :   1.0382 B( 22-C , 39-H ) :   0.9969
B( 22-C , 40-H ) :   0.9527 B( 22-C , 41-H ) :   0.9444

Dispersion correction           -0.020404292
FINAL SINGLE POINT ENERGY     -1268.837990213822

DIPOLE MOMENT
-------------
                                X             Y             Z
Electronic contribution:      2.97675       8.62263     -10.25668
Nuclear contribution   :      2.59050     -12.58576      13.82956
                        -----------------------------------------
Total Dipole Moment    :      5.56725      -3.96313       3.57288
                        -----------------------------------------
Magnitude (a.u.)       :      7.71142
Magnitude (Debye)      :     19.60088

Rotational constants in cm-1:     0.018674     0.003579     0.003303
Rotational constants in MHz :   559.838492   107.304407    99.027068

                             ****ORCA TERMINATED NORMALLY****
TOTAL RUN TIME: 0 days 0 hours 2 minutes 58 seconds 185 msec
