   * xtb version 6.5.1 (579679a) compiled by 'ehlert@majestix' on 2022-07-11
          program call               : /lustre/hpc/kemi/ree/PhD/git/ReactivityQM/dep/xtb-6.5.1/bin/xtb --gfn 1 /lustre/hpc/kemi/ree/PhD/git/ReactivityQM/calculations/R02methylcation/reac01prodE06/conf13/R02methylcation_reac01prodE06_conf13_gfn1.xyz --opt --vfukui --chrg -2 --uhf 0 --alpb DMSO

   ID    Z sym.   atoms
    1    6 C      1, 3, 5, 6, 8, 11-15, 17, 19, 22, 23
    2    8 O      2, 4, 7, 9, 18, 24
    3    7 N      10, 16, 20, 21, 25
    4    1 H      26-42

      * Solvation model:               ALPB
        Solvent                        DMSO
        Solvent mass                       7.8130E+01 g/mol
          :  Hamiltonian                  GFN1-xTB          :
 * total energy  :   -83.6051186 Eh     change       -0.3107914E-10 Eh
 * total energy  :   -83.6168643 Eh     change       -0.1174566E-01 Eh
 * total energy  :   -83.6208822 Eh     change       -0.4017967E-02 Eh
 * total energy  :   -83.6217305 Eh     change       -0.8482399E-03 Eh
 * total energy  :   -83.6225381 Eh     change       -0.8075773E-03 Eh
 * total energy  :   -83.6230493 Eh     change       -0.5112281E-03 Eh
 * total energy  :   -83.6234675 Eh     change       -0.4182524E-03 Eh
 * total energy  :   -83.6237965 Eh     change       -0.3289996E-03 Eh
 * total energy  :   -83.6239994 Eh     change       -0.2028559E-03 Eh
 * total energy  :   -83.6241236 Eh     change       -0.1242379E-03 Eh
 * total energy  :   -83.6264905 Eh     change       -0.5249911E-04 Eh
 * total energy  :   -83.6265237 Eh     change       -0.3318843E-04 Eh
 * total energy  :   -83.6265381 Eh     change       -0.1436585E-04 Eh
 * total energy  :   -83.6265684 Eh     change       -0.3037350E-04 Eh
 * total energy  :   -83.6265870 Eh     change       -0.1860178E-04 Eh
 * total energy  :   -83.6266037 Eh     change       -0.1661175E-04 Eh
 * total energy  :   -83.6266132 Eh     change       -0.9509282E-05 Eh
 * total energy  :   -83.6266212 Eh     change       -0.8040102E-05 Eh
 * total energy  :   -83.6266259 Eh     change       -0.4736046E-05 Eh
   *** GEOMETRY OPTIMIZATION CONVERGED AFTER 49 ITERATIONS ***

 final structure:
================
42
 xtb: 6.5.1 (579679a)
C           -6.47432995326278       -0.30551142140026        0.67963487528556
O           -5.29787178467291        0.09187425976607        0.00214039166904
C           -4.15133444904737       -0.56437253990164        0.37466455631071
O           -4.21300978079954       -1.42976037629307        1.25295059123870
C           -2.94190287215184       -0.16490696718280       -0.32743333661650
C           -2.93791173133704        0.82307459431391       -1.35385214127873
O           -3.92576931865632        1.52923341508407       -1.71622792160539
C           -1.63823432194624        0.96970279913280       -2.08846906317379
O           -1.50706300450173        1.60782359586376       -3.14571597988517
N           -0.56401784454235        0.31974207780156       -1.56418573907049
C           -0.56915632490700       -0.51396164438744       -0.37771443712752
C            0.24634651251351       -1.78245155784188       -0.70369398314307
C            0.16103076049277        0.28810225252575        0.83559016047790
C            0.05924302718355       -0.55817880190249        2.11024764090444
C           -0.55391568843251        1.62184364189725        1.06977181713501
N            1.56753346987549        0.47124972646483        0.55243792729459
C            2.16009361199968        1.44193158953877       -0.21271701503407
O            1.59848051007427        2.48095625087360       -0.61094130757476
C            3.55382455465035        1.16274940858401       -0.49415286318517
N            4.41033031887540        1.92344646738866       -1.15552239985101
N            5.60129279849828        1.24731424702012       -1.17257916379067
C            5.42019706921514        0.13634593960055       -0.53905080019668
C            6.41684740885121       -0.93381960508925       -0.29377700907543
O            4.15586548290061       -0.00093470188853       -0.07689848125699
N           -1.85079788449022       -0.89853624232021        0.05524557229338
H           -6.39264545791054       -0.11716511274072        1.75627471087474
H           -7.29909847200634        0.27919679790811        0.27078590005305
H           -6.67521608620186       -1.37267851989531        0.52991823679569
H            0.30519588754160        0.38922804063390       -2.06936294614503
H           -0.19573321691909       -2.27018548305370       -1.57167632776071
H            1.28368709365679       -1.54059920948960       -0.92639135804104
H            0.20928723584512       -2.47388478388255        0.13448331438287
H           -0.97024981886376       -0.89879884632013        2.23670825958351
H            0.35074305702134        0.03070046582718        2.97988982366876
H            0.71007345314807       -1.42947279199492        2.05662059573074
H           -1.55824630113046        1.42637777489491        1.44741338331371
H           -0.01212532928777        2.21054967948835        1.80990165479558
H           -0.63261944011132        2.20361686019769        0.15228420887569
H            2.15496722859132       -0.31180369271543        0.78767607087278
H            7.39259832351555       -0.61042258932566       -0.64839725617165
H            6.47373301242093       -1.15945468583060        0.77079491247735
H            6.12987926432352       -1.84677231134146       -0.81667907404646

          :  Hamiltonian                  GFN1-xTB          :
         :: total energy             -83.626625943090 Eh    ::
         :: gradient norm              0.000678430362 Eh/a0 ::
         :: HOMO-LUMO gap              0.296394784103 eV    ::
         :: SCC energy               -84.351632152857 Eh    ::
         :: -> Gsolv                  -0.286276226733 Eh    ::
         :: repulsion energy           0.752998989399 Eh    ::

    * Orbital Energies and Occupations

         #    Occupation            Energy/Eh            Energy/eV
      -------------------------------------------------------------
         1        2.0000           -0.8160863             -22.2068
       ...           ...                  ...                  ...
        56        2.0000           -0.4450186             -12.1096
        57        2.0000           -0.4368279             -11.8867
        58        2.0000           -0.4157342             -11.3127
        59        2.0000           -0.4147071             -11.2848
        60        2.0000           -0.4135049             -11.2520
        61        2.0000           -0.4087088             -11.1215
        62        2.0000           -0.4041323             -10.9970
        63        2.0000           -0.4010482             -10.9131
        64        2.0000           -0.3887157             -10.5775
        65        2.0000           -0.3712378             -10.1019
        66        2.0000           -0.3660308              -9.9602
        67        2.0000           -0.3352632              -9.1230
        68        1.9935           -0.2776657              -7.5557 (HOMO)
        69        0.0065           -0.2667734              -7.2593 (LUMO)
        70                         -0.2349698              -6.3939
        71                         -0.2187984              -5.9538
        72                         -0.1630982              -4.4381
        73                         -0.1475429              -4.0148
        74                         -0.1265937              -3.4448
        75                         -0.1121568              -3.0519
        76                         -0.1026552              -2.7934
        77                         -0.0959022              -2.6096
        78                         -0.0876991              -2.3864
        79                         -0.0788988              -2.1469
       ...                                ...                  ...
       134                          0.7421538              20.1950
      -------------------------------------------------------------
                  HL-Gap            0.0108923 Eh            0.2964 eV

Wiberg/Mayer (AO) data.
largest (>0.10) Wiberg bond orders for each atom

     #   Z sym  total        # sym  WBO       # sym  WBO       # sym  WBO
 ---------------------------------------------------------------------------
     1   6 C    3.912 --    27 H    0.987    26 H    0.980    28 H    0.980
                             2 O    0.940
     2   8 O    2.133 --     3 C    1.012     1 C    0.940
     3   6 C    3.815 --     4 O    1.542     5 C    1.125     2 O    1.012
     4   8 O    1.813 --     3 C    1.542
     5   6 C    3.919 --     6 C    1.244    25 N    1.242     3 C    1.125
                             7 O    0.102
     6   6 C    3.908 --     7 O    1.426     5 C    1.244     8 C    0.992
     7   8 O    1.677 --     6 C    1.426     5 C    0.102
     8   6 C    3.876 --     9 O    1.516    10 N    1.203     6 C    0.992
     9   8 O    1.790 --     8 C    1.516    10 N    0.143
    10   7 N    3.322 --     8 C    1.203    11 C    0.933    29 H    0.913
                             9 O    0.143
    11   6 C    3.937 --    25 N    1.073    12 C    0.979    10 N    0.933
                            13 C    0.852
    12   6 C    3.992 --    30 H    0.985    31 H    0.985    32 H    0.984
                            11 C    0.979
    13   6 C    3.925 --    15 C    1.001    14 C    1.000    16 N    0.958
                            11 C    0.852
    14   6 C    3.994 --    13 C    1.000    34 H    0.986    35 H    0.982
                            33 H    0.978
    15   6 C    3.996 --    13 C    1.001    37 H    0.986    36 H    0.985
                            38 H    0.979
    16   7 N    3.312 --    17 C    1.169    13 C    0.958    39 H    0.912
                            18 O    0.141
    17   6 C    3.900 --    18 O    1.450    16 N    1.169    19 C    1.093
    18   8 O    1.784 --    17 C    1.450    16 N    0.141
    19   6 C    3.747 --    20 N    1.475    17 C    1.093    24 O    0.990
    20   7 N    2.814 --    19 C    1.475    21 N    1.181
    21   7 N    2.980 --    22 C    1.634    20 N    1.181
    22   6 C    3.833 --    21 N    1.634    24 O    1.048    23 C    1.025
    23   6 C    3.993 --    22 C    1.025    40 H    0.985    41 H    0.971
                            42 H    0.968
    24   8 O    2.223 --    22 C    1.048    19 C    0.990
    25   7 N    2.725 --     5 C    1.242    11 C    1.073
    26   1 H    1.018 --     1 C    0.980
    27   1 H    1.018 --     1 C    0.987
    28   1 H    1.018 --     1 C    0.980
    29   1 H    0.965 --    10 N    0.913
    30   1 H    1.016 --    12 C    0.985
    31   1 H    1.007 --    12 C    0.985
    32   1 H    1.015 --    12 C    0.984
    33   1 H    1.030 --    14 C    0.978
    34   1 H    1.006 --    14 C    0.986
    35   1 H    1.005 --    14 C    0.982
    36   1 H    1.014 --    15 C    0.985
    37   1 H    1.009 --    15 C    0.986
    38   1 H    1.028 --    15 C    0.979
    39   1 H    0.963 --    16 N    0.912
    40   1 H    1.003 --    23 C    0.985
    41   1 H    1.000 --    23 C    0.971
    42   1 H    1.000 --    23 C    0.968
 ---------------------------------------------------------------------------

           -------------------------------------------------
          | TOTAL ENERGY              -83.626625943090 Eh   |
          | GRADIENT NORM               0.000678430362 Eh/α |
          | HOMO-LUMO GAP               0.296394784103 eV   |
           -------------------------------------------------

 * finished run on 2023/06/21 at 17:15:19.233
