   * xtb version 6.5.1 (579679a) compiled by 'ehlert@majestix' on 2022-07-11
          program call               : /lustre/hpc/kemi/ree/PhD/git/ReactivityQM/dep/xtb-6.5.1/bin/xtb --gfn 1 /lustre/hpc/kemi/ree/PhD/git/ReactivityQM/calculations/R02/reac01prodN09/conf07/R02_reac01prodN09_conf07_gfn1.xyz --opt --vfukui --chrg 1 --uhf 0 --alpb DMSO

   ID    Z sym.   atoms
    1    6 C      1, 3, 5, 6, 8-11, 13, 15, 18, 19, 22, 24
    2    8 O      2, 4, 14, 20, 23, 25
    3    7 N      7, 12, 16, 17, 21
    4    1 H      26-43

      * Solvation model:               ALPB
        Solvent                        DMSO
        Solvent mass                       7.8130E+01 g/mol
          :  Hamiltonian                  GFN1-xTB          :
 * total energy  :   -83.0942011 Eh     change       -0.5356924E-09 Eh
 * total energy  :   -83.1146519 Eh     change       -0.2045080E-01 Eh
 * total energy  :   -83.1236397 Eh     change       -0.8987786E-02 Eh
 * total energy  :   -83.1256268 Eh     change       -0.1987098E-02 Eh
 * total energy  :   -83.1268574 Eh     change       -0.1230584E-02 Eh
 * total energy  :   -83.1272096 Eh     change       -0.3521710E-03 Eh
 * total energy  :   -83.1274582 Eh     change       -0.2486577E-03 Eh
 * total energy  :   -83.1275920 Eh     change       -0.1338003E-03 Eh
 * total energy  :   -83.1276761 Eh     change       -0.8410335E-04 Eh
 * total energy  :   -83.1277612 Eh     change       -0.8504269E-04 Eh
 * total energy  :   -83.1289136 Eh     change       -0.1481509E-04 Eh
 * total energy  :   -83.1289321 Eh     change       -0.1841755E-04 Eh
 * total energy  :   -83.1289418 Eh     change       -0.9720181E-05 Eh
 * total energy  :   -83.1289505 Eh     change       -0.8754078E-05 Eh
 * total energy  :   -83.1289580 Eh     change       -0.7501546E-05 Eh
 * total energy  :   -83.1289651 Eh     change       -0.7016937E-05 Eh
 * total energy  :   -83.1289719 Eh     change       -0.6799784E-05 Eh
 * total energy  :   -83.1289780 Eh     change       -0.6134031E-05 Eh
 * total energy  :   -83.1289811 Eh     change       -0.3139458E-05 Eh
   *** GEOMETRY OPTIMIZATION CONVERGED AFTER 44 ITERATIONS ***

 final structure:
================
43
 xtb: 6.5.1 (579679a)
C           -6.03805885261595        0.39008422879441       -0.85834485359236
O           -4.96682891992449       -0.11815010184508       -0.02286699601922
C           -3.75240665599496        0.08970148042490       -0.39008113546537
O           -3.31638213951999        0.66391024615827       -1.33189893273484
C           -2.73151515024272       -0.61564346585346        0.69619638812254
C           -3.40625512152948       -1.85305943444554        1.28369164692421
N           -1.59162940978151       -0.95024289615113       -0.08238533560972
C           -0.63086002371922       -0.12419756886055       -0.23140662400637
C            0.50024073524510       -0.43138166741988       -1.18292860958067
C            0.56644049700879       -1.93107359748948       -1.48271677436520
C            0.23192944610754        0.38525657667276       -2.45822690536436
N            1.73717716320722        0.00885560493238       -0.53543607287056
C            2.94046759304704       -0.01610152767367       -1.17420859066683
O            3.10328797503006       -0.19624082675770       -2.36304755256218
C            4.04080677747790        0.23118603863168       -0.21318671313955
N            3.92097518677679        0.32936272514911        1.07778551591893
N            5.17233193160649        0.52595415945973        1.57366834412258
C            5.97866653644440        0.53362599172222        0.55332321407971
C            7.44700565233932        0.71241934114320        0.56344929820886
O            5.32238515503428        0.35001720874637       -0.60109074870317
N           -0.57579965177411        1.10895282411703        0.40053857613982
C           -1.46396903142640        1.51090895144428        1.34171309316501
O           -1.41390088936470        2.53685775224585        1.97958347908361
C           -2.56480381623330        0.52405715325344        1.57312628727795
O           -3.39697072745900        0.78349826883749        2.50463457734174
H           -6.09690509174656        1.47104109848760       -0.73254572453652
H           -5.83812477862704        0.13820194004353       -1.89964741819174
H           -6.94334157828216       -0.09385144744548       -0.50075877515709
H           -3.70792843127445       -2.52078502175635        0.48019146459499
H           -4.27422899484458       -1.56383044814755        1.87067810653775
H           -2.68691124594729       -2.36244617637436        1.92230916856293
H            0.73612459166760       -2.48680058357464       -0.56247370511981
H           -0.37304450597767       -2.25619957833163       -1.92589646492573
H            1.38098180998116       -2.12742578220558       -2.17794381810108
H           -0.78149977783430        0.18468352982597       -2.80310502051934
H            0.93806313623926        0.10532126808949       -3.23714881681761
H            0.33279273952436        1.44793427499528       -2.24714759216555
H            1.76187104525175       -0.01180925546215        0.47303595565788
H            7.92813509620400       -0.14523469165821        0.09329103573513
H            7.79602720763376        0.81207046153148        1.58836501243526
H            7.71680234647681        1.60401507388486       -0.00296564905405
H            0.20887146729924        1.72191290372712        0.21417297352309
H           -3.21001729548472        1.63464496913366        2.96361069182957

          :  Hamiltonian                  GFN1-xTB          :
         :: total energy             -83.128981129105 Eh    ::
         :: gradient norm              0.000406436880 Eh/a0 ::
         :: HOMO-LUMO gap              0.820504086966 eV    ::
         :: SCC energy               -83.930956549067 Eh    ::
         :: -> Gsolv                  -0.111159527074 Eh    ::
         :: repulsion energy           0.829035163490 Eh    ::

    * Orbital Energies and Occupations

         #    Occupation            Energy/Eh            Energy/eV
      -------------------------------------------------------------
         1        2.0000           -0.9192993             -25.0154
       ...           ...                  ...                  ...
        55        2.0000           -0.5320092             -14.4767
        56        2.0000           -0.5297152             -14.4143
        57        2.0000           -0.5260852             -14.3155
        58        2.0000           -0.5160118             -14.0414
        59        2.0000           -0.5122212             -13.9382
        60        2.0000           -0.5118949             -13.9294
        61        2.0000           -0.4985980             -13.5675
        62        2.0000           -0.4959983             -13.4968
        63        2.0000           -0.4892245             -13.3125
        64        2.0000           -0.4752460             -12.9321
        65        2.0000           -0.4702399             -12.7959
        66        2.0000           -0.4592578             -12.4970
        67        2.0000           -0.4569362             -12.4339 (HOMO)
        68        0.0000           -0.4267833             -11.6134 (LUMO)
        69                         -0.3374304              -9.1819
        70                         -0.3207580              -8.7283
        71                         -0.3104448              -8.4476
        72                         -0.2697078              -7.3391
        73                         -0.2619919              -7.1292
        74                         -0.2087066              -5.6792
        75                         -0.1673260              -4.5532
        76                         -0.1569360              -4.2704
        77                         -0.1526761              -4.1545
        78                         -0.1455059              -3.9594
       ...                                ...                  ...
       136                          0.7517351              20.4558
      -------------------------------------------------------------
                  HL-Gap            0.0301530 Eh            0.8205 eV

Wiberg/Mayer (AO) data.
largest (>0.10) Wiberg bond orders for each atom

     #   Z sym  total        # sym  WBO       # sym  WBO       # sym  WBO
 ---------------------------------------------------------------------------
     1   6 C    3.810 --    28 H    0.980    27 H    0.979    26 H    0.976
                             2 O    0.829
     2   8 O    2.272 --     3 C    1.233     1 C    0.829     4 O    0.150
     3   6 C    3.859 --     4 O    1.753     2 O    1.233     5 C    0.675
     4   8 O    2.082 --     3 C    1.753     2 O    0.150
     5   6 C    3.954 --    24 C    1.112     7 N    1.027     6 C    0.961
                             3 C    0.675
     6   6 C    3.967 --    29 H    0.981    30 H    0.981    31 H    0.973
                             5 C    0.961
     7   7 N    3.030 --     8 C    1.696     5 C    1.027
     8   6 C    3.910 --     7 N    1.696    21 N    1.093     9 C    0.982
     9   6 C    3.932 --    10 C    0.988     8 C    0.982    11 C    0.967
                            12 N    0.930
    10   6 C    3.986 --     9 C    0.988    32 H    0.984    33 H    0.983
                            34 H    0.981
    11   6 C    3.983 --    37 H    0.984    35 H    0.984    36 H    0.974
                             9 C    0.967
    12   7 N    3.302 --    13 C    1.207     9 C    0.930    38 H    0.893
                            14 O    0.165
    13   6 C    3.911 --    14 O    1.623    12 N    1.207    15 C    0.995
    14   8 O    1.933 --    13 C    1.623    12 N    0.165
    15   6 C    3.878 --    16 N    1.603    20 O    1.066    13 C    0.995
    16   7 N    3.021 --    15 C    1.603    17 N    1.207
    17   7 N    2.981 --    18 C    1.597    16 N    1.207
    18   6 C    3.868 --    17 N    1.597    20 O    1.085    19 C    1.032
    19   6 C    3.985 --    18 C    1.032    40 H    0.982    39 H    0.963
                            41 H    0.961
    20   8 O    2.334 --    18 C    1.085    15 C    1.066
    21   7 N    3.481 --    22 C    1.201     8 C    1.093    42 H    0.863
                            23 O    0.167
    22   6 C    3.921 --    23 O    1.642    21 N    1.201    24 C    0.970
    23   8 O    1.978 --    22 C    1.642    21 N    0.167
    24   6 C    3.807 --    25 O    1.359     5 C    1.112    22 C    0.970
    25   8 O    2.281 --    24 C    1.359    43 H    0.742
    26   1 H    0.997 --     1 C    0.976
    27   1 H    0.997 --     1 C    0.979
    28   1 H    1.001 --     1 C    0.980
    29   1 H    0.996 --     6 C    0.981
    30   1 H    1.000 --     6 C    0.981
    31   1 H    0.995 --     6 C    0.973
    32   1 H    1.001 --    10 C    0.984
    33   1 H    1.005 --    10 C    0.983
    34   1 H    1.002 --    10 C    0.981
    35   1 H    1.002 --    11 C    0.984
    36   1 H    1.009 --    11 C    0.974
    37   1 H    0.999 --    11 C    0.984
    38   1 H    0.949 --    12 N    0.893
    39   1 H    0.996 --    19 C    0.963
    40   1 H    0.998 --    19 C    0.982
    41   1 H    0.996 --    19 C    0.961
    42   1 H    0.910 --    21 N    0.863
    43   1 H    0.786 --    25 O    0.742
 ---------------------------------------------------------------------------

           -------------------------------------------------
          | TOTAL ENERGY              -83.128981129105 Eh   |
          | GRADIENT NORM               0.000406436880 Eh/α |
          | HOMO-LUMO GAP               0.820504086966 eV   |
           -------------------------------------------------

 * finished run on 2023/06/20 at 15:29:39.062
