   * xtb version 6.5.1 (579679a) compiled by 'ehlert@majestix' on 2022-07-11
          program call               : /lustre/hpc/kemi/ree/PhD/git/ReactivityQM/dep/xtb-6.5.1/bin/xtb --gfn 1 /lustre/hpc/kemi/ree/PhD/git/ReactivityQM/calculations/RaltegravirCLI/reac01prodN04/conf01/RaltegravirCLI_reac01prodN04_conf01_gfn1.xyz --opt --vfukui --chrg 1 --uhf 0 --alpb DMSO

   ID    Z sym.   atoms
    1    6 C      1-3, 6, 7
    2    7 N      4, 5
    3    8 O      8, 10
    4   17 Cl     9
    5    1 H      11-16

      * Solvation model:               ALPB
        Solvent                        DMSO
        Solvent mass                       7.8130E+01 g/mol
          :  Hamiltonian                  GFN1-xTB          :
 * total energy  :   -33.3621208 Eh     change       -0.6110668E-12 Eh
 * total energy  :   -33.3681332 Eh     change       -0.6012404E-02 Eh
 * total energy  :   -33.3699217 Eh     change       -0.1788543E-02 Eh
 * total energy  :   -33.3701286 Eh     change       -0.2068716E-03 Eh
 * total energy  :   -33.3702014 Eh     change       -0.7279888E-04 Eh
 * total energy  :   -33.3702098 Eh     change       -0.8402371E-05 Eh
 * total energy  :   -33.3702153 Eh     change       -0.5477104E-05 Eh
 * total energy  :   -33.3702172 Eh     change       -0.1945406E-05 Eh
   *** GEOMETRY OPTIMIZATION CONVERGED AFTER 8 ITERATIONS ***

 final structure:
================
16
 xtb: 6.5.1 (579679a)
C           -1.37974563226778        1.16119887100715       -0.66186515985079
C           -0.64295987117807       -0.05472265031564       -0.07541564809261
C           -1.42151009230555       -0.69325578810411        1.08697700131754
N           -0.34955022871555       -1.00730729096670       -1.08010130314313
N            0.89592874637432       -1.15163946463541       -1.20357166892481
C            1.49495043149096       -0.31026725121715       -0.29565232479848
C            3.00194971697195       -0.17920093416876       -0.11715209192340
O            3.74085911029388       -0.80935896316130       -0.80516092217098
Cl           3.45265054191210        0.89837222640850        1.10028143425022
O            0.64682404577361        0.34378212985468        0.37853741053199
H           -1.53006978113999        1.88977360773135        0.13112138846410
H           -2.33739833654513        0.82908686714911       -1.05559948225937
H           -0.77545105372216        1.59370913866305       -1.45638873047213
H           -0.85363453453321       -1.53598967779950        1.47515885118425
H           -2.38624060820462       -1.02910648835977        0.71451141950960
H           -1.55660245420481        0.05492666791454        1.86431882637800

          :  Hamiltonian                  GFN1-xTB          :
         :: total energy             -33.370217233171 Eh    ::
         :: gradient norm              0.000343956338 Eh/a0 ::
         :: HOMO-LUMO gap              1.424730327409 eV    ::
         :: SCC energy               -33.644702166410 Eh    ::
         :: -> Gsolv                  -0.087578675840 Eh    ::
         :: repulsion energy           0.282096458334 Eh    ::

    * Orbital Energies and Occupations

         #    Occupation            Energy/Eh            Energy/eV
      -------------------------------------------------------------
         1        2.0000           -1.0019580             -27.2647
       ...           ...                  ...                  ...
        15        2.0000           -0.6406558             -17.4331
        16        2.0000           -0.6232695             -16.9600
        17        2.0000           -0.6140970             -16.7104
        18        2.0000           -0.5894139             -16.0388
        19        2.0000           -0.5875671             -15.9885
        20        2.0000           -0.5802685             -15.7899
        21        2.0000           -0.5762654             -15.6810
        22        2.0000           -0.5694328             -15.4951
        23        2.0000           -0.5568211             -15.1519
        24        2.0000           -0.5430010             -14.7758
        25        2.0000           -0.5319711             -14.4757
        26        2.0000           -0.5278829             -14.3644
        27        2.0000           -0.5170579             -14.0699 (HOMO)
        28                         -0.4647000             -12.6451 (LUMO)
        29                         -0.3887535             -10.5785
        30                         -0.3073636              -8.3638
        31                         -0.2540087              -6.9119
        32                         -0.1706052              -4.6424
        33                         -0.1648332              -4.4853
        34                         -0.1327043              -3.6111
        35                         -0.1270668              -3.4577
        36                         -0.1269733              -3.4551
        37                         -0.1204492              -3.2776
        38                         -0.1126344              -3.0649
       ...                                ...                  ...
        57                          0.7060005              19.2113
      -------------------------------------------------------------
                  HL-Gap            0.0523579 Eh            1.4247 eV

Wiberg/Mayer (AO) data.
largest (>0.10) Wiberg bond orders for each atom

     #   Z sym  total        # sym  WBO       # sym  WBO       # sym  WBO
 ---------------------------------------------------------------------------
     1   6 C    3.939 --    13 H    0.977    12 H    0.975    11 H    0.974
                             2 C    0.880
     2   6 C    3.811 --     4 N    1.079     3 C    0.880     1 C    0.880
                            10 O    0.865
     3   6 C    3.939 --    14 H    0.977    15 H    0.975    16 H    0.974
                             2 C    0.880
     4   7 N    2.998 --     5 N    1.669     2 C    1.079
     5   7 N    3.023 --     4 N    1.669     6 C    1.204
     6   6 C    3.798 --    10 O    1.376     5 N    1.204     7 C    0.931
     7   6 C    3.905 --     8 O    1.793     9 Cl   1.141     6 C    0.931
     8   8 O    2.074 --     7 C    1.793     9 Cl   0.201
     9  17 Cl   1.422 --     7 C    1.141     8 O    0.201
    10   8 O    2.427 --     6 C    1.376     2 C    0.865
    11   1 H    0.989 --     1 C    0.974
    12   1 H    0.989 --     1 C    0.975
    13   1 H    0.988 --     1 C    0.977
    14   1 H    0.988 --     3 C    0.977
    15   1 H    0.989 --     3 C    0.975
    16   1 H    0.989 --     3 C    0.974
 ---------------------------------------------------------------------------

           -------------------------------------------------
          | TOTAL ENERGY              -33.370217233171 Eh   |
          | GRADIENT NORM               0.000343956338 Eh/α |
          | HOMO-LUMO GAP               1.424730327409 eV   |
           -------------------------------------------------

 * finished run on 2023/06/20 at 14:54:56.661
