   * xtb version 6.5.1 (579679a) compiled by 'ehlert@majestix' on 2022-07-11
          program call               : /lustre/hpc/kemi/ree/PhD/git/ReactivityQM/dep/xtb-6.5.1/bin/xtb --gfn 1 /lustre/hpc/kemi/ree/PhD/git/ReactivityQM/calculations/R02oxygendeprot/reac01prodE03/conf08/R02oxygendeprot_reac01prodE03_conf08_gfn1.xyz --opt --vfukui --chrg -2 --uhf 0 --alpb DMSO

   ID    Z sym.   atoms
    1    6 C      1, 3, 5, 6, 8-11, 13, 15, 18, 19, 22, 24
    2    8 O      2, 4, 14, 20, 23, 25
    3    7 N      7, 12, 16, 17, 21
    4    1 H      26-42

      * Solvation model:               ALPB
        Solvent                        DMSO
        Solvent mass                       7.8130E+01 g/mol
          :  Hamiltonian                  GFN1-xTB          :
 * total energy  :   -83.5524022 Eh     change       -0.1081446E-10 Eh
 * total energy  :   -83.5667167 Eh     change       -0.1431451E-01 Eh
 * total energy  :   -83.5726314 Eh     change       -0.5914676E-02 Eh
 * total energy  :   -83.5740135 Eh     change       -0.1382039E-02 Eh
 * total energy  :   -83.5749951 Eh     change       -0.9816174E-03 Eh
 * total energy  :   -83.5755642 Eh     change       -0.5690858E-03 Eh
 * total energy  :   -83.5760563 Eh     change       -0.4921412E-03 Eh
 * total energy  :   -83.5764422 Eh     change       -0.3859180E-03 Eh
 * total energy  :   -83.5767120 Eh     change       -0.2697484E-03 Eh
 * total energy  :   -83.5768992 Eh     change       -0.1872209E-03 Eh
 * total energy  :   -83.5809240 Eh     change       -0.3260889E-04 Eh
 * total energy  :   -83.5809416 Eh     change       -0.1755770E-04 Eh
 * total energy  :   -83.5809534 Eh     change       -0.1181675E-04 Eh
 * total energy  :   -83.5809595 Eh     change       -0.6097458E-05 Eh
 * total energy  :   -83.5809685 Eh     change       -0.9020662E-05 Eh
 * total energy  :   -83.5809739 Eh     change       -0.5358693E-05 Eh
 * total energy  :   -83.5809796 Eh     change       -0.5710529E-05 Eh
 * total energy  :   -83.5809852 Eh     change       -0.5616558E-05 Eh
 * total energy  :   -83.5809898 Eh     change       -0.4544848E-05 Eh
   *** GEOMETRY OPTIMIZATION CONVERGED AFTER 80 ITERATIONS ***

 final structure:
================
42
 xtb: 6.5.1 (579679a)
C           -3.54046688517125        2.69404872420970       -0.60316478718521
O           -4.10814696853753        1.39144259061881       -0.60007875031140
C           -3.93845661484658        0.65359865433858        0.57841796785116
O           -4.97685201494151        0.80419962352045        1.48334775237086
C           -6.05304388866344       -0.12161949343652        1.36474468057757
C           -2.79815816659313       -0.10206682376281        0.79471571720037
N           -1.80314070441710        0.04148098064971       -0.17368170087619
C           -0.68746080149136       -0.60153843749010       -0.04967323115119
C            0.38681915193962       -0.43525330071600       -1.12264878443847
C            0.62443850169048       -1.77234048450695       -1.84484732274360
C           -0.09023675805771        0.60425650497592       -2.14261503933057
N            1.62078848162334        0.09751188107121       -0.52990751290296
C            2.62691436620036       -0.69445294714351        0.02755490843066
O            2.43263328453237       -1.84915062427894        0.46825921298962
C            3.86619696710955        0.01253926715688        0.09278350901188
N            4.09137623890503        1.25545539160247       -0.35206712353118
N            5.40924679939868        1.52315656135902       -0.10081832896510
C            5.91600347445420        0.47536094974322        0.46262616153451
C            7.31923524435918        0.29373998045732        0.91078981889679
O            5.01928835075635       -0.52666056605953        0.62818949264031
N           -0.43443131729337       -1.42552279296484        0.99718717940601
C           -1.35250490772184       -1.68965442360395        2.02079421928717
O           -1.00467040819558       -2.49313109684600        2.92449460707421
C           -2.62557202985945       -1.00354774074168        1.92517734177777
O           -3.54982436992474       -1.20784324177537        2.78557639984614
H           -3.79043974419988        3.15465615406876       -1.56079685038739
H           -3.94807618151616        3.31197078837426        0.20744850499599
H           -2.44740431945022        2.64602070928175       -0.50343203074211
H           -6.82200675602113        0.18433224800079        2.07667660791553
H           -6.47755759026888       -0.10869420806603        0.35303516373951
H           -5.72240932002632       -1.14070664049151        1.60485520436889
H            0.88082234258852       -2.56322964106930       -1.14262771905206
H           -0.28326414243116       -2.05833571654524       -2.37564701156968
H            1.43355181723093       -1.66807617628816       -2.56620875768293
H            0.64846422403889        0.72334756283990       -2.93356581448851
H           -1.03310296787853        0.28440565998644       -2.58461939281445
H           -0.24921809442777        1.56663398576731       -1.65613696097648
H            1.98148761775006        0.90918268277345       -1.01377392619850
H            7.35399170401982        0.06461637652384        1.97620485943281
H            7.87996988604006        1.20576583601247        0.72082172936316
H            7.78592657833762       -0.53216815872658        0.37322026336820
H            0.45928992095432       -1.90373159882019        1.04599674326499

          :  Hamiltonian                  GFN1-xTB          :
         :: total energy             -83.580989762887 Eh    ::
         :: gradient norm              0.000623744874 Eh/a0 ::
         :: HOMO-LUMO gap              0.035898628890 eV    ::
         :: SCC energy               -84.301737869823 Eh    ::
         :: -> Gsolv                  -0.275836903861 Eh    ::
         :: repulsion energy           0.746452424291 Eh    ::

    * Orbital Energies and Occupations

         #    Occupation            Energy/Eh            Energy/eV
      -------------------------------------------------------------
         1        2.0000           -0.8013890             -21.8069
       ...           ...                  ...                  ...
        56        2.0000           -0.4301421             -11.7048
        57        2.0000           -0.4261765             -11.5969
        58        2.0000           -0.4208224             -11.4512
        59        2.0000           -0.4091162             -11.1326
        60        2.0000           -0.4050724             -11.0226
        61        2.0000           -0.4034271             -10.9778
        62        2.0000           -0.4011029             -10.9146
        63        2.0000           -0.3975808             -10.8187
        64        2.0000           -0.3907069             -10.6317
        65        2.0000           -0.3745433             -10.1918
        66        2.0000           -0.3451300              -9.3915
        67        2.0000           -0.3399981              -9.2518
        68        1.3339           -0.2683487              -7.3021 (HOMO)
        69        0.6661           -0.2670295              -7.2662 (LUMO)
        70                         -0.2103774              -5.7247
        71                         -0.2045152              -5.5651
        72                         -0.1799720              -4.8973
        73                         -0.1406521              -3.8273
        74                         -0.1241735              -3.3789
        75                         -0.1146956              -3.1210
        76                         -0.1024706              -2.7884
        77                         -0.1001750              -2.7259
        78                         -0.0972887              -2.6474
        79                         -0.0744470              -2.0258
       ...                                ...                  ...
       134                          0.7295271              19.8514
      -------------------------------------------------------------
                  HL-Gap            0.0013193 Eh            0.0359 eV

Wiberg/Mayer (AO) data.
largest (>0.10) Wiberg bond orders for each atom

     #   Z sym  total        # sym  WBO       # sym  WBO       # sym  WBO
 ---------------------------------------------------------------------------
     1   6 C    3.912 --    26 H    0.986    27 H    0.983    28 H    0.980
                             2 O    0.937
     2   8 O    1.995 --     1 C    0.937     3 C    0.934
     3   6 C    3.524 --     6 C    1.451     4 O    0.959     2 O    0.934
     4   8 O    2.010 --     3 C    0.959     5 C    0.928
     5   6 C    3.906 --    29 H    0.987    30 H    0.984    31 H    0.978
                             4 O    0.928
     6   6 C    3.942 --     3 C    1.451    24 C    1.130     7 N    1.114
     7   7 N    2.973 --     8 C    1.565     6 C    1.114    21 N    0.110
     8   6 C    3.908 --     7 N    1.565    21 N    1.180     9 C    0.966
     9   6 C    3.949 --    11 C    1.002    10 C    0.985     8 C    0.966
                            12 N    0.935
    10   6 C    3.990 --    33 H    0.987    34 H    0.986     9 C    0.985
                            32 H    0.979
    11   6 C    3.996 --     9 C    1.002    35 H    0.987    37 H    0.984
                            36 H    0.984
    12   7 N    3.141 --    13 C    1.093     9 C    0.935    38 H    0.917
                            14 O    0.112
    13   6 C    3.752 --    14 O    1.434    15 C    1.154    12 N    1.093
    14   8 O    1.709 --    13 C    1.434    12 N    0.112
    15   6 C    3.691 --    16 N    1.389    13 C    1.154    20 O    0.978
    16   7 N    2.741 --    15 C    1.389    17 N    1.185
    17   7 N    2.980 --    18 C    1.628    16 N    1.185
    18   6 C    3.820 --    17 N    1.628    20 O    1.050    19 C    1.024
    19   6 C    3.994 --    18 C    1.024    40 H    0.986    39 H    0.972
                            41 H    0.971
    20   8 O    2.185 --    18 C    1.050    15 C    0.978
    21   7 N    3.405 --     8 C    1.180    22 C    1.056    42 H    0.883
                             7 N    0.110
    22   6 C    3.790 --    23 O    1.429    24 C    1.136    21 N    1.056
    23   8 O    1.655 --    22 C    1.429
    24   6 C    3.810 --    25 O    1.375    22 C    1.136     6 C    1.130
    25   8 O    1.601 --    24 C    1.375
    26   1 H    1.021 --     1 C    0.986
    27   1 H    1.016 --     1 C    0.983
    28   1 H    1.030 --     1 C    0.980
    29   1 H    1.022 --     5 C    0.987
    30   1 H    1.017 --     5 C    0.984
    31   1 H    1.042 --     5 C    0.978
    32   1 H    1.019 --    10 C    0.979
    33   1 H    1.007 --    10 C    0.987
    34   1 H    1.004 --    10 C    0.986
    35   1 H    1.004 --    11 C    0.987
    36   1 H    1.019 --    11 C    0.984
    37   1 H    1.015 --    11 C    0.984
    38   1 H    0.978 --    12 N    0.917
    39   1 H    1.001 --    19 C    0.972
    40   1 H    1.004 --    19 C    0.986
    41   1 H    1.001 --    19 C    0.971
    42   1 H    0.969 --    21 N    0.883
 ---------------------------------------------------------------------------

           -------------------------------------------------
          | TOTAL ENERGY              -83.580989762887 Eh   |
          | GRADIENT NORM               0.000623744874 Eh/α |
          | HOMO-LUMO GAP               0.035898628890 eV   |
           -------------------------------------------------

 * finished run on 2023/06/21 at 17:03:04.371
