   * xtb version 6.5.1 (579679a) compiled by 'ehlert@majestix' on 2022-07-11
          program call               : /lustre/hpc/kemi/ree/PhD/git/ReactivityQM/dep/xtb-6.5.1/bin/xtb --gfn 1 /lustre/hpc/kemi/ree/PhD/git/ReactivityQM/calculations/R01/reac01prodN03/conf05/R01_reac01prodN03_conf05_gfn1.xyz --opt --vfukui --chrg 1 --uhf 0 --alpb DMSO

   ID    Z sym.   atoms
    1    6 C      1, 3, 5, 7, 8, 11
    2    8 O      2, 4, 6
    3    7 N      9, 10
    4    1 H      12-20

      * Solvation model:               ALPB
        Solvent                        DMSO
        Solvent mass                       7.8130E+01 g/mol
          :  Hamiltonian                  GFN1-xTB          :
 * total energy  :   -37.6207549 Eh     change       -0.2516742E-10 Eh
 * total energy  :   -37.6368813 Eh     change       -0.1612643E-01 Eh
 * total energy  :   -37.6428014 Eh     change       -0.5920147E-02 Eh
 * total energy  :   -37.6436256 Eh     change       -0.8241722E-03 Eh
 * total energy  :   -37.6439172 Eh     change       -0.2916232E-03 Eh
 * total energy  :   -37.6439572 Eh     change       -0.3995555E-04 Eh
 * total energy  :   -37.6439860 Eh     change       -0.2878056E-04 Eh
 * total energy  :   -37.6440155 Eh     change       -0.2949474E-04 Eh
 * total energy  :   -37.6440408 Eh     change       -0.2534455E-04 Eh
 * total energy  :   -37.6440917 Eh     change       -0.5084862E-04 Eh
 * total energy  :   -37.6441860 Eh     change        0.3315896E-04 Eh
 * total energy  :   -37.6442436 Eh     change       -0.5757329E-04 Eh
 * total energy  :   -37.6442541 Eh     change       -0.1055281E-04 Eh
 * total energy  :   -37.6442744 Eh     change       -0.2027189E-04 Eh
 * total energy  :   -37.6443015 Eh     change       -0.2708643E-04 Eh
 * total energy  :   -37.6442201 Eh     change        0.8135479E-04 Eh
 * total energy  :   -37.6443271 Eh     change       -0.1069832E-03 Eh
 * total energy  :   -37.6443346 Eh     change       -0.7551101E-05 Eh
 * total energy  :   -37.6443386 Eh     change       -0.3981212E-05 Eh
   *** GEOMETRY OPTIMIZATION CONVERGED AFTER 24 ITERATIONS ***

 final structure:
================
20
 xtb: 6.5.1 (579679a)
C           -3.55405332659457        0.15646645092443       -0.01279634346247
O           -2.12294745999352        0.30557589226203       -0.14435759783587
C           -1.39445128852074       -0.77331206627379        0.01964850116025
O           -1.77645283262176       -1.88023564806037        0.25610198273380
C            0.06845533716056       -0.42792424935091       -0.12689380792818
O            1.02244194181989       -1.33060079378933        0.02252093100579
C            2.18229602800123       -0.68269064289755       -0.14395591883127
C            3.46900565221233       -1.38861957184599       -0.03994186676607
N            1.97489174224272        0.58345949714956       -0.39091980403880
N            0.64409142457044        0.72886012316861       -0.37562011875725
C            0.05899370396423        2.03032473793839       -0.61482009933835
H           -3.97594891426118        1.13618546207188       -0.21971820427389
H           -3.90849797040015       -0.58356137596008       -0.73130922677190
H           -3.78915673136823       -0.16415365517005        1.00286837412826
H            4.28816066884749       -0.69092584409974       -0.19510764884583
H            3.55363790388985       -1.84980620775313        0.94490212068879
H            3.51140407422130       -2.18486099986168       -0.78436119656303
H           -0.51584808103820        2.32059827943278        0.26213145255808
H           -0.60382029420956        1.96374114815164       -1.47492058734683
H            0.86779942207780        2.73147946396325       -0.79888294151520

          :  Hamiltonian                  GFN1-xTB          :
         :: total energy             -37.644338624095 Eh    ::
         :: gradient norm              0.000794453636 Eh/a0 ::
         :: HOMO-LUMO gap              3.655346898474 eV    ::
         :: SCC energy               -37.999550004767 Eh    ::
         :: -> Gsolv                  -0.081125155546 Eh    ::
         :: repulsion energy           0.363546996315 Eh    ::

    * Orbital Energies and Occupations

         #    Occupation            Energy/Eh            Energy/eV
      -------------------------------------------------------------
         1        2.0000           -0.9440001             -25.6875
       ...           ...                  ...                  ...
        18        2.0000           -0.6269362             -17.0598
        19        2.0000           -0.6085986             -16.5608
        20        2.0000           -0.6080827             -16.5468
        21        2.0000           -0.5935027             -16.1500
        22        2.0000           -0.5876251             -15.9901
        23        2.0000           -0.5744834             -15.6325
        24        2.0000           -0.5685745             -15.4717
        25        2.0000           -0.5615890             -15.2816
        26        2.0000           -0.5523701             -15.0308
        27        2.0000           -0.5442545             -14.8099
        28        2.0000           -0.5331908             -14.5089
        29        2.0000           -0.5324755             -14.4894
        30        2.0000           -0.5221938             -14.2096 (HOMO)
        31                         -0.3878623             -10.5543 (LUMO)
        32                         -0.3290890              -8.9550
        33                         -0.2702250              -7.3532
        34                         -0.1756628              -4.7800
        35                         -0.1693448              -4.6081
        36                         -0.1569667              -4.2713
        37                         -0.1120312              -3.0485
        38                         -0.1070995              -2.9143
        39                         -0.1002142              -2.7270
        40                         -0.0998240              -2.7163
        41                         -0.0921640              -2.5079
       ...                                ...                  ...
        62                          0.7336287              19.9631
      -------------------------------------------------------------
                  HL-Gap            0.1343315 Eh            3.6553 eV

Wiberg/Mayer (AO) data.
largest (>0.10) Wiberg bond orders for each atom

     #   Z sym  total        # sym  WBO       # sym  WBO       # sym  WBO
 ---------------------------------------------------------------------------
     1   6 C    3.824 --    12 H    0.983    13 H    0.976    14 H    0.976
                             2 O    0.853
     2   8 O    2.236 --     3 C    1.161     1 C    0.853     4 O    0.158
     3   6 C    3.882 --     4 O    1.711     2 O    1.161     5 C    0.940
     4   8 O    1.996 --     3 C    1.711     2 O    0.158
     5   6 C    3.852 --    10 N    1.449     6 O    1.136     3 C    0.940
     6   8 O    2.390 --     5 C    1.136     7 C    1.087
     7   6 C    3.837 --     9 N    1.547     6 O    1.087     8 C    1.045
     8   6 C    3.968 --     7 C    1.045    15 H    0.977    16 H    0.947
                            17 H    0.947
     9   7 N    2.967 --     7 C    1.547    10 N    1.176
    10   7 N    3.668 --     5 C    1.449     9 N    1.176    11 C    0.908
    11   6 C    3.876 --    20 H    0.978    19 H    0.962    18 H    0.961
                            10 N    0.908
    12   1 H    1.003 --     1 C    0.983
    13   1 H    0.998 --     1 C    0.976
    14   1 H    0.998 --     1 C    0.976
    15   1 H    0.990 --     8 C    0.977
    16   1 H    0.987 --     8 C    0.947
    17   1 H    0.987 --     8 C    0.947
    18   1 H    0.995 --    11 C    0.961
    19   1 H    0.995 --    11 C    0.962
    20   1 H    0.992 --    11 C    0.978
 ---------------------------------------------------------------------------

           -------------------------------------------------
          | TOTAL ENERGY              -37.644338624095 Eh   |
          | GRADIENT NORM               0.000794453636 Eh/α |
          | HOMO-LUMO GAP               3.655346898474 eV   |
           -------------------------------------------------

 * finished run on 2023/06/20 at 14:55:24.679
