   * xtb version 6.5.1 (579679a) compiled by 'ehlert@majestix' on 2022-07-11
          program call               : /lustre/hpc/kemi/ree/PhD/git/ReactivityQM/dep/xtb-6.5.1/bin/xtb --gfn 1 /lustre/hpc/kemi/ree/PhD/git/ReactivityQM/calculations/R01/reac01prodN05/conf06/R01_reac01prodN05_conf06_gfn1.xyz --opt --vfukui --chrg 1 --uhf 0 --alpb DMSO

   ID    Z sym.   atoms
    1    6 C      1, 3, 4, 6, 9, 10
    2    8 O      2, 5, 11
    3    7 N      7, 8
    4    1 H      12-20

      * Solvation model:               ALPB
        Solvent                        DMSO
        Solvent mass                       7.8130E+01 g/mol
          :  Hamiltonian                  GFN1-xTB          :
 * total energy  :   -37.4546798 Eh     change       -0.1749356E-10 Eh
 * total energy  :   -37.4692555 Eh     change       -0.1457562E-01 Eh
 * total energy  :   -37.4791950 Eh     change       -0.9939521E-02 Eh
 * total energy  :   -37.4823465 Eh     change       -0.3151519E-02 Eh
 * total energy  :   -37.4861713 Eh     change       -0.3824775E-02 Eh
 * total energy  :   -37.4966600 Eh     change       -0.1048871E-01 Eh
 * total energy  :   -37.5170211 Eh     change       -0.2036108E-01 Eh
 * total energy  :   -37.5450958 Eh     change       -0.2807470E-01 Eh
 * total energy  :   -37.5214991 Eh     change        0.2359668E-01 Eh
 * total energy  :   -37.5733233 Eh     change       -0.5182418E-01 Eh
 * total energy  :   -37.6285919 Eh     change       -0.2217233E-04 Eh
 * total energy  :   -37.6286183 Eh     change       -0.2638520E-04 Eh
 * total energy  :   -37.6286388 Eh     change       -0.2051087E-04 Eh
 * total energy  :   -37.6286525 Eh     change       -0.1372185E-04 Eh
 * total energy  :   -37.6286635 Eh     change       -0.1101152E-04 Eh
 * total energy  :   -37.6286646 Eh     change       -0.1111962E-05 Eh
 * total energy  :   -37.6286748 Eh     change       -0.1022261E-04 Eh
 * total energy  :   -37.6286786 Eh     change       -0.3717521E-05 Eh
 * total energy  :   -37.6286821 Eh     change       -0.3563318E-05 Eh
   *** GEOMETRY OPTIMIZATION CONVERGED AFTER 60 ITERATIONS ***

 final structure:
================
20
 xtb: 6.5.1 (579679a)
C           -3.38051303871380        1.21766623294728       -0.73190751444975
O           -2.84598931570287       -0.05689515107446       -0.31109745587957
C           -1.60859298041221       -0.24148930212086       -0.10948784450229
C           -1.15870716360689       -1.57663461506848        0.31180468563760
O           -0.81809462976228        0.77844710501931       -0.29282196598731
C            0.52655917861834        0.82392538417280       -0.15934222494880
N            1.23808411369195        1.87176306290059       -0.38305300410732
N            2.52485637966413        1.49395243897677       -0.13962762502114
C            2.50583091313101        0.24879421536947        0.21302783507535
C            3.64180220044996       -0.61674020228529        0.58377179852024
O            1.24037138299614       -0.24403103549910        0.21973739325502
H           -4.42184557771859        1.02866619400923       -0.98399279378535
H           -3.29669667162155        1.92254807917985        0.09584115766827
H           -2.81953174575445        1.57822233234225       -1.59387401033918
H           -2.01358793512356       -2.24381138575044        0.39884940463825
H           -0.44311737865083       -1.96664890159608       -0.41421461121923
H           -0.63389313454841       -1.50116891409187        1.26556062215355
H            4.56298227248677       -0.03888375767760        0.56108372255965
H            3.71477470092869       -1.45266158717791       -0.11235179623491
H            3.48530842964824       -1.02502119257528        1.58209322696677

          :  Hamiltonian                  GFN1-xTB          :
         :: total energy             -37.628682127738 Eh    ::
         :: gradient norm              0.000933488229 Eh/a0 ::
         :: HOMO-LUMO gap              2.885416725463 eV    ::
         :: SCC energy               -37.975240767375 Eh    ::
         :: -> Gsolv                  -0.083961115821 Eh    ::
         :: repulsion energy           0.354568951133 Eh    ::

    * Orbital Energies and Occupations

         #    Occupation            Energy/Eh            Energy/eV
      -------------------------------------------------------------
         1        2.0000           -0.9497194             -25.8432
       ...           ...                  ...                  ...
        18        2.0000           -0.6238729             -16.9764
        19        2.0000           -0.5972061             -16.2508
        20        2.0000           -0.5938012             -16.1582
        21        2.0000           -0.5801324             -15.7862
        22        2.0000           -0.5685059             -15.4698
        23        2.0000           -0.5650264             -15.3752
        24        2.0000           -0.5613982             -15.2764
        25        2.0000           -0.5573476             -15.1662
        26        2.0000           -0.5504483             -14.9785
        27        2.0000           -0.5409236             -14.7193
        28        2.0000           -0.5163418             -14.0504
        29        2.0000           -0.4914450             -13.3729
        30        2.0000           -0.4847422             -13.1905 (HOMO)
        31                         -0.3787051             -10.3051 (LUMO)
        32                         -0.2948648              -8.0237
        33                         -0.2789437              -7.5904
        34                         -0.1798970              -4.8952
        35                         -0.1663428              -4.5264
        36                         -0.1544055              -4.2016
        37                         -0.1110748              -3.0225
        38                         -0.1086223              -2.9558
        39                         -0.1045795              -2.8458
        40                         -0.1036100              -2.8194
        41                         -0.0855626              -2.3283
       ...                                ...                  ...
        62                          0.5653249              15.3833
      -------------------------------------------------------------
                  HL-Gap            0.1060371 Eh            2.8854 eV

Wiberg/Mayer (AO) data.
largest (>0.10) Wiberg bond orders for each atom

     #   Z sym  total        # sym  WBO       # sym  WBO       # sym  WBO
 ---------------------------------------------------------------------------
     1   6 C    3.802 --    12 H    0.979    14 H    0.972    13 H    0.967
                             2 O    0.833
     2   8 O    2.350 --     3 C    1.344     1 C    0.833
     3   6 C    3.764 --     2 O    1.344     5 O    1.180     4 C    1.048
     4   6 C    3.958 --     3 C    1.048    15 H    0.972    17 H    0.928
                            16 H    0.927
     5   8 O    2.361 --     3 C    1.180     6 C    0.967
     6   6 C    3.814 --     7 N    1.608    11 O    1.063     5 O    0.967
     7   7 N    3.007 --     6 C    1.608     8 N    1.180
     8   7 N    2.983 --     9 C    1.630     7 N    1.180
     9   6 C    3.839 --     8 N    1.630    10 C    1.037    11 O    1.026
    10   6 C    3.978 --     9 C    1.037    18 H    0.979    20 H    0.958
                            19 H    0.956
    11   8 O    2.308 --     6 C    1.063     9 C    1.026
    12   1 H    0.998 --     1 C    0.979
    13   1 H    0.993 --     1 C    0.967
    14   1 H    0.995 --     1 C    0.972
    15   1 H    0.986 --     4 C    0.972
    16   1 H    0.987 --     4 C    0.927
    17   1 H    0.987 --     4 C    0.928
    18   1 H    0.994 --    10 C    0.979
    19   1 H    0.992 --    10 C    0.956
    20   1 H    0.992 --    10 C    0.958
 ---------------------------------------------------------------------------

           -------------------------------------------------
          | TOTAL ENERGY              -37.628682127738 Eh   |
          | GRADIENT NORM               0.000933488229 Eh/α |
          | HOMO-LUMO GAP               2.885416725463 eV   |
           -------------------------------------------------

 * finished run on 2023/06/20 at 14:56:02.703
