                         Program Version 5.0.1 -  RELEASE  -
|  1> # ORCA input file
|  2> ! SP r2SCAN-3c CPCM
|  3>
|  4> %maxcore 1875.0
|  5> %pal nprocs 4 end
|  6> %cpcm smd true SMDsolvent "DMSO" end
|  7>
|  8> *xyz 1 1
|  9> C       5.342553    2.593610   -0.352013
| 10> O       4.206011    1.719698   -0.372842
| 11> C       4.300868    0.605281    0.333247
| 12> O       5.289863    0.301293    0.976820
| 13> C       3.089525   -0.247468    0.280947
| 14> N       2.034025    0.202445   -0.475892
| 15> C       0.966877   -0.511599   -0.533119
| 16> C      -0.180787   -0.071574   -1.414952
| 17> C      -0.222915   -0.947555   -2.670419
| 18> C      -0.050620    1.408974   -1.776617
| 19> N      -1.454588   -0.281993   -0.696989
| 20> C      -1.737013    0.199671    0.490058
| 21> O      -0.815340    0.843370    1.139556
| 22> C      -1.047212    1.439671    2.427892
| 23> C      -3.061683   -0.035728    1.005025
| 24> N      -3.587760    0.295056    2.153320
| 25> N      -4.851830   -0.157893    2.150307
| 26> C      -5.047406   -0.746243    0.999228
| 27> C      -6.277956   -1.392662    0.508890
| 28> O      -3.949702   -0.700401    0.237012
| 29> N       0.839704   -1.703423    0.118615
| 30> C       1.824634   -2.261512    0.920094
| 31> O       1.640427   -3.317533    1.491694
| 32> C       3.038616   -1.434545    0.971846
| 33> O       4.035399   -1.906183    1.713876
| 34> H       5.084305    3.449991   -0.971277
| 35> H       5.548242    2.910460    0.672864
| 36> H       6.216256    2.077431   -0.756100
| 37> H      -0.365180   -1.991437   -2.397896
| 38> H       0.716002   -0.847672   -3.213173
| 39> H      -1.039984   -0.631698   -3.316008
| 40> H      -0.915279    1.723686   -2.356180
| 41> H       0.853470    1.548394   -2.367190
| 42> H       0.022546    2.014411   -0.875821
| 43> H      -2.198046   -0.755832   -1.190811
| 44> H      -0.120917    1.951025    2.682978
| 45> H      -1.278536    0.664485    3.159781
| 46> H      -1.875308    2.146589    2.364428
| 47> H      -6.039653   -2.366838    0.083807
| 48> H      -6.719552   -0.783632   -0.281403
| 49> H      -6.990350   -1.500783    1.323836
| 50> H      -0.021135   -2.221355    0.043772
| 51> H       4.799428   -1.279983    1.696659
| 52> **                         ****END OF INPUT****

CARTESIAN COORDINATES (ANGSTROEM)
---------------------------------
  C      5.342553    2.593610   -0.352013
  O      4.206011    1.719698   -0.372842
  C      4.300868    0.605281    0.333247
  O      5.289863    0.301293    0.976820
  C      3.089525   -0.247468    0.280947
  N      2.034025    0.202445   -0.475892
  C      0.966877   -0.511599   -0.533119
  C     -0.180787   -0.071574   -1.414952
  C     -0.222915   -0.947555   -2.670419
  C     -0.050620    1.408974   -1.776617
  N     -1.454588   -0.281993   -0.696989
  C     -1.737013    0.199671    0.490058
  O     -0.815340    0.843370    1.139556
  C     -1.047212    1.439671    2.427892
  C     -3.061683   -0.035728    1.005025
  N     -3.587760    0.295056    2.153320
  N     -4.851830   -0.157893    2.150307
  C     -5.047406   -0.746243    0.999228
  C     -6.277956   -1.392662    0.508890
  O     -3.949702   -0.700401    0.237012
  N      0.839704   -1.703423    0.118615
  C      1.824634   -2.261512    0.920094
  O      1.640427   -3.317533    1.491694
  C      3.038616   -1.434545    0.971846
  O      4.035399   -1.906183    1.713876
  H      5.084305    3.449991   -0.971277
  H      5.548242    2.910460    0.672864
  H      6.216256    2.077431   -0.756100
  H     -0.365180   -1.991437   -2.397896
  H      0.716002   -0.847672   -3.213173
  H     -1.039984   -0.631698   -3.316008
  H     -0.915279    1.723686   -2.356180
  H      0.853470    1.548394   -2.367190
  H      0.022546    2.014411   -0.875821
  H     -2.198046   -0.755832   -1.190811
  H     -0.120917    1.951025    2.682978
  H     -1.278536    0.664485    3.159781
  H     -1.875308    2.146589    2.364428
  H     -6.039653   -2.366838    0.083807
  H     -6.719552   -0.783632   -0.281403
  H     -6.990350   -1.500783    1.323836
  H     -0.021135   -2.221355    0.043772
  H      4.799428   -1.279983    1.696659

 Total Charge           Charge          ....    1
 Multiplicity           Mult            ....    1
 Number of Electrons    NEL             ....  184
 Basis Dimension        Dim             ....  620

ORBITAL ENERGIES
----------------

  NO   OCC          E(Eh)            E(eV)
   0   2.0000     -19.092959      -519.5458
   1   2.0000     -19.069620      -518.9107
   2   2.0000     -19.014721      -517.4169
   3   2.0000     -19.002598      -517.0870
   4   2.0000     -18.961364      -515.9649
   5   2.0000     -18.939531      -515.3708
   6   2.0000     -14.263921      -388.1410
   7   2.0000     -14.237509      -387.4223
   8   2.0000     -14.235184      -387.3590
   9   2.0000     -14.220524      -386.9601
  10   2.0000     -14.175569      -385.7368
  11   2.0000     -10.230632      -278.3896
  12   2.0000     -10.179809      -277.0067
  13   2.0000     -10.179065      -276.9864
  14   2.0000     -10.174032      -276.8495
  15   2.0000     -10.159091      -276.4429
  16   2.0000     -10.136859      -275.8380
  17   2.0000     -10.132654      -275.7235
  18   2.0000     -10.129354      -275.6337
  19   2.0000     -10.104331      -274.9528
  20   2.0000     -10.099311      -274.8162
  21   2.0000     -10.083081      -274.3746
  22   2.0000     -10.055385      -273.6209
  23   2.0000     -10.039675      -273.1934
  24   2.0000     -10.032909      -273.0093
  25   2.0000      -1.185543       -32.2603
  26   2.0000      -1.132071       -30.8052
  27   2.0000      -1.094505       -29.7830
  28   2.0000      -1.059777       -28.8380
  29   2.0000      -1.029495       -28.0140
  30   2.0000      -1.008382       -27.4395
  31   2.0000      -1.002781       -27.2871
  32   2.0000      -0.991082       -26.9687
  33   2.0000      -0.969864       -26.3913
  34   2.0000      -0.890085       -24.2204
  35   2.0000      -0.862165       -23.4607
  36   2.0000      -0.814472       -22.1629
  37   2.0000      -0.766396       -20.8547
  38   2.0000      -0.740979       -20.1631
  39   2.0000      -0.733473       -19.9588
  40   2.0000      -0.718849       -19.5609
  41   2.0000      -0.702974       -19.1289
  42   2.0000      -0.680272       -18.5111
  43   2.0000      -0.663196       -18.0465
  44   2.0000      -0.653771       -17.7900
  45   2.0000      -0.634280       -17.2596
  46   2.0000      -0.617950       -16.8153
  47   2.0000      -0.589260       -16.0346
  48   2.0000      -0.577343       -15.7103
  49   2.0000      -0.572026       -15.5656
  50   2.0000      -0.558217       -15.1899
  51   2.0000      -0.553599       -15.0642
  52   2.0000      -0.531747       -14.4696
  53   2.0000      -0.526899       -14.3376
  54   2.0000      -0.504931       -13.7399
  55   2.0000      -0.498094       -13.5538
  56   2.0000      -0.488909       -13.3039
  57   2.0000      -0.486060       -13.2264
  58   2.0000      -0.469913       -12.7870
  59   2.0000      -0.460799       -12.5390
  60   2.0000      -0.459800       -12.5118
  61   2.0000      -0.448088       -12.1931
  62   2.0000      -0.441258       -12.0072
  63   2.0000      -0.441054       -12.0017
  64   2.0000      -0.424072       -11.5396
  65   2.0000      -0.417344       -11.3565
  66   2.0000      -0.413407       -11.2494
  67   2.0000      -0.404323       -11.0022
  68   2.0000      -0.397570       -10.8184
  69   2.0000      -0.394236       -10.7277
  70   2.0000      -0.392043       -10.6680
  71   2.0000      -0.386425       -10.5152
  72   2.0000      -0.375995       -10.2313
  73   2.0000      -0.373837       -10.1726
  74   2.0000      -0.371238       -10.1019
  75   2.0000      -0.367815       -10.0088
  76   2.0000      -0.366708        -9.9786
  77   2.0000      -0.362519        -9.8646
  78   2.0000      -0.353339        -9.6148
  79   2.0000      -0.351096        -9.5538
  80   2.0000      -0.338636        -9.2148
  81   2.0000      -0.332393        -9.0449
  82   2.0000      -0.330991        -9.0067
  83   2.0000      -0.311105        -8.4656
  84   2.0000      -0.294825        -8.0226
  85   2.0000      -0.288626        -7.8539
  86   2.0000      -0.285837        -7.7780
  87   2.0000      -0.282922        -7.6987
  88   2.0000      -0.280821        -7.6415
  89   2.0000      -0.254969        -6.9380
  90   2.0000      -0.251083        -6.8323
  91   2.0000      -0.219909        -5.9840
  92   0.0000      -0.141587        -3.8528
  93   0.0000      -0.102189        -2.7807
  94   0.0000      -0.050053        -1.3620
  95   0.0000      -0.043575        -1.1857
  96   0.0000       0.001019         0.0277

MULLIKEN ATOMIC CHARGES
-----------------------
   0 C :   -0.309262
   1 O :   -0.186638
   2 C :    0.220588
   3 O :   -0.480480
   4 C :    0.137653
   5 N :   -0.111322
   6 C :    0.186119
   7 C :    0.034698
   8 C :   -0.522832
   9 C :   -0.571345
  10 N :   -0.128700
  11 C :    0.149813
  12 O :   -0.182355
  13 C :   -0.295961
  14 C :    0.202322
  15 N :    0.044721
  16 N :   -0.388555
  17 C :    0.476997
  18 C :   -0.625608
  19 O :   -0.034769
  20 N :   -0.049250
  21 C :    0.081644
  22 O :   -0.387680
  23 C :    0.051710
  24 O :   -0.353907
  25 H :    0.181504
  26 H :    0.180693
  27 H :    0.181240
  28 H :    0.197614
  29 H :    0.206982
  30 H :    0.199905
  31 H :    0.196634
  32 H :    0.200688
  33 H :    0.196272
  34 H :    0.354476
  35 H :    0.198543
  36 H :    0.200745
  37 H :    0.201867
  38 H :    0.207252
  39 H :    0.216733
  40 H :    0.212494
  41 H :    0.331084
  42 H :    0.377672
Sum of atomic charges:    1.0000000

LOEWDIN ATOMIC CHARGES
----------------------
   0 C :   -0.030150
   1 O :   -0.554868
   2 C :    0.409124
   3 O :   -0.461352
   4 C :    0.198217
   5 N :   -0.543912
   6 C :    0.345652
   7 C :    0.116102
   8 C :   -0.327270
   9 C :   -0.327156
  10 N :   -0.477293
  11 C :    0.479313
  12 O :   -0.518518
  13 C :    0.009012
  14 C :    0.417118
  15 N :   -0.312565
  16 N :   -0.319873
  17 C :    0.411410
  18 C :   -0.307651
  19 O :   -0.370319
  20 N :   -0.437148
  21 C :    0.376066
  22 O :   -0.427215
  23 C :    0.288004
  24 O :   -0.434652
  25 H :    0.189092
  26 H :    0.185200
  27 H :    0.185244
  28 H :    0.179405
  29 H :    0.186267
  30 H :    0.180798
  31 H :    0.176454
  32 H :    0.185621
  33 H :    0.183016
  34 H :    0.322149
  35 H :    0.199143
  36 H :    0.201266
  37 H :    0.202030
  38 H :    0.197371
  39 H :    0.202180
  40 H :    0.196831
  41 H :    0.310792
  42 H :    0.317067

  Mayer bond orders larger than 0.100000
B(  0-C ,  1-O ) :   0.8218 B(  0-C , 25-H ) :   0.9603 B(  0-C , 26-H ) :   0.9537
B(  0-C , 27-H ) :   0.9535 B(  1-O ,  2-C ) :   1.2068 B(  2-C ,  3-O ) :   1.7211
B(  2-C ,  4-C ) :   1.0723 B(  4-C ,  5-N ) :   1.0024 B(  4-C , 23-C ) :   1.3119
B(  5-N ,  6-C ) :   1.7304 B(  6-C ,  7-C ) :   0.7968 B(  6-C , 12-O ) :   0.1106
B(  6-C , 20-N ) :   1.0471 B(  6-C , 23-C ) :   0.1189 B(  7-C ,  8-C ) :   0.9635
B(  7-C ,  9-C ) :   0.9287 B(  7-C , 10-N ) :   0.7331 B(  8-C , 28-H ) :   0.9418
B(  8-C , 29-H ) :   0.9554 B(  8-C , 30-H ) :   0.9579 B(  9-C , 31-H ) :   0.9709
B(  9-C , 32-H ) :   0.9505 B(  9-C , 33-H ) :   0.9472 B( 10-N , 11-C ) :   1.4294
B( 10-N , 12-O ) :   0.1039 B( 10-N , 34-H ) :   0.8736 B( 11-C , 12-O ) :   1.1722
B( 11-C , 14-C ) :   1.0364 B( 12-O , 13-C ) :   0.8185 B( 13-C , 35-H ) :   0.9476
B( 13-C , 36-H ) :   0.9306 B( 13-C , 37-H ) :   0.9333 B( 14-C , 15-N ) :   1.6602
B( 14-C , 16-N ) :   0.1193 B( 14-C , 17-C ) :   0.1052 B( 14-C , 19-O ) :   1.0870
B( 15-N , 16-N ) :   1.2128 B( 16-N , 17-C ) :   1.4671 B( 17-C , 18-C ) :   0.8366
B( 17-C , 19-O ) :   1.0765 B( 18-C , 38-H ) :   0.9481 B( 18-C , 39-H ) :   0.9248
B( 18-C , 40-H ) :   0.9794 B( 20-N , 21-C ) :   1.0118 B( 20-N , 41-H ) :   0.8844
B( 21-C , 22-O ) :   2.0678 B( 21-C , 23-C ) :   0.9764 B( 23-C , 24-O ) :   1.1710
B( 24-O , 42-H ) :   0.7627

Dispersion correction           -0.019093747
FINAL SINGLE POINT ENERGY     -1269.074584225288

DIPOLE MOMENT
-------------
                                X             Y             Z
Electronic contribution:      2.34843      -8.08441       8.86581
Nuclear contribution   :     -7.56368       9.66578     -11.86437
                        -----------------------------------------
Total Dipole Moment    :     -5.21526       1.58137      -2.99856
                        -----------------------------------------
Magnitude (a.u.)       :      6.22021
Magnitude (Debye)      :     15.81052

Rotational constants in cm-1:     0.014316     0.003781     0.003620
Rotational constants in MHz :   429.173843   113.354399   108.516339

                             ****ORCA TERMINATED NORMALLY****
TOTAL RUN TIME: 0 days 0 hours 2 minutes 13 seconds 314 msec
