   * xtb version 6.5.1 (579679a) compiled by 'ehlert@majestix' on 2022-07-11
          program call               : /lustre/hpc/kemi/ree/PhD/git/ReactivityQM/dep/xtb-6.5.1/bin/xtb --gfn 1 /lustre/hpc/kemi/ree/PhD/git/ReactivityQM/calculations/R02/reac01prodN02/conf11/R02_reac01prodN02_conf11_gfn1.xyz --opt --vfukui --chrg 1 --uhf 0 --alpb DMSO

   ID    Z sym.   atoms
    1    6 C      1, 3, 5, 7-10, 12, 14, 15, 18, 19, 22, 24
    2    8 O      2, 4, 13, 20, 23, 25
    3    7 N      6, 11, 16, 17, 21
    4    1 H      26-43

      * Solvation model:               ALPB
        Solvent                        DMSO
        Solvent mass                       7.8130E+01 g/mol
          :  Hamiltonian                  GFN1-xTB          :
 * total energy  :   -83.1467042 Eh     change       -0.4988010E-10 Eh
 * total energy  :   -83.1659025 Eh     change       -0.1919827E-01 Eh
 * total energy  :   -83.1725553 Eh     change       -0.6652780E-02 Eh
 * total energy  :   -83.1738838 Eh     change       -0.1328464E-02 Eh
 * total energy  :   -83.1747750 Eh     change       -0.8912799E-03 Eh
 * total energy  :   -83.1751740 Eh     change       -0.3989516E-03 Eh
 * total energy  :   -83.1755099 Eh     change       -0.3359282E-03 Eh
 * total energy  :   -83.1757623 Eh     change       -0.2523685E-03 Eh
 * total energy  :   -83.1759017 Eh     change       -0.1393675E-03 Eh
 * total energy  :   -83.1759667 Eh     change       -0.6501620E-04 Eh
 * total energy  :   -83.1771279 Eh     change       -0.2316722E-04 Eh
 * total energy  :   -83.1771358 Eh     change       -0.7825513E-05 Eh
 * total energy  :   -83.1771475 Eh     change       -0.1177760E-04 Eh
 * total energy  :   -83.1771548 Eh     change       -0.7280972E-05 Eh
 * total energy  :   -83.1771623 Eh     change       -0.7425353E-05 Eh
 * total energy  :   -83.1771674 Eh     change       -0.5105409E-05 Eh
 * total energy  :   -83.1771767 Eh     change       -0.9303611E-05 Eh
 * total energy  :   -83.1771832 Eh     change       -0.6543512E-05 Eh
 * total energy  :   -83.1771875 Eh     change       -0.4258131E-05 Eh
   *** GEOMETRY OPTIMIZATION CONVERGED AFTER 62 ITERATIONS ***

 final structure:
================
43
 xtb: 6.5.1 (579679a)
C            5.34255336184488        2.59361032100683       -0.35201300459975
O            4.20601056067923        1.71969787314754       -0.37284224577505
C            4.30086779768584        0.60528119237377        0.33324675741139
O            5.28986335309789        0.30129255495563        0.97682017493480
C            3.08952528658448       -0.24746823103369        0.28094742949294
N            2.03402477874710        0.20244507527023       -0.47589180846529
C            0.96687701905465       -0.51159908202798       -0.53311932409572
C           -0.18078746220327       -0.07157411627163       -1.41495240966599
C           -0.22291486555888       -0.94755502972248       -2.67041884941442
C           -0.05062006635466        1.40897368620840       -1.77661666448561
N           -1.45458783048293       -0.28199340379688       -0.69698892954054
C           -1.73701334888936        0.19967148769957        0.49005841236504
O           -0.81534033846326        0.84337007582568        1.13955631659568
C           -1.04721150287866        1.43967089629142        2.42789157775105
C           -3.06168272901773       -0.03572786699021        1.00502528588641
N           -3.58776025712267        0.29505628608113        2.15332002728628
N           -4.85183020046672       -0.15789251242644        2.15030743328314
C           -5.04740555905834       -0.74624323781904        0.99922806751453
C           -6.27795550564376       -1.39266168239964        0.50889007357282
O           -3.94970176390460       -0.70040104719055        0.23701162383113
N            0.83970392855331       -1.70342261577344        0.11861461751564
C            1.82463440680192       -2.26151198475897        0.92009411013909
O            1.64042729576198       -3.31753290409594        1.49169388121921
C            3.03861570287677       -1.43454475229631        0.97184630608788
O            4.03539862322051       -1.90618349238525        1.71387604401766
H            5.08430485632815        3.44999097494563       -0.97127671294143
H            5.54824192089123        2.91046027574287        0.67286395178357
H            6.21625627178708        2.07743060863093       -0.75609952673627
H           -0.36517978796501       -1.99143707242567       -2.39789642557521
H            0.71600211271898       -0.84767207757411       -3.21317258617958
H           -1.03998377809013       -0.63169844472599       -3.31600834241479
H           -0.91527897694044        1.72368617362831       -2.35617985547927
H            0.85347026357840        1.54839423830740       -2.36718997364687
H            0.02254593565188        2.01441117558258       -0.87582061301788
H           -2.19804623731493       -0.75583200484621       -1.19081110434765
H           -0.12091737269471        1.95102453164727        2.68297821893025
H           -1.27853600557339        0.66448495582535        3.15978087865977
H           -1.87530831384986        2.14658857630235        2.36442789532465
H           -6.03965251526206       -2.36683766686263        0.08380659030186
H           -6.71955198823774       -0.78363214359731       -0.28140251766939
H           -6.99035003740213       -1.50078291977044        1.32383601058701
H           -0.02113502366350       -2.22135519603506        0.04377166398561
H            4.79942799116368       -1.27998347464968        1.69665854557680

          :  Hamiltonian                  GFN1-xTB          :
         :: total energy             -83.177187460823 Eh    ::
         :: gradient norm              0.000757383200 Eh/a0 ::
         :: HOMO-LUMO gap              1.720658177740 eV    ::
         :: SCC energy               -83.971616405200 Eh    ::
         :: -> Gsolv                  -0.119504043573 Eh    ::
         :: repulsion energy           0.821144725548 Eh    ::

    * Orbital Energies and Occupations

         #    Occupation            Energy/Eh            Energy/eV
      -------------------------------------------------------------
         1        2.0000           -0.9072271             -24.6869
       ...           ...                  ...                  ...
        55        2.0000           -0.5331684             -14.5082
        56        2.0000           -0.5241715             -14.2634
        57        2.0000           -0.5211031             -14.1799
        58        2.0000           -0.5164141             -14.0523
        59        2.0000           -0.5154149             -14.0252
        60        2.0000           -0.5071028             -13.7990
        61        2.0000           -0.5005244             -13.6200
        62        2.0000           -0.4994242             -13.5900
        63        2.0000           -0.4908408             -13.3565
        64        2.0000           -0.4901004             -13.3363
        65        2.0000           -0.4742704             -12.9056
        66        2.0000           -0.4603585             -12.5270
        67        2.0000           -0.4434260             -12.0662 (HOMO)
        68                         -0.3801930             -10.3456 (LUMO)
        69                         -0.3371310              -9.1738
        70                         -0.2995641              -8.1516
        71                         -0.2915618              -7.9338
        72                         -0.2590505              -7.0491
        73                         -0.2529850              -6.8841
        74                         -0.1719478              -4.6789
        75                         -0.1664328              -4.5289
        76                         -0.1554596              -4.2303
        77                         -0.1544017              -4.2015
        78                         -0.1422746              -3.8715
       ...                                ...                  ...
       136                          0.7169281              19.5086
      -------------------------------------------------------------
                  HL-Gap            0.0632330 Eh            1.7207 eV

Wiberg/Mayer (AO) data.
largest (>0.10) Wiberg bond orders for each atom

     #   Z sym  total        # sym  WBO       # sym  WBO       # sym  WBO
 ---------------------------------------------------------------------------
     1   6 C    3.862 --    26 H    0.986    27 H    0.979    28 H    0.979
                             2 O    0.888
     2   8 O    2.220 --     3 C    1.142     1 C    0.888     4 O    0.131
     3   6 C    3.851 --     4 O    1.607     2 O    1.142     5 C    1.018
     4   8 O    1.949 --     3 C    1.607     2 O    0.131
     5   6 C    3.961 --    24 C    1.488     6 N    1.168     3 C    1.018
     6   7 N    3.030 --     7 C    1.604     5 C    1.168
     7   6 C    3.938 --     6 N    1.604    21 N    1.166     8 C    0.974
     8   6 C    3.901 --    10 C    0.985     9 C    0.984     7 C    0.974
                            11 N    0.889
     9   6 C    3.982 --     8 C    0.984    29 H    0.982    30 H    0.980
                            31 H    0.980
    10   6 C    3.979 --     8 C    0.985    32 H    0.984    34 H    0.982
                            33 H    0.979
    11   7 N    3.472 --    12 C    1.440     8 C    0.889    35 H    0.868
                            13 O    0.108
    12   6 C    3.895 --    11 N    1.440    13 O    1.203    15 C    1.094
    13   8 O    2.275 --    12 C    1.203    14 C    0.858    11 N    0.108
    14   6 C    3.824 --    36 H    0.980    38 H    0.973    37 H    0.973
                            13 O    0.858
    15   6 C    3.887 --    16 N    1.539    12 C    1.094    20 O    1.048
    16   7 N    3.032 --    15 C    1.539    17 N    1.262
    17   7 N    2.989 --    18 C    1.538    16 N    1.262
    18   6 C    3.848 --    17 N    1.538    20 O    1.091    19 C    1.041
    19   6 C    3.977 --    18 C    1.041    41 H    0.978    39 H    0.960
                            40 H    0.947
    20   8 O    2.336 --    18 C    1.091    15 C    1.048
    21   7 N    3.451 --     7 C    1.166    22 C    1.109    42 H    0.884
                            23 O    0.135
    22   6 C    3.905 --    23 O    1.618    21 N    1.109    24 C    1.049
    23   8 O    1.916 --    22 C    1.618    21 N    0.135
    24   6 C    3.922 --     5 C    1.488    25 O    1.140    22 C    1.049
    25   8 O    2.104 --    24 C    1.140    43 H    0.769
    26   1 H    1.009 --     1 C    0.986
    27   1 H    1.005 --     1 C    0.979
    28   1 H    1.005 --     1 C    0.979
    29   1 H    0.995 --     9 C    0.982
    30   1 H    0.996 --     9 C    0.980
    31   1 H    0.993 --     9 C    0.980
    32   1 H    0.997 --    10 C    0.984
    33   1 H    1.004 --    10 C    0.979
    34   1 H    1.005 --    10 C    0.982
    35   1 H    0.912 --    11 N    0.868
    36   1 H    1.002 --    14 C    0.980
    37   1 H    1.008 --    14 C    0.973
    38   1 H    1.006 --    14 C    0.973
    39   1 H    0.992 --    19 C    0.960
    40   1 H    0.990 --    19 C    0.947
    41   1 H    0.994 --    19 C    0.978
    42   1 H    0.926 --    21 N    0.884
    43   1 H    0.847 --    25 O    0.769
 ---------------------------------------------------------------------------

           -------------------------------------------------
          | TOTAL ENERGY              -83.177187460823 Eh   |
          | GRADIENT NORM               0.000757383200 Eh/α |
          | HOMO-LUMO GAP               1.720658177740 eV   |
           -------------------------------------------------

 * finished run on 2023/06/20 at 15:20:09.887
