   * xtb version 6.5.1 (579679a) compiled by 'ehlert@majestix' on 2022-07-11
          program call               : /lustre/hpc/kemi/ree/PhD/git/ReactivityQM/dep/xtb-6.5.1/bin/xtb --gfn 1 /lustre/hpc/kemi/ree/PhD/git/ReactivityQM/calculations/R02deprot/reac01prodN05/conf04/R02deprot_reac01prodN05_conf04_gfn1.xyz --opt --vfukui --chrg 0 --uhf 0 --alpb DMSO

   ID    Z sym.   atoms
    1    6 C      1, 3, 5, 7-10, 12, 14, 17, 18, 21, 23, 25
    2    8 O      2, 4, 13, 19, 22, 24
    3    7 N      6, 11, 15, 16, 20
    4    1 H      26-42

      * Solvation model:               ALPB
        Solvent                        DMSO
        Solvent mass                       7.8130E+01 g/mol
          :  Hamiltonian                  GFN1-xTB          :
 * total energy  :   -82.9312829 Eh     change       -0.1497824E-10 Eh
 * total energy  :   -82.9459343 Eh     change       -0.1465132E-01 Eh
 * total energy  :   -82.9525293 Eh     change       -0.6595034E-02 Eh
 * total energy  :   -82.9547455 Eh     change       -0.2216201E-02 Eh
 * total energy  :   -82.9570284 Eh     change       -0.2282897E-02 Eh
 * total energy  :   -82.9586114 Eh     change       -0.1583018E-02 Eh
 * total energy  :   -82.9600926 Eh     change       -0.1481176E-02 Eh
 * total energy  :   -82.9623748 Eh     change       -0.2282212E-02 Eh
 * total energy  :   -82.9642482 Eh     change       -0.1873399E-02 Eh
 * total energy  :   -82.9641598 Eh     change        0.8836963E-04 Eh
 * total energy  :   -82.9747881 Eh     change       -0.1406227E-04 Eh
 * total energy  :   -82.9747974 Eh     change       -0.9311173E-05 Eh
 * total energy  :   -82.9748104 Eh     change       -0.1298615E-04 Eh
 * total energy  :   -82.9748197 Eh     change       -0.9257581E-05 Eh
 * total energy  :   -82.9748194 Eh     change        0.3057652E-06 Eh
 * total energy  :   -82.9748274 Eh     change       -0.8023360E-05 Eh
 * total energy  :   -82.9748389 Eh     change       -0.1150025E-04 Eh
 * total energy  :   -82.9748459 Eh     change       -0.7001628E-05 Eh
 * total energy  :   -82.9748495 Eh     change       -0.3601734E-05 Eh
   *** GEOMETRY OPTIMIZATION CONVERGED AFTER 44 ITERATIONS ***

 final structure:
================
42
 xtb: 6.5.1 (579679a)
C            5.63819104254860       -1.63312586587533        0.17659889454331
O            4.25480502239791       -1.25515664642394        0.12717905676811
C            3.94212052038718       -0.01477785629027       -0.05930826641824
O            4.92118827247445        0.82824147911118       -0.19773055387784
C            2.55737740308553        0.34391364125133       -0.09895983205157
N            1.68280711281460       -0.69056839765471        0.07365887145233
C            0.40164327747666       -0.38780362884224        0.03775111950310
C           -0.54986771708299       -1.55528003590781        0.25253872350730
C           -0.33936574420558       -2.10191992854220        1.67226734440338
C           -0.26845584662228       -2.63885525676460       -0.79755414198658
N           -1.91054731258265       -1.05014208590936        0.10131605526559
C           -3.01165310692662       -1.80162533134462        0.22117207254853
O           -3.03589426929286       -2.99681630801484        0.48579513023114
C           -4.26660068267751       -1.03313079903921       -0.00867606234168
N           -5.48483197754907       -1.47241988363778        0.06511036380389
N           -6.30169953748991       -0.42156599234494       -0.23676821109096
C           -5.53050212042912        0.59226089536296       -0.47722716025385
C           -5.93246475051144        1.96352440760204       -0.86012253106067
O           -4.23209330047212        0.27331964282331       -0.34939426046723
N           -0.12560060237277        0.81331043882254       -0.15165576959850
C            0.65657494725037        1.90842553902972       -0.32889123439556
O            0.18336732713732        3.03576557929669       -0.50137362197326
C            2.11253731501701        1.65042354140005       -0.29491246309284
O            3.04221054338221        2.61100989279805       -0.44426037719701
C            2.69127442736852        3.99157130632377       -0.63383938250992
H            6.11679278398567       -1.40070722410128       -0.77568114330033
H            6.13879097286299       -1.09220848211989        0.98073059829698
H            5.65234248057392       -2.70452246983068        0.36402172594209
H           -0.58243465522062       -1.33498311243340        2.40671991703890
H           -0.96811100063557       -2.97445099366103        1.84308572862640
H            0.70578231084925       -2.38436512695198        1.78956061269433
H            0.78529921560882       -2.90983858589483       -0.75236481664019
H           -0.49353421283355       -2.25865137193319       -1.79318206309030
H           -0.87484138898952       -3.52302137967398       -0.60677950556835
H           -1.98380106452345       -0.05999833064534       -0.11243918820672
H           -5.56820401559461        2.19154742829629       -1.86200669003677
H           -5.49825233953156        2.68679552189988       -0.17074064886628
H           -7.01651500129721        2.04460671181664       -0.84204760277826
H            4.61520524602655        1.75430289206593       -0.33569828143463
H            3.63860410863994        4.52379662839402       -0.70986292375473
H            2.11654163791162        4.11977712967118       -1.55277346310451
H            2.12181367904465        4.36334141787244        0.21982398047666

          :  Hamiltonian                  GFN1-xTB          :
         :: total energy             -82.974849508505 Eh    ::
         :: gradient norm              0.000716370835 Eh/a0 ::
         :: HOMO-LUMO gap              1.516151982855 eV    ::
         :: SCC energy               -83.742268239932 Eh    ::
         :: -> Gsolv                  -0.062851093967 Eh    ::
         :: repulsion energy           0.792342900306 Eh    ::

    * Orbital Energies and Occupations

         #    Occupation            Energy/Eh            Energy/eV
      -------------------------------------------------------------
         1        2.0000           -0.8840250             -24.0555
       ...           ...                  ...                  ...
        55        2.0000           -0.4984572             -13.5637
        56        2.0000           -0.4900686             -13.3354
        57        2.0000           -0.4897320             -13.3263
        58        2.0000           -0.4745142             -12.9122
        59        2.0000           -0.4640051             -12.6262
        60        2.0000           -0.4584235             -12.4743
        61        2.0000           -0.4567231             -12.4281
        62        2.0000           -0.4525893             -12.3156
        63        2.0000           -0.4452804             -12.1167
        64        2.0000           -0.4359080             -11.8617
        65        2.0000           -0.4304403             -11.7129
        66        2.0000           -0.4038798             -10.9901
        67        2.0000           -0.4031038             -10.9690 (HOMO)
        68                         -0.3473862              -9.4529 (LUMO)
        69                         -0.3018441              -8.2136
        70                         -0.2594816              -7.0609
        71                         -0.2524429              -6.8693
        72                         -0.2371267              -6.4525
        73                         -0.1901302              -5.1737
        74                         -0.1544128              -4.2018
        75                         -0.1450653              -3.9474
        76                         -0.1404154              -3.8209
        77                         -0.1284064              -3.4941
        78                         -0.1147370              -3.1222
       ...                                ...                  ...
       134                          0.7282269              19.8161
      -------------------------------------------------------------
                  HL-Gap            0.0557176 Eh            1.5162 eV

Wiberg/Mayer (AO) data.
largest (>0.10) Wiberg bond orders for each atom

     #   Z sym  total        # sym  WBO       # sym  WBO       # sym  WBO
 ---------------------------------------------------------------------------
     1   6 C    3.841 --    28 H    0.984    27 H    0.975    26 H    0.975
                             2 O    0.869
     2   8 O    2.291 --     3 C    1.239     1 C    0.869
     3   6 C    3.806 --     2 O    1.239     4 O    1.220     5 C    1.168
     4   8 O    2.170 --     3 C    1.220    39 H    0.748
     5   6 C    3.957 --    23 C    1.361     6 N    1.194     3 C    1.168
     6   7 N    2.990 --     7 C    1.447     5 C    1.194
     7   6 C    3.951 --     6 N    1.447    20 N    1.375     8 C    0.976
     8   6 C    3.935 --    10 C    0.983     9 C    0.980     7 C    0.976
                            11 N    0.929
     9   6 C    3.991 --    29 H    0.986    31 H    0.985    30 H    0.982
                             8 C    0.980
    10   6 C    3.991 --    33 H    0.986    32 H    0.984     8 C    0.983
                            34 H    0.982
    11   7 N    3.380 --    12 C    1.294     8 C    0.929    35 H    0.873
                            13 O    0.184
    12   6 C    3.922 --    13 O    1.561    11 N    1.294    14 C    0.986
    13   8 O    1.881 --    12 C    1.561    11 N    0.184
    14   6 C    3.869 --    15 N    1.626    19 O    1.049    12 C    0.986
    15   7 N    2.996 --    14 C    1.626    16 N    1.193
    16   7 N    2.980 --    17 C    1.615    15 N    1.193
    17   6 C    3.871 --    16 N    1.615    19 O    1.073    18 C    1.031
    18   6 C    3.987 --    17 C    1.031    38 H    0.983    37 H    0.966
                            36 H    0.962
    19   8 O    2.317 --    17 C    1.073    14 C    1.049
    20   7 N    3.025 --     7 C    1.375    21 C    1.231    22 O    0.131
    21   6 C    3.930 --    22 O    1.519    20 N    1.231    23 C    1.049
    22   8 O    1.855 --    21 C    1.519    20 N    0.131
    23   6 C    3.883 --     5 C    1.361    24 O    1.087    21 C    1.049
    24   8 O    2.222 --    23 C    1.087    25 C    0.874
    25   6 C    3.852 --    40 H    0.985    42 H    0.977    41 H    0.977
                            24 O    0.874
    26   1 H    1.000 --     1 C    0.975
    27   1 H    1.000 --     1 C    0.975
    28   1 H    1.005 --     1 C    0.984
    29   1 H    1.004 --     9 C    0.986
    30   1 H    1.011 --     9 C    0.982
    31   1 H    1.011 --     9 C    0.985
    32   1 H    1.013 --    10 C    0.984
    33   1 H    1.004 --    10 C    0.986
    34   1 H    1.011 --    10 C    0.982
    35   1 H    0.964 --    11 N    0.873
    36   1 H    0.997 --    18 C    0.962
    37   1 H    0.997 --    18 C    0.966
    38   1 H    0.999 --    18 C    0.983
    39   1 H    0.821 --     4 O    0.748
    40   1 H    1.010 --    25 C    0.985
    41   1 H    1.017 --    25 C    0.977
    42   1 H    1.016 --    25 C    0.977
 ---------------------------------------------------------------------------

           -------------------------------------------------
          | TOTAL ENERGY              -82.974849508505 Eh   |
          | GRADIENT NORM               0.000716370835 Eh/α |
          | HOMO-LUMO GAP               1.516151982855 eV   |
           -------------------------------------------------

 * finished run on 2023/06/20 at 18:10:37.588
