   * xtb version 6.5.1 (579679a) compiled by 'ehlert@majestix' on 2022-07-11
          program call               : /lustre/hpc/kemi/ree/PhD/git/ReactivityQM/dep/xtb-6.5.1/bin/xtb --gfn 1 /lustre/hpc/kemi/ree/PhD/git/ReactivityQM/calculations/R02oxygendeprot/reac01prodE09/conf13/R02oxygendeprot_reac01prodE09_conf13_gfn1.xyz --opt --vfukui --chrg -2 --uhf 0 --alpb DMSO

   ID    Z sym.   atoms
    1    6 C      1, 3, 5, 7-10, 12, 14, 16, 17, 20, 22, 24
    2    8 O      2, 4, 13, 15, 23, 25
    3    7 N      6, 11, 18, 19, 21
    4    1 H      26-42

      * Solvation model:               ALPB
        Solvent                        DMSO
        Solvent mass                       7.8130E+01 g/mol
          :  Hamiltonian                  GFN1-xTB          :
 * total energy  :   -83.5958868 Eh     change       -0.3351630E-09 Eh
 * total energy  :   -83.6109036 Eh     change       -0.1501682E-01 Eh
 * total energy  :   -83.6162940 Eh     change       -0.5390422E-02 Eh
 * total energy  :   -83.6174551 Eh     change       -0.1161098E-02 Eh
 * total energy  :   -83.6189254 Eh     change       -0.1470235E-02 Eh
 * total energy  :   -83.6210394 Eh     change       -0.2114067E-02 Eh
 * total energy  :   -83.6227488 Eh     change       -0.1709318E-02 Eh
 * total energy  :   -83.6248857 Eh     change       -0.2136924E-02 Eh
 * total energy  :   -83.6268669 Eh     change       -0.1981212E-02 Eh
 * total energy  :   -83.6281843 Eh     change       -0.1317382E-02 Eh
 * total energy  :   -83.6350421 Eh     change       -0.7757770E-05 Eh
 * total energy  :   -83.6350522 Eh     change       -0.1006273E-04 Eh
 * total energy  :   -83.6350615 Eh     change       -0.9335817E-05 Eh
 * total energy  :   -83.6350688 Eh     change       -0.7333282E-05 Eh
 * total energy  :   -83.6350757 Eh     change       -0.6870403E-05 Eh
 * total energy  :   -83.6350823 Eh     change       -0.6622516E-05 Eh
 * total energy  :   -83.6350883 Eh     change       -0.5942112E-05 Eh
 * total energy  :   -83.6350936 Eh     change       -0.5360316E-05 Eh
 * total energy  :   -83.6350980 Eh     change       -0.4360296E-05 Eh
   *** GEOMETRY OPTIMIZATION CONVERGED AFTER 58 ITERATIONS ***

 final structure:
================
42
 xtb: 6.5.1 (579679a)
C            6.99370967417822       -0.99887740003025        0.18684470688886
O            5.85385551238444       -0.25907340114061        0.59255666431399
C            4.72354192137254       -0.46858287078217       -0.13815864597781
O            4.73297667528321       -1.26691246174203       -1.07097109738703
C            3.57330240186678        0.31382529614002        0.27711740413580
N            2.45398710680144        0.07305495480944       -0.50441756750552
C            1.35406783747464        0.69033940686849       -0.27739555244070
C            0.14365607423856        0.50459242195677       -1.17700741397020
C            0.22207786557971        1.61039507688637       -2.24632263636437
C            0.20478934577229       -0.88759445639417       -1.82759552931482
N           -1.04857685142038        0.68001354170837       -0.34708117825372
C           -2.33765972526832        0.38584967575040       -0.96645334190789
O           -2.50082766647181        0.53573381487204       -2.21624371988019
C           -3.34483910208665        0.17074702967984       -0.06213821457045
O           -3.10767788183674       -0.18614248651235        1.30387678493177
C           -4.18841343238205       -0.88784606421544        1.66000314618080
C           -4.25687717233770       -1.43013510155360        3.04702553355380
N           -5.10329642278373       -1.04637058159155        0.78153837123941
N           -4.65687291333250       -0.37933343006535       -0.41735525062737
C           -5.63884774668045        0.67361617097551       -0.72432722781400
N            1.24375289862464        1.62505989857076        0.73152210843299
C            2.26180458624779        1.96223490653490        1.57661405933411
O            2.07925633236660        2.80814695415661        2.45451037533334
C            3.57407707572619        1.24592602900580        1.34653364790821
O            4.53962696621814        1.51847136716185        2.08971416281233
H            7.80249838269062       -0.74399152400552        0.87070810086699
H            6.79831803566564       -2.07531607440115        0.23266869928989
H            7.28247085087017       -0.73892190981186       -0.83702794508424
H            1.18731876507679        1.56435170780070       -2.75141892704467
H            0.11782686630854        2.58595774923898       -1.77171622897472
H           -0.56894213570227        1.49328431201689       -2.98478773790268
H            1.16470667492197       -1.01578988966547       -2.32859180231112
H            0.10394053291244       -1.66016394829214       -1.06492711843741
H           -0.59589960903110       -1.00007001833454       -2.55723919912818
H           -0.96396140673817        0.12686618318308        0.50280247475327
H           -3.47430349376129       -2.17260448835594        3.20298305699255
H           -5.22706970501158       -1.89221785769057        3.21227006940398
H           -4.11011973005435       -0.62662920858132        3.76774405541933
H           -5.72427145199543        1.39758797606656        0.09272976360246
H           -6.60760628608303        0.20655620207755       -0.89864390318704
H           -5.30716274457284        1.17982375748271       -1.63049456807597
H            0.35166609495903        2.07987274022585        0.87055162077365

          :  Hamiltonian                  GFN1-xTB          :
         :: total energy             -83.635097994588 Eh    ::
         :: gradient norm              0.000315897619 Eh/a0 ::
         :: HOMO-LUMO gap              0.803434737843 eV    ::
         :: SCC energy               -84.376468600892 Eh    ::
         :: -> Gsolv                  -0.259790061170 Eh    ::
         :: repulsion energy           0.766649453466 Eh    ::

    * Orbital Energies and Occupations

         #    Occupation            Energy/Eh            Energy/eV
      -------------------------------------------------------------
         1        2.0000           -0.7903653             -21.5069
       ...           ...                  ...                  ...
        56        2.0000           -0.4477216             -12.1831
        57        2.0000           -0.4421137             -12.0305
        58        2.0000           -0.4272089             -11.6249
        59        2.0000           -0.4241424             -11.5415
        60        2.0000           -0.4173444             -11.3565
        61        2.0000           -0.4097934             -11.1510
        62        2.0000           -0.4000096             -10.8848
        63        2.0000           -0.3809790             -10.3670
        64        2.0000           -0.3796937             -10.3320
        65        2.0000           -0.3667649              -9.9802
        66        2.0000           -0.3597987              -9.7906
        67        2.0000           -0.3521939              -9.5837
        68        2.0000           -0.2886593              -7.8548 (HOMO)
        69        0.0000           -0.2591336              -7.0514 (LUMO)
        70                         -0.2205494              -6.0015
        71                         -0.2043871              -5.5617
        72                         -0.1861789              -5.0662
        73                         -0.1348746              -3.6701
        74                         -0.1197444              -3.2584
        75                         -0.1180230              -3.2116
        76                         -0.0972650              -2.6467
        77                         -0.0920505              -2.5048
        78                         -0.0896319              -2.4390
        79                         -0.0886232              -2.4116
       ...                                ...                  ...
       134                          0.7584017              20.6372
      -------------------------------------------------------------
                  HL-Gap            0.0295257 Eh            0.8034 eV

Wiberg/Mayer (AO) data.
largest (>0.10) Wiberg bond orders for each atom

     #   Z sym  total        # sym  WBO       # sym  WBO       # sym  WBO
 ---------------------------------------------------------------------------
     1   6 C    3.903 --    26 H    0.987    28 H    0.980    27 H    0.980
                             2 O    0.930
     2   8 O    2.153 --     3 C    1.036     1 C    0.930     4 O    0.106
     3   6 C    3.848 --     4 O    1.566     5 C    1.127     2 O    1.036
     4   8 O    1.844 --     3 C    1.566     2 O    0.106
     5   6 C    3.919 --    24 C    1.279     6 N    1.144     3 C    1.127
                            25 O    0.130
     6   7 N    3.024 --     7 C    1.635     5 C    1.144
     7   6 C    3.925 --     6 N    1.635    21 N    1.095     8 C    0.976
     8   6 C    3.966 --    10 C    0.988     9 C    0.979     7 C    0.976
                            11 N    0.969
     9   6 C    3.993 --    29 H    0.989    30 H    0.987     8 C    0.979
                            31 H    0.977
    10   6 C    3.996 --     8 C    0.988    33 H    0.987    32 H    0.985
                            34 H    0.983
    11   7 N    3.080 --     8 C    0.969    12 C    0.950    35 H    0.937
    12   6 C    3.925 --    14 C    1.499    13 O    1.351    11 N    0.950
    13   8 O    1.714 --    12 C    1.351    14 C    0.169
    14   6 C    3.636 --    12 C    1.499    19 N    0.948    15 O    0.869
                            13 O    0.169
    15   8 O    2.187 --    16 C    1.089    14 C    0.869    18 N    0.134
    16   6 C    3.907 --    18 N    1.710    15 O    1.089    17 C    1.014
    17   6 C    3.995 --    16 C    1.014    37 H    0.987    38 H    0.974
                            36 H    0.972
    18   7 N    2.947 --    16 C    1.710    19 N    0.985    15 O    0.134
    19   7 N    3.060 --    18 N    0.985    20 C    0.970    14 C    0.948
    20   6 C    3.982 --    40 H    0.989    41 H    0.987    39 H    0.983
                            19 N    0.970
    21   7 N    3.438 --    22 C    1.179     7 C    1.095    42 H    0.893
                            23 O    0.136
    22   6 C    3.883 --    23 O    1.559    21 N    1.179    24 C    0.972
    23   8 O    1.840 --    22 C    1.559    21 N    0.136
    24   6 C    3.944 --    25 O    1.504     5 C    1.279    22 C    0.972
    25   8 O    1.810 --    24 C    1.504     5 C    0.130
    26   1 H    1.016 --     1 C    0.987
    27   1 H    1.016 --     1 C    0.980
    28   1 H    1.015 --     1 C    0.980
    29   1 H    1.009 --     9 C    0.989
    30   1 H    1.012 --     9 C    0.987
    31   1 H    1.031 --     9 C    0.977
    32   1 H    1.020 --    10 C    0.985
    33   1 H    1.009 --    10 C    0.987
    34   1 H    1.022 --    10 C    0.983
    35   1 H    0.978 --    11 N    0.937
    36   1 H    1.004 --    17 C    0.972
    37   1 H    1.006 --    17 C    0.987
    38   1 H    1.003 --    17 C    0.974
    39   1 H    1.022 --    20 C    0.983
    40   1 H    1.026 --    20 C    0.989
    41   1 H    1.031 --    20 C    0.987
    42   1 H    0.962 --    21 N    0.893
 ---------------------------------------------------------------------------

           -------------------------------------------------
          | TOTAL ENERGY              -83.635097994588 Eh   |
          | GRADIENT NORM               0.000315897619 Eh/α |
          | HOMO-LUMO GAP               0.803434737843 eV   |
           -------------------------------------------------

 * finished run on 2023/06/21 at 17:10:45.563
