                         Program Version 5.0.1 -  RELEASE  -
|  1> # ORCA input file
|  2> ! SP r2SCAN-3c CPCM
|  3>
|  4> %maxcore 1875.0
|  5> %pal nprocs 4 end
|  6> %cpcm smd true SMDsolvent "DMSO" end
|  7>
|  8> *xyz -1 1
|  9> C       4.788872    0.038142   -1.170637
| 10> O       3.669176   -0.521315   -0.513923
| 11> C       2.513411    0.299024   -0.522821
| 12> O       2.576917    1.406471   -1.114117
| 13> C       1.451787   -0.266263    0.158641
| 14> C       1.439838   -1.583018    0.831649
| 15> O       2.551526   -1.937381    1.636310
| 16> C       0.309792   -2.323921    0.845211
| 17> O      -0.065183   -3.394872    1.390109
| 18> N      -0.775667   -1.642216    0.015212
| 19> C      -0.923577   -0.304970    0.136125
| 20> C      -2.333336    0.286473    0.127498
| 21> C      -2.572468    1.017556   -1.201847
| 22> C      -3.412926   -0.796092    0.288615
| 23> N      -2.471148    1.241259    1.231938
| 24> N       0.182332    0.408067    0.165801
| 25> C       0.219487    1.867657    0.221797
| 26> H       5.601243   -0.687584   -1.106726
| 27> H       4.572003    0.242466   -2.227031
| 28> H       5.104466    0.975518   -0.695200
| 29> H       3.358592   -1.784777    1.121435
| 30> H      -1.625972   -2.183187    0.065095
| 31> H      -3.601822    1.369901   -1.244822
| 32> H      -2.401766    0.337172   -2.035790
| 33> H      -1.911686    1.875732   -1.306420
| 34> H      -3.241582   -1.388990    1.186010
| 35> H      -3.452219   -1.451932   -0.579925
| 36> H      -4.380151   -0.306331    0.386097
| 37> H      -2.565473    0.736967    2.104081
| 38> H      -3.323438    1.764411    1.098066
| 39> H       1.098262    2.177410    0.786997
| 40> H       0.292738    2.275411   -0.787837
| 41> H      -0.672031    2.253210    0.710409
| 42> **                         ****END OF INPUT****

CARTESIAN COORDINATES (ANGSTROEM)
---------------------------------
  C      4.788872    0.038142   -1.170637
  O      3.669176   -0.521315   -0.513923
  C      2.513411    0.299024   -0.522821
  O      2.576917    1.406471   -1.114117
  C      1.451787   -0.266263    0.158641
  C      1.439838   -1.583018    0.831649
  O      2.551526   -1.937381    1.636310
  C      0.309792   -2.323921    0.845211
  O     -0.065183   -3.394872    1.390109
  N     -0.775667   -1.642216    0.015212
  C     -0.923577   -0.304970    0.136125
  C     -2.333336    0.286473    0.127498
  C     -2.572468    1.017556   -1.201847
  C     -3.412926   -0.796092    0.288615
  N     -2.471148    1.241259    1.231938
  N      0.182332    0.408067    0.165801
  C      0.219487    1.867657    0.221797
  H      5.601243   -0.687584   -1.106726
  H      4.572003    0.242466   -2.227031
  H      5.104466    0.975518   -0.695200
  H      3.358592   -1.784777    1.121435
  H     -1.625972   -2.183187    0.065095
  H     -3.601822    1.369901   -1.244822
  H     -2.401766    0.337172   -2.035790
  H     -1.911686    1.875732   -1.306420
  H     -3.241582   -1.388990    1.186010
  H     -3.452219   -1.451932   -0.579925
  H     -4.380151   -0.306331    0.386097
  H     -2.565473    0.736967    2.104081
  H     -3.323438    1.764411    1.098066
  H      1.098262    2.177410    0.786997
  H      0.292738    2.275411   -0.787837
  H     -0.672031    2.253210    0.710409

 Total Charge           Charge          ....   -1
 Multiplicity           Mult            ....    1
 Number of Electrons    NEL             ....  130
 Basis Dimension        Dim             ....  438

ORBITAL ENERGIES
----------------

  NO   OCC          E(Eh)            E(eV)
   0   2.0000     -18.946881      -515.5708
   1   2.0000     -18.920748      -514.8597
   2   2.0000     -18.864398      -513.3264
   3   2.0000     -18.856825      -513.1203
   4   2.0000     -14.209345      -386.6559
   5   2.0000     -14.163173      -385.3995
   6   2.0000     -14.132236      -384.5577
   7   2.0000     -10.104946      -274.9696
   8   2.0000     -10.086709      -274.4733
   9   2.0000     -10.083299      -274.3805
  10   2.0000     -10.058350      -273.7016
  11   2.0000     -10.053142      -273.5599
  12   2.0000     -10.033153      -273.0160
  13   2.0000     -10.016644      -272.5667
  14   2.0000     -10.015906      -272.5467
  15   2.0000     -10.015208      -272.5277
  16   2.0000     -10.010261      -272.3931
  17   2.0000      -1.001533       -27.2531
  18   2.0000      -0.963172       -26.2093
  19   2.0000      -0.946146       -25.7460
  20   2.0000      -0.917585       -24.9688
  21   2.0000      -0.904387       -24.6096
  22   2.0000      -0.861638       -23.4464
  23   2.0000      -0.844766       -22.9872
  24   2.0000      -0.728053       -19.8113
  25   2.0000      -0.703332       -19.1386
  26   2.0000      -0.670481       -18.2447
  27   2.0000      -0.655384       -17.8339
  28   2.0000      -0.652671       -17.7601
  29   2.0000      -0.612989       -16.6803
  30   2.0000      -0.582904       -15.8616
  31   2.0000      -0.522838       -14.2271
  32   2.0000      -0.510387       -13.8883
  33   2.0000      -0.492183       -13.3930
  34   2.0000      -0.463837       -12.6216
  35   2.0000      -0.460073       -12.5192
  36   2.0000      -0.448098       -12.1934
  37   2.0000      -0.430605       -11.7174
  38   2.0000      -0.415231       -11.2990
  39   2.0000      -0.411389       -11.1945
  40   2.0000      -0.405373       -11.0307
  41   2.0000      -0.401290       -10.9197
  42   2.0000      -0.385785       -10.4977
  43   2.0000      -0.380270       -10.3477
  44   2.0000      -0.373212       -10.1556
  45   2.0000      -0.356970        -9.7136
  46   2.0000      -0.355324        -9.6689
  47   2.0000      -0.345794        -9.4095
  48   2.0000      -0.343955        -9.3595
  49   2.0000      -0.338073        -9.1994
  50   2.0000      -0.335232        -9.1221
  51   2.0000      -0.322960        -8.7882
  52   2.0000      -0.316803        -8.6207
  53   2.0000      -0.309602        -8.4247
  54   2.0000      -0.307124        -8.3573
  55   2.0000      -0.286523        -7.7967
  56   2.0000      -0.276091        -7.5128
  57   2.0000      -0.246264        -6.7012
  58   2.0000      -0.228004        -6.2043
  59   2.0000      -0.222303        -6.0492
  60   2.0000      -0.208438        -5.6719
  61   2.0000      -0.191109        -5.2004
  62   2.0000      -0.179406        -4.8819
  63   2.0000      -0.154737        -4.2106
  64   2.0000      -0.087009        -2.3676
  65   0.0000      -0.025569        -0.6958
  66   0.0000       0.058428         1.5899
  67   0.0000       0.066493         1.8094
  68   0.0000       0.079370         2.1598
  69   0.0000       0.095636         2.6024

MULLIKEN ATOMIC CHARGES
-----------------------
   0 C :   -0.355664
   1 O :   -0.212244
   2 C :    0.243957
   3 O :   -0.513746
   4 C :   -0.276956
   5 C :   -0.219286
   6 O :   -0.416581
   7 C :   -0.159802
   8 O :   -0.475528
   9 N :   -0.218508
  10 C :    0.069092
  11 C :    0.262878
  12 C :   -0.532107
  13 C :   -0.624397
  14 N :   -0.701099
  15 N :    0.295588
  16 C :   -0.504839
  17 H :    0.153016
  18 H :    0.153543
  19 H :    0.151972
  20 H :    0.312563
  21 H :    0.309899
  22 H :    0.178739
  23 H :    0.188454
  24 H :    0.181213
  25 H :    0.183124
  26 H :    0.183054
  27 H :    0.184037
  28 H :    0.287550
  29 H :    0.293236
  30 H :    0.170904
  31 H :    0.198240
  32 H :    0.209700
Sum of atomic charges:   -1.0000000

LOEWDIN ATOMIC CHARGES
----------------------
   0 C :   -0.070718
   1 O :   -0.700031
   2 C :    0.333831
   3 O :   -0.614170
   4 C :    0.079300
   5 C :    0.103383
   6 O :   -0.572324
   7 C :    0.268951
   8 O :   -0.627610
   9 N :   -0.574803
  10 C :    0.375012
  11 C :    0.063397
  12 C :   -0.354139
  13 C :   -0.374736
  14 N :   -0.709298
  15 N :   -0.705077
  16 C :   -0.102932
  17 H :    0.170733
  18 H :    0.165851
  19 H :    0.164815
  20 H :    0.280172
  21 H :    0.286429
  22 H :    0.168343
  23 H :    0.171833
  24 H :    0.171921
  25 H :    0.169232
  26 H :    0.164911
  27 H :    0.172442
  28 H :    0.253361
  29 H :    0.253794
  30 H :    0.194359
  31 H :    0.189917
  32 H :    0.203851

  Mayer bond orders larger than 0.100000
B(  0-C ,  1-O ) :   0.8634 B(  0-C , 17-H ) :   0.9697 B(  0-C , 18-H ) :   0.9683
B(  0-C , 19-H ) :   0.9653 B(  1-O ,  2-C ) :   0.9688 B(  2-C ,  3-O ) :   1.6683
B(  2-C ,  4-C ) :   1.4025 B(  4-C ,  5-C ) :   0.8075 B(  4-C , 15-N ) :   0.9913
B(  5-C ,  6-O ) :   1.0183 B(  5-C ,  7-C ) :   1.4405 B(  6-O , 20-H ) :   0.8440
B(  7-C ,  8-O ) :   2.0427 B(  7-C ,  9-N ) :   0.7611 B(  9-N , 10-C ) :   1.3117
B(  9-N , 15-N ) :   0.1081 B(  9-N , 21-H ) :   0.8716 B( 10-C , 11-C ) :   0.8791
B( 10-C , 15-N ) :   1.5787 B( 11-C , 12-C ) :   0.9365 B( 11-C , 13-C ) :   0.9224
B( 11-C , 14-N ) :   0.7760 B( 12-C , 22-H ) :   0.9630 B( 12-C , 23-H ) :   0.9712
B( 12-C , 24-H ) :   0.9506 B( 13-C , 25-H ) :   0.9700 B( 13-C , 26-H ) :   0.9776
B( 13-C , 27-H ) :   0.9560 B( 14-N , 28-H ) :   0.9085 B( 14-N , 29-H ) :   0.9086
B( 15-N , 16-C ) :   0.8379 B( 16-C , 30-H ) :   0.9429 B( 16-C , 31-H ) :   0.9464
B( 16-C , 32-H ) :   0.9253

Dispersion correction           -0.014172268
FINAL SINGLE POINT ENERGY      -855.769632420737

DIPOLE MOMENT
-------------
                                X             Y             Z
Electronic contribution:      9.06425      -7.93145       3.57850
Nuclear contribution   :    -13.28090      11.11163      -4.59444
                        -----------------------------------------
Total Dipole Moment    :     -4.21665       3.18018      -1.01593
                        -----------------------------------------
Magnitude (a.u.)       :      5.37827
Magnitude (Debye)      :     13.67048

Rotational constants in cm-1:     0.024471     0.011477     0.008646
Rotational constants in MHz :   733.613405   344.058632   259.192242

                             ****ORCA TERMINATED NORMALLY****
TOTAL RUN TIME: 0 days 0 hours 1 minutes 10 seconds 44 msec
