   * xtb version 6.5.1 (579679a) compiled by 'ehlert@majestix' on 2022-07-11
          program call               : /lustre/hpc/kemi/ree/PhD/git/ReactivityQM/dep/xtb-6.5.1/bin/xtb --gfn 1 /lustre/hpc/kemi/ree/PhD/git/ReactivityQM/calculations/R01/reac02prodE04/conf19/R01_reac02prodE04_conf19_gfn1.xyz --opt --vfukui --chrg -1 --uhf 0 --alpb DMSO

   ID    Z sym.   atoms
    1    6 C      1, 3, 5, 6, 8, 11-14, 17
    2    8 O      2, 4, 7, 9
    3    7 N      10, 15, 16
    4    1 H      18-33

      * Solvation model:               ALPB
        Solvent                        DMSO
        Solvent mass                       7.8130E+01 g/mol
          :  Hamiltonian                  GFN1-xTB          :
 * total energy  :   -58.4743059 Eh     change       -0.1126921E-10 Eh
 * total energy  :   -58.4890332 Eh     change       -0.1472721E-01 Eh
 * total energy  :   -58.4982800 Eh     change       -0.9246873E-02 Eh
 * total energy  :   -58.5000185 Eh     change       -0.1738443E-02 Eh
 * total energy  :   -58.5018366 Eh     change       -0.1818170E-02 Eh
 * total energy  :   -58.5026712 Eh     change       -0.8345889E-03 Eh
 * total energy  :   -58.5039594 Eh     change       -0.1288136E-02 Eh
 * total energy  :   -58.5050592 Eh     change       -0.1099874E-02 Eh
 * total energy  :   -58.5061238 Eh     change       -0.1064557E-02 Eh
 * total energy  :   -58.5069684 Eh     change       -0.8446418E-03 Eh
 * total energy  :   -58.5098066 Eh     change       -0.5677134E-04 Eh
 * total energy  :   -58.5098513 Eh     change       -0.4468391E-04 Eh
 * total energy  :   -58.5098754 Eh     change       -0.2410282E-04 Eh
 * total energy  :   -58.5098998 Eh     change       -0.2441023E-04 Eh
 * total energy  :   -58.5099213 Eh     change       -0.2144213E-04 Eh
 * total energy  :   -58.5099417 Eh     change       -0.2042145E-04 Eh
 * total energy  :   -58.5099507 Eh     change       -0.9018125E-05 Eh
 * total energy  :   -58.5099682 Eh     change       -0.1749984E-04 Eh
 * total energy  :   -58.5099729 Eh     change       -0.4670808E-05 Eh
   *** GEOMETRY OPTIMIZATION CONVERGED AFTER 26 ITERATIONS ***

 final structure:
================
33
 xtb: 6.5.1 (579679a)
C            4.78887229196686        0.03814164587573       -1.17063707131236
O            3.66917615234839       -0.52131470873200       -0.51392303067322
C            2.51341051656501        0.29902439794464       -0.52282059907806
O            2.57691702589853        1.40647071722425       -1.11411685896309
C            1.45178681408399       -0.26626256168648        0.15864113901199
C            1.43983829464893       -1.58301842414394        0.83164931392622
O            2.55152561100625       -1.93738082823883        1.63630998103019
C            0.30979246720828       -2.32392111501018        0.84521101665575
O           -0.06518344397542       -3.39487168600043        1.39010907618468
N           -0.77566696280643       -1.64221570566098        0.01521174976905
C           -0.92357691241841       -0.30496982947575        0.13612534185460
C           -2.33333633217455        0.28647298401950        0.12749841328625
C           -2.57246802651219        1.01755568791601       -1.20184718798505
C           -3.41292553294141       -0.79609157099796        0.28861483129325
N           -2.47114813659373        1.24125916654032        1.23193782330574
N            0.18233162509029        0.40806680209049        0.16580060319559
C            0.21948731646425        1.86765661525489        0.22179748374757
H            5.60124344156563       -0.68758436792284       -1.10672571365375
H            4.57200324052162        0.24246573855312       -2.22703074204888
H            5.10446622676034        0.97551778942578       -0.69519959938846
H            3.35859238951567       -1.78477699848803        1.12143468765162
H           -1.62597161423962       -2.18318718846213        0.06509468276481
H           -3.60182180051009        1.36990096390653       -1.24482174813509
H           -2.40176595669751        0.33717185026458       -2.03578950704933
H           -1.91168564389187        1.87573183176495       -1.30642018257614
H           -3.24158191984311       -1.38898970577274        1.18600966765332
H           -3.45221943300956       -1.45193195762021       -0.57992531620073
H           -4.38015065429638       -0.30633127254893        0.38609671995072
H           -2.56547324321034        0.73696650765286        2.10408094770738
H           -3.32343844039165        1.76441070681023        1.09806567411219
H            1.09826248306952        2.17741034306564        0.78699744284370
H            0.29273833341179        2.27541081931167       -0.78783733660116
H           -0.67203117661520        2.25321035313887        0.71040929772129

          :  Hamiltonian                  GFN1-xTB          :
         :: total energy             -58.509972895583 Eh    ::
         :: gradient norm              0.000848803829 Eh/a0 ::
         :: HOMO-LUMO gap              1.055624762492 eV    ::
         :: SCC energy               -59.053452634383 Eh    ::
         :: -> Gsolv                  -0.122957839641 Eh    ::
         :: repulsion energy           0.563100730600 Eh    ::

    * Orbital Energies and Occupations

         #    Occupation            Energy/Eh            Energy/eV
      -------------------------------------------------------------
         1        2.0000           -0.7826250             -21.2963
       ...           ...                  ...                  ...
        36        2.0000           -0.4835732             -13.1587
        37        2.0000           -0.4755092             -12.9393
        38        2.0000           -0.4750958             -12.9280
        39        2.0000           -0.4651644             -12.6578
        40        2.0000           -0.4582637             -12.4700
        41        2.0000           -0.4358154             -11.8591
        42        2.0000           -0.4329002             -11.7798
        43        2.0000           -0.4152313             -11.2990
        44        2.0000           -0.4065428             -11.0626
        45        2.0000           -0.3985908             -10.8462
        46        2.0000           -0.3765764             -10.2472
        47        2.0000           -0.3525513              -9.5934
        48        2.0000           -0.2885517              -7.8519 (HOMO)
        49                         -0.2497582              -6.7963 (LUMO)
        50                         -0.1571085              -4.2751
        51                         -0.1217425              -3.3128
        52                         -0.1188018              -3.2328
        53                         -0.1129082              -3.0724
        54                         -0.1083114              -2.9473
        55                         -0.1007974              -2.7428
        56                         -0.0991327              -2.6975
        57                         -0.0730576              -1.9880
        58                         -0.0647387              -1.7616
        59                         -0.0536368              -1.4595
       ...                                ...                  ...
       100                          0.7801381              21.2286
      -------------------------------------------------------------
                  HL-Gap            0.0387935 Eh            1.0556 eV

Wiberg/Mayer (AO) data.
largest (>0.10) Wiberg bond orders for each atom

     #   Z sym  total        # sym  WBO       # sym  WBO       # sym  WBO
 ---------------------------------------------------------------------------
     1   6 C    3.916 --    18 H    0.987    20 H    0.981    19 H    0.981
                             2 O    0.947
     2   8 O    2.071 --     1 C    0.947     3 C    0.914
     3   6 C    3.880 --     5 C    1.422     4 O    1.392     2 O    0.914
     4   8 O    1.751 --     3 C    1.392     5 C    0.140
     5   6 C    3.772 --     3 C    1.422     6 C    1.029    16 N    0.954
                             4 O    0.140
     6   6 C    3.809 --     8 C    1.577     5 C    1.029     7 O    0.938
                             9 O    0.188
     7   8 O    1.899 --     6 C    0.938    21 H    0.863
     8   6 C    3.895 --     6 C    1.577     9 O    1.380    10 N    0.784
     9   8 O    1.723 --     8 C    1.380     6 C    0.188
    10   7 N    3.274 --    11 C    1.253    22 H    0.916     8 C    0.784
                            16 N    0.128
    11   6 C    3.934 --    16 N    1.442    10 N    1.253    12 C    0.971
    12   6 C    3.966 --    14 C    0.994    13 C    0.987    15 N    0.977
                            11 C    0.971
    13   6 C    3.995 --    12 C    0.987    24 H    0.986    23 H    0.984
                            25 H    0.982
    14   6 C    3.995 --    12 C    0.994    28 H    0.982    26 H    0.982
                            27 H    0.982
    15   7 N    2.991 --    12 C    0.977    30 H    0.943    29 H    0.943
    16   7 N    3.555 --    11 C    1.442     5 C    0.954    17 C    0.941
                            10 N    0.128
    17   6 C    3.945 --    31 H    0.983    32 H    0.974    33 H    0.970
                            16 N    0.941
    18   1 H    1.019 --     1 C    0.987
    19   1 H    1.022 --     1 C    0.981
    20   1 H    1.021 --     1 C    0.981
    21   1 H    0.914 --     7 O    0.863
    22   1 H    0.972 --    10 N    0.916
    23   1 H    1.001 --    13 C    0.984
    24   1 H    1.004 --    13 C    0.986
    25   1 H    1.006 --    13 C    0.982
    26   1 H    1.002 --    14 C    0.982
    27   1 H    1.002 --    14 C    0.982
    28   1 H    1.004 --    14 C    0.982
    29   1 H    0.959 --    15 N    0.943
    30   1 H    0.958 --    15 N    0.943
    31   1 H    1.019 --    17 C    0.983
    32   1 H    1.030 --    17 C    0.974
    33   1 H    1.031 --    17 C    0.970
 ---------------------------------------------------------------------------

           -------------------------------------------------
          | TOTAL ENERGY              -58.509972895583 Eh   |
          | GRADIENT NORM               0.000848803829 Eh/α |
          | HOMO-LUMO GAP               1.055624762492 eV   |
           -------------------------------------------------

 * finished run on 2023/06/20 at 14:59:06.442
