   * xtb version 6.5.1 (579679a) compiled by 'ehlert@majestix' on 2022-07-11
          program call               : /lustre/hpc/kemi/ree/PhD/git/ReactivityQM/dep/xtb-6.5.1/bin/xtb --gfn 1 /lustre/hpc/kemi/ree/PhD/git/ReactivityQM/calculations/R02oxygendeprot/reac01prodN13/conf05/R02oxygendeprot_reac01prodN13_conf05_gfn1.xyz --opt --vfukui --chrg 0 --uhf 0 --alpb DMSO

   ID    Z sym.   atoms
    1    6 C      1, 3, 5, 7-10, 12, 14, 17-19, 22, 24
    2    8 O      2, 4, 13, 20, 23, 25
    3    7 N      6, 11, 15, 16, 21
    4    1 H      26-42

      * Solvation model:               ALPB
        Solvent                        DMSO
        Solvent mass                       7.8130E+01 g/mol
          :  Hamiltonian                  GFN1-xTB          :
 * total energy  :   -82.9215009 Eh     change       -0.8668621E-12 Eh
 * total energy  :   -82.9314221 Eh     change       -0.9921178E-02 Eh
 * total energy  :   -82.9353310 Eh     change       -0.3908861E-02 Eh
 * total energy  :   -82.9361214 Eh     change       -0.7904132E-03 Eh
 * total energy  :   -82.9367443 Eh     change       -0.6229528E-03 Eh
 * total energy  :   -82.9371408 Eh     change       -0.3964669E-03 Eh
 * total energy  :   -82.9374708 Eh     change       -0.3299724E-03 Eh
 * total energy  :   -82.9377033 Eh     change       -0.2325895E-03 Eh
 * total energy  :   -82.9378393 Eh     change       -0.1359674E-03 Eh
 * total energy  :   -82.9379204 Eh     change       -0.8109763E-04 Eh
 * total energy  :   -82.9389013 Eh     change       -0.1169125E-04 Eh
 * total energy  :   -82.9389140 Eh     change       -0.1267851E-04 Eh
 * total energy  :   -82.9389248 Eh     change       -0.1083041E-04 Eh
 * total energy  :   -82.9389324 Eh     change       -0.7589664E-05 Eh
 * total energy  :   -82.9389390 Eh     change       -0.6575874E-05 Eh
 * total energy  :   -82.9389460 Eh     change       -0.7059710E-05 Eh
 * total energy  :   -82.9389536 Eh     change       -0.7592361E-05 Eh
 * total energy  :   -82.9389600 Eh     change       -0.6415628E-05 Eh
 * total energy  :   -82.9389618 Eh     change       -0.1809459E-05 Eh
   *** GEOMETRY OPTIMIZATION CONVERGED AFTER 44 ITERATIONS ***

 final structure:
================
42
 xtb: 6.5.1 (579679a)
C            5.85499557741270        2.35849527668838        0.56747164370546
O            4.74737561755321        1.47858946129535        0.36992566022131
C            4.69345301248197        0.40596318996836        1.17521686560513
O            5.52756560833931        0.18826530421095        2.02545702946736
C            3.51333828310151       -0.44541135221768        0.88391662019221
N            2.67367689636340        0.01646645954490       -0.06379515875925
C            1.61364874358547       -0.65915404314260       -0.41161178337701
C            0.70951323622154       -0.09496000282904       -1.49442815439306
C            0.55409931331085       -1.07630128244306       -2.66114119034764
C            1.28407486346150        1.22942453961009       -1.99803497765189
N           -0.59866202982165        0.20894497032438       -0.88839003084325
C           -1.53306795146285       -0.69867149422466       -0.54280861873305
O           -1.43023379105651       -1.91149444149778       -0.63335501622726
C           -2.74650429937342       -0.03924245036751       -0.00093019403304
N           -2.86187406920606        1.28165780860186        0.22308639681273
N           -4.03072486335795        1.51551772894161        0.69632646270260
C           -4.75733586003852        0.27372665105050        0.79101938531984
C           -5.98264145962893        0.30704478549872       -0.12706678039227
C           -5.12575757052797       -0.02542157279062        2.24649495009269
O           -3.82881630667137       -0.70248743489046        0.31734936601893
N            1.29713406663298       -1.84172272525472        0.16650524341944
C            2.03674627804933       -2.43736205775938        1.17393499152276
O            1.67585942363186       -3.49205518537160        1.65767803336719
C            3.28560046495304       -1.68334285086011        1.58718737093253
O            4.00741092192144       -2.14356664151956        2.46735660162716
H            6.79573127651020        1.82149401684395        0.41968059583474
H            5.75639676054118        3.15362736375814       -0.16843198904665
H            5.83233484657156        2.77422055768684        1.57824022178788
H            0.20041493767247       -2.04775932189897       -2.32475076627736
H           -0.15621352271022       -0.67212693467248       -3.37986562074939
H            1.51975181504910       -1.20301908034795       -3.14823639546097
H            2.26292359560617        1.05518536661454       -2.44176753906178
H            1.39875809914731        1.93083606531661       -1.17332480974296
H            0.62323571989466        1.65755399157775       -2.74861002114121
H           -0.82063947617393        1.18422667076143       -0.75400241586712
H           -5.66307920554065        0.51766071335750       -1.14516077717490
H           -6.66150815179809        1.08528451762770        0.21183057309746
H           -6.48135817452676       -0.65861317082200       -0.09432865441316
H           -5.78881197108427        0.75392717484788        2.61328063155806
H           -4.22124872911252       -0.05123495370726        2.85069203047323
H           -5.62656307700670       -0.98928327330092        2.29825538203833
H            0.45100215107865       -2.32488134419963       -0.12086516210465

          :  Hamiltonian                  GFN1-xTB          :
         :: total energy             -82.938961833162 Eh    ::
         :: gradient norm              0.000221676183 Eh/a0 ::
         :: HOMO-LUMO gap              0.058511574041 eV    ::
         :: SCC energy               -83.703809897997 Eh    ::
         :: -> Gsolv                  -0.069109676779 Eh    ::
         :: repulsion energy           0.790483072522 Eh    ::

    * Orbital Energies and Occupations

         #    Occupation            Energy/Eh            Energy/eV
      -------------------------------------------------------------
         1        2.0000           -0.8808636             -23.9695
       ...           ...                  ...                  ...
        55        2.0000           -0.5183063             -14.1038
        56        2.0000           -0.5107882             -13.8993
        57        2.0000           -0.5097115             -13.8700
        58        2.0000           -0.5043132             -13.7231
        59        2.0000           -0.4929051             -13.4126
        60        2.0000           -0.4858225             -13.2199
        61        2.0000           -0.4833627             -13.1530
        62        2.0000           -0.4797722             -13.0553
        63        2.0000           -0.4735788             -12.8867
        64        2.0000           -0.4693349             -12.7713
        65        2.0000           -0.4588112             -12.4849
        66        2.0000           -0.4223128             -11.4917
        67        1.5123           -0.4080430             -11.1034 (HOMO)
        68        0.4877           -0.4058928             -11.0449 (LUMO)
        69                         -0.3256856              -8.8624
        70                         -0.3099618              -8.4345
        71                         -0.2859205              -7.7803
        72                         -0.2350790              -6.3968
        73                         -0.2253359              -6.1317
        74                         -0.1573720              -4.2823
        75                         -0.1437351              -3.9112
        76                         -0.1382459              -3.7619
        77                         -0.1355888              -3.6896
        78                         -0.1351092              -3.6765
       ...                                ...                  ...
       134                          0.7531727              20.4949
      -------------------------------------------------------------
                  HL-Gap            0.0021503 Eh            0.0585 eV

Wiberg/Mayer (AO) data.
largest (>0.10) Wiberg bond orders for each atom

     #   Z sym  total        # sym  WBO       # sym  WBO       # sym  WBO
 ---------------------------------------------------------------------------
     1   6 C    3.876 --    27 H    0.986    28 H    0.979    26 H    0.979
                             2 O    0.903
     2   8 O    2.176 --     3 C    1.090     1 C    0.903     4 O    0.131
     3   6 C    3.841 --     4 O    1.649     2 O    1.090     5 C    1.024
     4   8 O    1.891 --     3 C    1.649     2 O    0.131
     5   6 C    3.715 --     6 N    1.304    24 C    1.156     3 C    1.024
     6   7 N    2.984 --     7 C    1.464     5 C    1.304
     7   6 C    3.794 --     6 N    1.464    21 N    1.212     8 C    0.968
     8   6 C    3.924 --    10 C    1.001     9 C    0.984     7 C    0.968
                            11 N    0.908
     9   6 C    3.981 --     8 C    0.984    31 H    0.983    30 H    0.982
                            29 H    0.978
    10   6 C    3.989 --     8 C    1.001    34 H    0.984    33 H    0.982
                            32 H    0.982
    11   7 N    3.334 --    12 C    1.259     8 C    0.908    35 H    0.888
                            13 O    0.186
    12   6 C    3.910 --    13 O    1.568    11 N    1.259    14 C    0.995
    13   8 O    1.908 --    12 C    1.568    11 N    0.186
    14   6 C    3.642 --    15 N    1.307    20 O    1.191    12 C    0.995
    15   7 N    3.015 --    16 N    1.540    14 C    1.307
    16   7 N    2.685 --    15 N    1.540    17 C    1.021
    17   6 C    3.836 --    16 N    1.021    19 C    0.939    18 C    0.937
                            20 O    0.878
    18   6 C    3.935 --    36 H    0.982    37 H    0.982    38 H    0.980
                            17 C    0.937
    19   6 C    3.937 --    40 H    0.982    39 H    0.982    41 H    0.980
                            17 C    0.939
    20   8 O    2.210 --    14 C    1.191    17 C    0.878
    21   7 N    3.432 --     7 C    1.212    22 C    1.110    42 H    0.855
                            23 O    0.110
    22   6 C    3.840 --    23 O    1.653    21 N    1.110    24 C    0.948
    23   8 O    1.871 --    22 C    1.653    21 N    0.110
    24   6 C    3.865 --    25 O    1.621     5 C    1.156    22 C    0.948
    25   8 O    1.796 --    24 C    1.621
    26   1 H    1.007 --     1 C    0.979
    27   1 H    1.012 --     1 C    0.986
    28   1 H    1.007 --     1 C    0.979
    29   1 H    1.007 --     9 C    0.978
    30   1 H    0.997 --     9 C    0.982
    31   1 H    0.999 --     9 C    0.983
    32   1 H    1.005 --    10 C    0.982
    33   1 H    1.006 --    10 C    0.982
    34   1 H    0.998 --    10 C    0.984
    35   1 H    0.943 --    11 N    0.888
    36   1 H    0.996 --    18 C    0.982
    37   1 H    0.997 --    18 C    0.982
    38   1 H    0.996 --    18 C    0.980
    39   1 H    0.997 --    19 C    0.982
    40   1 H    0.996 --    19 C    0.982
    41   1 H    0.996 --    19 C    0.980
    42   1 H    0.933 --    21 N    0.855
 ---------------------------------------------------------------------------

           -------------------------------------------------
          | TOTAL ENERGY              -82.938961833162 Eh   |
          | GRADIENT NORM               0.000221676183 Eh/α |
          | HOMO-LUMO GAP               0.058511574041 eV   |
           -------------------------------------------------

 * finished run on 2023/06/21 at 17:29:03.451
