   * xtb version 6.5.1 (579679a) compiled by 'ehlert@majestix' on 2022-07-11
          program call               : /lustre/hpc/kemi/ree/PhD/git/ReactivityQM/dep/xtb-6.5.1/bin/xtb --gfn 1 /lustre/hpc/kemi/ree/PhD/git/ReactivityQM/calculations/RaltegravirCLI/reac02prodE06/conf06/RaltegravirCLI_reac02prodE06_conf06_gfn1.xyz --opt --vfukui --chrg -1 --uhf 0 --alpb DMSO

   ID    Z sym.   atoms
    1    6 C      1, 3-6, 9, 10, 13-18, 20-22, 24
    2    7 N      2, 7, 8, 12
    3    8 O      11, 23, 25
    4    9 F      19
    5    1 H      26-47

      * Solvation model:               ALPB
        Solvent                        DMSO
        Solvent mass                       7.8130E+01 g/mol
          :  Hamiltonian                  GFN1-xTB          :
 * total energy  :   -80.1745874 Eh     change       -0.1747935E-11 Eh
 * total energy  :   -80.1813122 Eh     change       -0.6724788E-02 Eh
 * total energy  :   -80.1829930 Eh     change       -0.1680773E-02 Eh
 * total energy  :   -80.1833473 Eh     change       -0.3542969E-03 Eh
 * total energy  :   -80.1837079 Eh     change       -0.3606207E-03 Eh
 * total energy  :   -80.1839439 Eh     change       -0.2359984E-03 Eh
 * total energy  :   -80.1841947 Eh     change       -0.2507893E-03 Eh
 * total energy  :   -80.1844269 Eh     change       -0.2322177E-03 Eh
 * total energy  :   -80.1846988 Eh     change       -0.2719125E-03 Eh
 * total energy  :   -80.1849801 Eh     change       -0.2812864E-03 Eh
 * total energy  :   -80.1881868 Eh     change       -0.8307470E-05 Eh
 * total energy  :   -80.1882072 Eh     change       -0.2041019E-04 Eh
 * total energy  :   -80.1882196 Eh     change       -0.1236313E-04 Eh
 * total energy  :   -80.1882301 Eh     change       -0.1045008E-04 Eh
 * total energy  :   -80.1882532 Eh     change       -0.2314765E-04 Eh
 * total energy  :   -80.1882643 Eh     change       -0.1104167E-04 Eh
 * total energy  :   -80.1882710 Eh     change       -0.6786483E-05 Eh
 * total energy  :   -80.1882761 Eh     change       -0.5046378E-05 Eh
 * total energy  :   -80.1882802 Eh     change       -0.4065964E-05 Eh
   *** GEOMETRY OPTIMIZATION CONVERGED AFTER 101 ITERATIONS ***

 final structure:
================
47
 xtb: 6.5.1 (579679a)
C           -4.29511582981189        1.68516085239555        1.71227267050405
N           -3.05934267295133        1.19078215484121        1.11027776949503
C           -2.96780341741609        0.09064114648970        0.28653477443761
C           -4.19407590960043       -0.72625450710693       -0.11323869507269
C           -3.73798546254129       -1.98761246497866       -0.86590124402458
C           -5.09340082697475        0.10856698554946       -1.03580312974325
N           -4.95899568496956       -1.11585792732134        1.07277337333625
N           -1.84338377777745       -0.28181186129203       -0.22846253794869
C           -0.66557848506764        0.38778803146135        0.00099753462417
C            0.50490674685774       -0.20295859891390       -0.68859411650307
O            0.43407210813220       -1.29546031457832       -1.26898226247292
N            1.64183320190782        0.53401053588456       -0.68880468652927
C            2.87936103855068        0.02959940432181       -1.23476432474672
C            3.85651441179020       -0.57204254852021       -0.13532529716417
C            3.06995936832943       -1.64320149881003        0.65749800325652
C            5.01277318100760       -1.20922403232309       -0.86551315414556
C            6.29094026889266       -0.72818242302666       -0.79866061144793
C            6.58927619475528        0.36371185200431        0.01602889191587
F            7.88761093913810        0.82205858498226        0.07506722104008
C            5.61755159064985        0.97021762783751        0.81456431576959
C            4.32583033340006        0.52729932137461        0.78361727393296
C           -0.70108240116591        1.50020989232755        0.81867610221462
O            0.39684110394923        2.24804303169845        1.13481317494337
C           -1.92582134529288        1.95033844611223        1.40350615031546
O           -1.99140528827696        2.95389134590173        2.13073403642905
H           -4.72267439494395        2.47168658980546        1.08800945934224
H           -4.05501142219564        2.10491434724357        2.69019755030171
H           -5.00756874806588        0.87361286987972        1.83091531877142
H           -4.60817475107862       -2.59087467869898       -1.11828324685420
H           -3.21431573266250       -1.71606544755419       -1.78223400050624
H           -3.06737748189992       -2.57719204675491       -0.24176505321233
H           -5.51284607965280        0.96288232792652       -0.50888156143099
H           -5.91541742951197       -0.50632956902627       -1.39986288579891
H           -4.52085037530886        0.46833998716192       -1.89057254569840
H           -4.45387735276011       -1.82056879539404        1.59422410189025
H           -5.83533390684512       -1.52205258475438        0.77958887755272
H            1.68531958256207        1.39614805963786       -0.17028355833996
H            2.64999435893389       -0.74813324517790       -1.97112834358343
H            3.40468872211027        0.84734647724232       -1.73616807804059
H            2.25492226540605       -1.18369568641612        1.21727534434121
H            2.65658289941386       -2.39566965853052       -0.01556947264183
H            3.74129823872993       -2.13209469875938        1.36343451627500
H            4.78522906384811       -2.07366067811246       -1.48140988926125
H            7.08800276994074       -1.20547111968752       -1.36050261132177
H            5.90534936343092        1.78328185499365        1.47384295162786
H            3.57387985189175        0.98803649220597        1.41653910078414
H            0.09470517315230        2.97584816648330        1.70816879337797

          :  Hamiltonian                  GFN1-xTB          :
         :: total energy             -80.188280150663 Eh    ::
         :: gradient norm              0.000387453236 Eh/a0 ::
         :: HOMO-LUMO gap              0.260385545489 eV    ::
         :: SCC energy               -81.044149715350 Eh    ::
         :: -> Gsolv                  -0.102532636390 Eh    ::
         :: repulsion energy           0.886533991391 Eh    ::

    * Orbital Energies and Occupations

         #    Occupation            Energy/Eh            Energy/eV
      -------------------------------------------------------------
         1        2.0000           -0.8009374             -21.7946
       ...           ...                  ...                  ...
        56        2.0000           -0.4559561             -12.4072
        57        2.0000           -0.4418706             -12.0239
        58        2.0000           -0.4409242             -11.9982
        59        2.0000           -0.4384140             -11.9299
        60        2.0000           -0.4306232             -11.7179
        61        2.0000           -0.4220249             -11.4839
        62        2.0000           -0.4160329             -11.3208
        63        2.0000           -0.4091354             -11.1331
        64        2.0000           -0.4047667             -11.0143
        65        2.0000           -0.4024106             -10.9502
        66        2.0000           -0.3951629             -10.7529
        67        2.0000           -0.3947863             -10.7427
        68        1.9871           -0.2978051              -8.1037 (HOMO)
        69        0.0129           -0.2882361              -7.8433 (LUMO)
        70                         -0.2500868              -6.8052
        71                         -0.2098032              -5.7090
        72                         -0.1992656              -5.4223
        73                         -0.1285112              -3.4970
        74                         -0.1272445              -3.4625
        75                         -0.1212122              -3.2984
        76                         -0.1152855              -3.1371
        77                         -0.1085861              -2.9548
        78                         -0.0935853              -2.5466
        79                         -0.0887908              -2.4161
       ...                                ...                  ...
       144                          0.7039712              19.1560
      -------------------------------------------------------------
                  HL-Gap            0.0095690 Eh            0.2604 eV

Wiberg/Mayer (AO) data.
largest (>0.10) Wiberg bond orders for each atom

     #   Z sym  total        # sym  WBO       # sym  WBO       # sym  WBO
 ---------------------------------------------------------------------------
     1   6 C    3.933 --    26 H    0.978    27 H    0.977    28 H    0.971
                             2 N    0.938
     2   7 N    3.426 --     3 C    1.152    24 C    1.089     1 C    0.938
                            25 O    0.114
     3   6 C    3.905 --     8 N    1.585     2 N    1.152     4 C    0.974
     4   6 C    3.966 --     5 C    0.992     6 C    0.987     7 N    0.978
                             3 C    0.974
     5   6 C    3.995 --     4 C    0.992    29 H    0.986    31 H    0.984
                            30 H    0.983
     6   6 C    3.994 --     4 C    0.987    34 H    0.986    33 H    0.984
                            32 H    0.982
     7   7 N    2.992 --     4 C    0.978    36 H    0.943    35 H    0.942
     8   7 N    3.025 --     3 C    1.585     9 C    1.177
     9   6 C    3.899 --    22 C    1.416     8 N    1.177    10 C    1.041
    10   6 C    3.898 --    11 O    1.504    12 N    1.233     9 C    1.041
    11   8 O    1.810 --    10 C    1.504    12 N    0.158
    12   7 N    3.357 --    10 C    1.233    13 C    0.967    37 H    0.899
                            11 O    0.158
    13   6 C    3.927 --    39 H    0.980    38 H    0.975    12 N    0.967
                            14 C    0.900
    14   6 C    3.983 --    21 C    1.023    16 C    1.021    15 C    0.976
                            13 C    0.900
    15   6 C    3.990 --    42 H    0.988    40 H    0.986    41 H    0.985
                            14 C    0.976
    16   6 C    3.855 --    17 C    1.589    14 C    1.021    43 H    0.975
    17   6 C    3.993 --    16 C    1.589    18 C    1.317    44 H    0.971
    18   6 C    3.653 --    17 C    1.317    20 C    1.309    19 F    0.858
    19   9 F    0.948 --    18 C    0.858
    20   6 C    3.994 --    21 C    1.600    18 C    1.309    45 H    0.971
    21   6 C    3.911 --    20 C    1.600    14 C    1.023    46 H    0.974
    22   6 C    3.854 --     9 C    1.416    24 C    1.161    23 O    1.035
    23   8 O    2.025 --    22 C    1.035    47 H    0.816
    24   6 C    3.871 --    25 O    1.485    22 C    1.161     2 N    1.089
    25   8 O    1.814 --    24 C    1.485     2 N    0.114
    26   1 H    1.004 --     1 C    0.978
    27   1 H    1.012 --     1 C    0.977
    28   1 H    1.031 --     1 C    0.971
    29   1 H    1.005 --     5 C    0.986
    30   1 H    1.015 --     5 C    0.983
    31   1 H    1.012 --     5 C    0.984
    32   1 H    1.005 --     6 C    0.982
    33   1 H    1.001 --     6 C    0.984
    34   1 H    1.004 --     6 C    0.986
    35   1 H    0.958 --     7 N    0.942
    36   1 H    0.957 --     7 N    0.943
    37   1 H    0.960 --    12 N    0.899
    38   1 H    1.020 --    13 C    0.975
    39   1 H    1.024 --    13 C    0.980
    40   1 H    1.010 --    15 C    0.986
    41   1 H    1.014 --    15 C    0.985
    42   1 H    1.021 --    15 C    0.988
    43   1 H    1.003 --    16 C    0.975
    44   1 H    1.006 --    17 C    0.971
    45   1 H    1.006 --    20 C    0.971
    46   1 H    1.004 --    21 C    0.974
    47   1 H    0.862 --    23 O    0.816
 ---------------------------------------------------------------------------

           -------------------------------------------------
          | TOTAL ENERGY              -80.188280150663 Eh   |
          | GRADIENT NORM               0.000387453236 Eh/α |
          | HOMO-LUMO GAP               0.260385545489 eV   |
           -------------------------------------------------

 * finished run on 2023/06/20 at 15:03:34.778
