   * xtb version 6.5.1 (579679a) compiled by 'ehlert@majestix' on 2022-07-11
          program call               : /lustre/hpc/kemi/ree/PhD/git/ReactivityQM/dep/xtb-6.5.1/bin/xtb --gfn 1 /lustre/hpc/kemi/ree/PhD/git/ReactivityQM/calculations/R03/reac02prodN06/conf15/R03_reac02prodN06_conf15_gfn1.xyz --opt --vfukui --chrg 1 --uhf 0 --alpb DMSO

   ID    Z sym.   atoms
    1    6 C      1, 3, 5, 7-10, 12, 14, 16, 17, 20, 22, 23, 25
    2    8 O      2, 4, 13, 15, 24, 26
    3    7 N      6, 11, 18, 19, 21
    4    1 H      27-46

      * Solvation model:               ALPB
        Solvent                        DMSO
        Solvent mass                       7.8130E+01 g/mol
          :  Hamiltonian                  GFN1-xTB          :
 * total energy  :   -86.3353511 Eh     change       -0.8016343E-10 Eh
 * total energy  :   -86.3542354 Eh     change       -0.1888437E-01 Eh
 * total energy  :   -86.3612288 Eh     change       -0.6993382E-02 Eh
 * total energy  :   -86.3626072 Eh     change       -0.1378369E-02 Eh
 * total energy  :   -86.3635979 Eh     change       -0.9907529E-03 Eh
 * total energy  :   -86.3639616 Eh     change       -0.3636405E-03 Eh
 * total energy  :   -86.3642862 Eh     change       -0.3246770E-03 Eh
 * total energy  :   -86.3645485 Eh     change       -0.2622423E-03 Eh
 * total energy  :   -86.3647239 Eh     change       -0.1754290E-03 Eh
 * total energy  :   -86.3648317 Eh     change       -0.1077563E-03 Eh
 * total energy  :   -86.3659490 Eh     change        0.2954110E-04 Eh
 * total energy  :   -86.3659910 Eh     change       -0.4201708E-04 Eh
 * total energy  :   -86.3660007 Eh     change       -0.9640002E-05 Eh
 * total energy  :   -86.3660061 Eh     change       -0.5384184E-05 Eh
 * total energy  :   -86.3660129 Eh     change       -0.6875701E-05 Eh
 * total energy  :   -86.3660178 Eh     change       -0.4808620E-05 Eh
 * total energy  :   -86.3660382 Eh     change       -0.2040840E-04 Eh
 * total energy  :   -86.3660434 Eh     change       -0.5280697E-05 Eh
 * total energy  :   -86.3660483 Eh     change       -0.4812761E-05 Eh
   *** GEOMETRY OPTIMIZATION CONVERGED AFTER 70 ITERATIONS ***

 final structure:
================
46
 xtb: 6.5.1 (579679a)
C           -6.27197510938422        2.45608296317429        1.54441462039018
O           -5.36613192407902        1.77149994965487        0.67257425831445
C           -4.25310452310737        1.29856857903636        1.22499412561107
O           -3.98808581394260        1.41980878195125        2.39917404320201
C           -3.35980948982982        0.60336376208057        0.25055211810920
N           -2.21098455911875        0.11280607190331        0.81026054015496
C           -1.32003758589445       -0.50653992717688        0.11152154557144
C           -0.11505925695604       -1.02642807527038        0.88404563471755
C           -0.10144273815039       -2.56029449985358        0.88833008348371
C           -0.16260607705408       -0.49854198688312        2.32402808671138
N            1.10506758943565       -0.48145356212673        0.25048454800494
C            2.33707501643524       -0.84454345100974        0.61528604139288
O            2.66640007187080       -1.69326353501641        1.41919314040562
C            3.40338541668456       -0.08034387128131       -0.11391460134687
O            3.18696701164315        0.84322220939035       -1.03568318961818
C            4.40253321384503        1.26692185090126       -1.42805750646764
C            4.53969735161549        2.30496509077989       -2.46244050733824
N            5.34425709167537        0.63980716108563       -0.78251050968114
N            4.70074634479943       -0.20467937457293        0.03972888041830
C            5.43927362174637       -1.08392471320851        0.92360698612109
N           -1.47616556396452       -0.72363877116307       -1.23560906351405
C           -0.52730066273153       -1.42828120387180       -2.09824378389796
C           -2.61112487300261       -0.28651020974995       -1.89803392048115
O           -2.78433487386582       -0.48275416827889       -3.09502487168427
C           -3.58832238444643        0.42583500540100       -1.08509489682788
O           -4.66935994550921        0.85631262543872       -1.74010725815291
H           -7.09452736733961        2.80768994531570        0.92468206292349
H           -5.76733210794950        3.29942847375281        2.02186393841517
H           -6.64013076581202        1.77231937741737        2.31312282008268
H           -1.09248266763545       -2.91910850727160        1.16385981563333
H            0.15967911743360       -2.95787857037039       -0.08833445037470
H            0.61982039063416       -2.92747970843073        1.61539703007113
H            0.71088366161446       -0.84987447384018        2.86945941737670
H           -1.06417455585319       -0.86051515345066        2.81578262045171
H           -0.17228007248075        0.58988647393402        2.32189335794874
H            1.00612104868336        0.32515530537381       -0.34430357985106
H            3.95340854487245        3.18022007948737       -2.18285116399863
H            4.14723274068840        1.93082610788679       -3.40853384330470
H            5.58595614100699        2.57586111635175       -2.57941462051043
H            5.16903347392216       -2.11382821533310        0.69411359301283
H            5.15746756410628       -0.86138489900001        1.95203978880350
H            6.49994823844070       -0.91169163290857        0.76240357937464
H           -0.50029899992365       -0.90885852953539       -3.05592385453539
H            0.46163697784136       -1.43181720276888       -1.65881783719971
H           -0.87592123580828       -2.44907584496989       -2.25589423121992
H           -4.58359447515227        0.61213115701935       -2.68113498670456

          :  Hamiltonian                  GFN1-xTB          :
         :: total energy             -86.366048252184 Eh    ::
         :: gradient norm              0.000833364844 Eh/a0 ::
         :: HOMO-LUMO gap              1.617304020897 eV    ::
         :: SCC energy               -87.211751065155 Eh    ::
         :: -> Gsolv                  -0.118490031884 Eh    ::
         :: repulsion energy           0.874239108021 Eh    ::

    * Orbital Energies and Occupations

         #    Occupation            Energy/Eh            Energy/eV
      -------------------------------------------------------------
         1        2.0000           -0.9391775             -25.5563
       ...           ...                  ...                  ...
        58        2.0000           -0.5276717             -14.3587
        59        2.0000           -0.5218122             -14.1992
        60        2.0000           -0.5184214             -14.1070
        61        2.0000           -0.5160596             -14.0427
        62        2.0000           -0.5144826             -13.9998
        63        2.0000           -0.5015168             -13.6470
        64        2.0000           -0.4991073             -13.5814
        65        2.0000           -0.4897984             -13.3281
        66        2.0000           -0.4847754             -13.1914
        67        2.0000           -0.4821894             -13.1210
        68        2.0000           -0.4663995             -12.6914
        69        2.0000           -0.4549696             -12.3804
        70        2.0000           -0.4368449             -11.8872 (HOMO)
        71                         -0.3774101             -10.2699 (LUMO)
        72                         -0.3291269              -8.9560
        73                         -0.3245457              -8.8313
        74                         -0.2937510              -7.9934
        75                         -0.2580395              -7.0216
        76                         -0.2453866              -6.6773
        77                         -0.1696913              -4.6175
        78                         -0.1673131              -4.5528
        79                         -0.1639646              -4.4617
        80                         -0.1508432              -4.1047
        81                         -0.1393504              -3.7919
       ...                                ...                  ...
       144                          0.7279486              19.8085
      -------------------------------------------------------------
                  HL-Gap            0.0594348 Eh            1.6173 eV

Wiberg/Mayer (AO) data.
largest (>0.10) Wiberg bond orders for each atom

     #   Z sym  total        # sym  WBO       # sym  WBO       # sym  WBO
 ---------------------------------------------------------------------------
     1   6 C    3.870 --    27 H    0.986    28 H    0.980    29 H    0.979
                             2 O    0.895
     2   8 O    2.207 --     3 C    1.120     1 C    0.895     4 O    0.136
     3   6 C    3.852 --     4 O    1.658     2 O    1.120     5 C    0.996
     4   8 O    1.920 --     3 C    1.658     2 O    0.136
     5   6 C    3.961 --    25 C    1.495     6 N    1.183     3 C    0.996
     6   7 N    3.036 --     7 C    1.585     5 C    1.183
     7   6 C    3.935 --     6 N    1.585    21 N    1.164     8 C    0.976
     8   6 C    3.912 --    10 C    0.988     9 C    0.984     7 C    0.976
                            11 N    0.897
     9   6 C    3.984 --     8 C    0.984    30 H    0.983    31 H    0.980
                            32 H    0.977
    10   6 C    3.984 --     8 C    0.988    35 H    0.984    33 H    0.983
                            34 H    0.981
    11   7 N    3.397 --    12 C    1.302     8 C    0.897    36 H    0.887
                            13 O    0.198
    12   6 C    3.929 --    13 O    1.590    11 N    1.302    14 C    0.958
    13   8 O    1.946 --    12 C    1.590    11 N    0.198
    14   6 C    3.843 --    19 N    1.454    15 O    1.127    12 C    0.958
    15   8 O    2.370 --    14 C    1.127    16 C    1.067
    16   6 C    3.838 --    18 N    1.570    15 O    1.067    17 C    1.044
    17   6 C    3.969 --    16 C    1.044    39 H    0.977    37 H    0.952
                            38 H    0.945
    18   7 N    2.967 --    16 C    1.570    19 N    1.161
    19   7 N    3.661 --    14 C    1.454    18 N    1.161    20 C    0.908
    20   6 C    3.878 --    42 H    0.980    41 H    0.962    40 H    0.962
                            19 N    0.908
    21   7 N    3.507 --     7 C    1.164    23 C    1.128    22 C    0.927
                            24 O    0.135
    22   6 C    3.918 --    44 H    0.979    45 H    0.973    43 H    0.973
                            21 N    0.927
    23   6 C    3.913 --    24 O    1.564    21 N    1.128    25 C    1.071
    24   8 O    1.907 --    23 C    1.564    21 N    0.135
    25   6 C    3.922 --     5 C    1.495    26 O    1.113    23 C    1.071
    26   8 O    2.091 --    25 C    1.113    46 H    0.803
    27   1 H    1.010 --     1 C    0.986
    28   1 H    1.007 --     1 C    0.980
    29   1 H    1.007 --     1 C    0.979
    30   1 H    0.999 --     9 C    0.983
    31   1 H    1.000 --     9 C    0.980
    32   1 H    1.006 --     9 C    0.977
    33   1 H    1.002 --    10 C    0.983
    34   1 H    1.008 --    10 C    0.981
    35   1 H    1.007 --    10 C    0.984
    36   1 H    0.927 --    11 N    0.887
    37   1 H    0.989 --    17 C    0.952
    38   1 H    0.988 --    17 C    0.945
    39   1 H    0.990 --    17 C    0.977
    40   1 H    0.998 --    20 C    0.962
    41   1 H    0.997 --    20 C    0.962
    42   1 H    0.994 --    20 C    0.980
    43   1 H    1.004 --    22 C    0.973
    44   1 H    1.006 --    22 C    0.979
    45   1 H    0.999 --    22 C    0.973
    46   1 H    0.844 --    26 O    0.803
 ---------------------------------------------------------------------------

           -------------------------------------------------
          | TOTAL ENERGY              -86.366048252184 Eh   |
          | GRADIENT NORM               0.000833364844 Eh/α |
          | HOMO-LUMO GAP               1.617304020897 eV   |
           -------------------------------------------------

 * finished run on 2023/06/20 at 15:40:56.582
