   * xtb version 6.5.1 (579679a) compiled by 'ehlert@majestix' on 2022-07-11
          program call               : /lustre/hpc/kemi/ree/PhD/git/ReactivityQM/dep/xtb-6.5.1/bin/xtb --gfn 1 /lustre/hpc/kemi/ree/PhD/git/ReactivityQM/calculations/R03/reac02/conf07/R03_reac02_conf07_gfn1.xyz --opt --vfukui --chrg 0 --uhf 0 --alpb DMSO

   ID    Z sym.   atoms
    1    6 C      1, 3, 5, 7-10, 12, 14, 17, 18, 21, 22, 24
    2    8 O      2, 4, 13, 19, 23, 25
    3    7 N      6, 11, 15, 16, 20
    4    1 H      26-42

      * Solvation model:               ALPB
        Solvent                        DMSO
        Solvent mass                       7.8130E+01 g/mol
          :  Hamiltonian                  GFN1-xTB          :
 * total energy  :   -82.9974736 Eh     change       -0.1428191E-10 Eh
 * total energy  :   -83.0068770 Eh     change       -0.9403423E-02 Eh
 * total energy  :   -83.0101825 Eh     change       -0.3305425E-02 Eh
 * total energy  :   -83.0108419 Eh     change       -0.6594738E-03 Eh
 * total energy  :   -83.0114475 Eh     change       -0.6055804E-03 Eh
 * total energy  :   -83.0118053 Eh     change       -0.3577835E-03 Eh
 * total energy  :   -83.0121353 Eh     change       -0.3300254E-03 Eh
 * total energy  :   -83.0123788 Eh     change       -0.2434940E-03 Eh
 * total energy  :   -83.0125043 Eh     change       -0.1254767E-03 Eh
 * total energy  :   -83.0125647 Eh     change       -0.6036703E-04 Eh
 * total energy  :   -83.0131137 Eh     change       -0.3133953E-04 Eh
 * total energy  :   -83.0131226 Eh     change       -0.8947445E-05 Eh
 * total energy  :   -83.0131419 Eh     change       -0.1926801E-04 Eh
 * total energy  :   -83.0131477 Eh     change       -0.5755914E-05 Eh
 * total energy  :   -83.0131577 Eh     change       -0.1001997E-04 Eh
 * total energy  :   -83.0131623 Eh     change       -0.4623058E-05 Eh
 * total energy  :   -83.0131726 Eh     change       -0.1025693E-04 Eh
 * total energy  :   -83.0131781 Eh     change       -0.5562874E-05 Eh
 * total energy  :   -83.0131827 Eh     change       -0.4563357E-05 Eh
   *** GEOMETRY OPTIMIZATION CONVERGED AFTER 37 ITERATIONS ***

 final structure:
================
42
 xtb: 6.5.1 (579679a)
C           -4.78376708135338       -3.08481314888090       -1.06963900764317
O           -3.78439413206759       -2.10092805039596       -0.78106784523950
C           -3.74843957157555       -1.04493874250686       -1.58078703085887
O           -4.51532097688387       -0.89052277256676       -2.51554184548750
C           -2.69146131290145       -0.06465750598432       -1.24226065300001
N           -1.88842996036429       -0.33865501436405       -0.17296172256686
C           -0.94185401452252        0.47495011012138        0.16983987493400
C           -0.14746008741290        0.08050776448556        1.40941528727427
C           -0.48720864734753       -1.36677612093024        1.79456533720666
C           -0.51323920876473        1.02146647920643        2.56668039338244
N            1.28346016197549        0.14345391157009        1.08469407059209
C            2.25924623832428       -0.09485931555579        1.99152443194819
O            2.09779386467904       -0.22998557096118        3.19151306191738
C            3.60536881591996       -0.15429319185059        1.36815149271416
N            4.73524151493802       -0.41089637294873        1.95012374600047
N            5.69334314898981       -0.37794458139048        0.98215722615374
C            5.09033794825072       -0.10285847323249       -0.13211478006335
C            5.69456340548304        0.05679738496105       -1.47260844145609
O            3.76629551690741        0.04971710941017        0.04164143333445
N           -0.71356459381084        1.64155195098642       -0.51109635926216
C            0.32371592583388        2.62466431345559       -0.18655229926429
C           -1.47855479302916        2.02724170129633       -1.61226379378174
O           -1.24871595560977        3.08209471182798       -2.18484423548336
C           -2.52857688214162        1.08115474370638       -1.97933613039817
O           -3.27771369422376        1.41382694603746       -3.03188711412234
H           -5.77799230834212       -2.63681325349120       -1.00615192684257
H           -4.67186793586944       -3.86966459395003       -0.32469625634699
H           -4.63153244162504       -3.48684725880363       -2.07372056358650
H            0.09512662919182       -1.65785980179070        2.66709318052983
H           -1.54701714810103       -1.44741525890738        2.02834678621149
H           -0.25645182099774       -2.03698748269841        0.96856214338376
H           -1.59563094054231        1.01951456545210        2.68978910634265
H           -0.05448728318971        0.67579814858139        3.49097252857131
H           -0.18511668783660        2.03965823618111        2.37277604572515
H            1.53160852520225        0.07081705132582        0.11133893338891
H            6.72784929528797       -0.28217709051975       -1.45155560718201
H            5.66643646276398        1.10593131816783       -1.76938953013444
H            5.13062767442432       -0.51637150164670       -2.20722885535094
H           -0.15973448413519        3.55154295018373        0.12358057930167
H            0.97660983018513        2.26256662348139        0.59690813042916
H            0.90423790980623        2.81422959067006       -1.08954825911992
H           -3.95333190551236        0.71916749226709       -3.20442153215173

          :  Hamiltonian                  GFN1-xTB          :
         :: total energy             -83.013182676614 Eh    ::
         :: gradient norm              0.000711305732 Eh/a0 ::
         :: HOMO-LUMO gap              2.791474913318 eV    ::
         :: SCC energy               -83.793473323145 Eh    ::
         :: -> Gsolv                  -0.054984849626 Eh    ::
         :: repulsion energy           0.806626353788 Eh    ::

    * Orbital Energies and Occupations

         #    Occupation            Energy/Eh            Energy/eV
      -------------------------------------------------------------
         1        2.0000           -0.8668959             -23.5894
       ...           ...                  ...                  ...
        55        2.0000           -0.5063111             -13.7774
        56        2.0000           -0.5015037             -13.6466
        57        2.0000           -0.4991505             -13.5826
        58        2.0000           -0.4885646             -13.2945
        59        2.0000           -0.4813651             -13.0986
        60        2.0000           -0.4745253             -12.9125
        61        2.0000           -0.4686030             -12.7513
        62        2.0000           -0.4624498             -12.5839
        63        2.0000           -0.4584842             -12.4760
        64        2.0000           -0.4531038             -12.3296
        65        2.0000           -0.4484263             -12.2023
        66        2.0000           -0.4441732             -12.0866
        67        2.0000           -0.4273521             -11.6288 (HOMO)
        68                         -0.3247673              -8.8374 (LUMO)
        69                         -0.3130933              -8.5197
        70                         -0.2845887              -7.7441
        71                         -0.2580179              -7.0210
        72                         -0.2418155              -6.5801
        73                         -0.2011513              -5.4736
        74                         -0.1579763              -4.2988
        75                         -0.1428958              -3.8884
        76                         -0.1397619              -3.8031
        77                         -0.1376029              -3.7444
        78                         -0.1252229              -3.4075
       ...                                ...                  ...
       134                          0.7288247              19.8323
      -------------------------------------------------------------
                  HL-Gap            0.1025848 Eh            2.7915 eV

Wiberg/Mayer (AO) data.
largest (>0.10) Wiberg bond orders for each atom

     #   Z sym  total        # sym  WBO       # sym  WBO       # sym  WBO
 ---------------------------------------------------------------------------
     1   6 C    3.866 --    27 H    0.986    26 H    0.979    28 H    0.979
                             2 O    0.892
     2   8 O    2.217 --     3 C    1.135     1 C    0.892     4 O    0.130
     3   6 C    3.848 --     4 O    1.607     2 O    1.135     5 C    1.019
     4   8 O    1.942 --     3 C    1.607     2 O    0.130
     5   6 C    3.964 --    24 C    1.475     6 N    1.189     3 C    1.019
     6   7 N    3.031 --     7 C    1.568     5 C    1.189
     7   6 C    3.931 --     6 N    1.568    20 N    1.177     8 C    0.976
     8   6 C    3.933 --     9 C    0.990    10 C    0.982     7 C    0.976
                            11 N    0.920
     9   6 C    3.989 --     8 C    0.990    31 H    0.985    30 H    0.984
                            29 H    0.982
    10   6 C    3.988 --    32 H    0.985     8 C    0.982    34 H    0.981
                            33 H    0.977
    11   7 N    3.343 --    12 C    1.241     8 C    0.920    35 H    0.896
                            13 O    0.172
    12   6 C    3.915 --    13 O    1.595    11 N    1.241    14 C    0.993
    13   8 O    1.911 --    12 C    1.595    11 N    0.172
    14   6 C    3.872 --    15 N    1.623    19 O    1.046    12 C    0.993
    15   7 N    3.000 --    14 C    1.623    16 N    1.199
    16   7 N    2.982 --    17 C    1.611    15 N    1.199
    17   6 C    3.868 --    16 N    1.611    19 O    1.071    18 C    1.032
    18   6 C    3.986 --    17 C    1.032    36 H    0.981    38 H    0.968
                            37 H    0.959
    19   8 O    2.315 --    17 C    1.071    14 C    1.046
    20   7 N    3.505 --     7 C    1.177    22 C    1.110    21 C    0.929
                            23 O    0.137
    21   6 C    3.921 --    40 H    0.977    39 H    0.975    41 H    0.975
                            20 N    0.929
    22   6 C    3.913 --    23 O    1.585    20 N    1.110    24 C    1.070
    23   8 O    1.901 --    22 C    1.585    20 N    0.137
    24   6 C    3.922 --     5 C    1.475    25 O    1.123    22 C    1.070
    25   8 O    2.092 --    24 C    1.123    42 H    0.779
    26   1 H    1.006 --     1 C    0.979
    27   1 H    1.010 --     1 C    0.986
    28   1 H    1.006 --     1 C    0.979
    29   1 H    1.006 --     9 C    0.982
    30   1 H    1.012 --     9 C    0.984
    31   1 H    1.008 --     9 C    0.985
    32   1 H    1.002 --    10 C    0.985
    33   1 H    1.011 --    10 C    0.977
    34   1 H    1.001 --    10 C    0.981
    35   1 H    0.940 --    11 N    0.896
    36   1 H    0.998 --    18 C    0.981
    37   1 H    0.996 --    18 C    0.959
    38   1 H    0.996 --    18 C    0.968
    39   1 H    1.003 --    21 C    0.975
    40   1 H    1.009 --    21 C    0.977
    41   1 H    1.005 --    21 C    0.975
    42   1 H    0.852 --    25 O    0.779
 ---------------------------------------------------------------------------

           -------------------------------------------------
          | TOTAL ENERGY              -83.013182676614 Eh   |
          | GRADIENT NORM               0.000711305732 Eh/α |
          | HOMO-LUMO GAP               2.791474913318 eV   |
           -------------------------------------------------

 * finished run on 2023/06/20 at 15:12:26.652
