   * xtb version 6.5.1 (579679a) compiled by 'ehlert@majestix' on 2022-07-11
          program call               : /lustre/hpc/kemi/ree/PhD/git/ReactivityQM/dep/xtb-6.5.1/bin/xtb --gfn 1 /lustre/hpc/kemi/ree/PhD/git/ReactivityQM/calculations/R03/reac01prodN04/conf02/R03_reac01prodN04_conf02_gfn1.xyz --opt --vfukui --chrg 1 --uhf 0 --alpb DMSO

   ID    Z sym.   atoms
    1    6 C      1-5, 7-9
    2    7 N      6
    3    9 F      10
    4    1 H      11-21

      * Solvation model:               ALPB
        Solvent                        DMSO
        Solvent mass                       7.8130E+01 g/mol
          :  Hamiltonian                  GFN1-xTB          :
 * total energy  :   -30.7635144 Eh     change       -0.5322782E-09 Eh
 * total energy  :   -30.7680253 Eh     change       -0.4510867E-02 Eh
 * total energy  :   -30.7694471 Eh     change       -0.1421854E-02 Eh
 * total energy  :   -30.7696260 Eh     change       -0.1789069E-03 Eh
 * total energy  :   -30.7697324 Eh     change       -0.1063393E-03 Eh
 * total energy  :   -30.7697605 Eh     change       -0.2812202E-04 Eh
 * total energy  :   -30.7697873 Eh     change       -0.2683157E-04 Eh
 * total energy  :   -30.7697972 Eh     change       -0.9892530E-05 Eh
 * total energy  :   -30.7698027 Eh     change       -0.5533175E-05 Eh
 * total energy  :   -30.7698042 Eh     change       -0.1405505E-05 Eh
   *** GEOMETRY OPTIMIZATION CONVERGED AFTER 10 ITERATIONS ***

 final structure:
================
21
 xtb: 6.5.1 (579679a)
C            2.22318981256599       -1.31013971197878        0.75096969294173
C            1.46873881538328       -0.47102418979469       -0.31353367633115
C            0.03932926675553       -0.80759227632262       -0.43281947681788
C           -0.94479033387688        0.14530156471425       -0.48347463064007
C           -2.41151606077100       -0.23388965759962       -0.53789493777011
N           -2.96911758728705       -0.21166422868665        0.80644702796644
C           -0.58405107293438        1.50682828719554       -0.38396262331860
C            0.73873667179468        1.92284803027748       -0.25944126591819
C            1.72190236226717        0.96875710141198       -0.20267082657091
F            2.96918953759152        1.32702885205835       -0.05920495351818
H            1.82549240420626       -1.08003727149791        1.73644549971330
H            3.28290010872660       -1.06664754878227        0.71760370467127
H            2.08363591575455       -2.36746360750619        0.53955196103559
H            1.92451124677418       -0.77750471166396       -1.27502613490632
H           -0.20493542296642       -1.86198314550728       -0.49458805192984
H           -2.95872764240996        0.47795599943501       -1.16012671940201
H           -2.52398706457816       -1.23788283397619       -0.95206662989919
H           -2.45747408378798       -0.86487879641076        1.38390255104023
H           -2.84732323168788        0.71002504625662        1.20394867317874
H           -1.36641322514676        2.25818014609118       -0.40004685527677
H            0.99071058362741        2.97378195228677       -0.18401232824810

          :  Hamiltonian                  GFN1-xTB          :
         :: total energy             -30.769804153114 Eh    ::
         :: gradient norm              0.000298595127 Eh/a0 ::
         :: HOMO-LUMO gap              0.443426567799 eV    ::
         :: SCC energy               -31.161497829317 Eh    ::
         :: -> Gsolv                  -0.086485684771 Eh    ::
         :: repulsion energy           0.401721644661 Eh    ::

    * Orbital Energies and Occupations

         #    Occupation            Energy/Eh            Energy/eV
      -------------------------------------------------------------
         1        2.0000           -0.9467102             -25.7613
       ...           ...                  ...                  ...
        15        2.0000           -0.5984509             -16.2847
        16        2.0000           -0.5979464             -16.2709
        17        2.0000           -0.5847590             -15.9121
        18        2.0000           -0.5767468             -15.6941
        19        2.0000           -0.5643944             -15.3580
        20        2.0000           -0.5587783             -15.2051
        21        2.0000           -0.5500028             -14.9663
        22        2.0000           -0.5416097             -14.7380
        23        2.0000           -0.5346435             -14.5484
        24        2.0000           -0.5304672             -14.4347
        25        2.0000           -0.5110752             -13.9071
        26        2.0000           -0.5032838             -13.6951
        27        1.9996           -0.4333385             -11.7917 (HOMO)
        28        0.0004           -0.4170429             -11.3483 (LUMO)
        29                         -0.3278502              -8.9213
        30                         -0.2485275              -6.7628
        31                         -0.1585501              -4.3144
        32                         -0.1514809              -4.1220
        33                         -0.1464582              -3.9853
        34                         -0.1437194              -3.9108
        35                         -0.1320871              -3.5943
        36                         -0.1203419              -3.2747
        37                         -0.1010409              -2.7495
        38                         -0.0904091              -2.4602
       ...                                ...                  ...
        62                          0.5379662              14.6388
      -------------------------------------------------------------
                  HL-Gap            0.0162956 Eh            0.4434 eV

Wiberg/Mayer (AO) data.
largest (>0.10) Wiberg bond orders for each atom

     #   Z sym  total        # sym  WBO       # sym  WBO       # sym  WBO
 ---------------------------------------------------------------------------
     1   6 C    3.962 --    11 H    0.983    13 H    0.982    12 H    0.981
                             2 C    0.913
     2   6 C    3.989 --     3 C    1.085     9 C    1.072     1 C    0.913
                            14 H    0.832
     3   6 C    3.958 --     4 C    1.552     2 C    1.085    15 H    0.963
     4   6 C    3.974 --     3 C    1.552     7 C    1.308     5 C    0.988
     5   6 C    3.973 --     6 N    0.993     4 C    0.988    17 H    0.976
                            16 H    0.973
     6   7 N    2.973 --     5 C    0.993    18 H    0.942    19 H    0.941
     7   6 C    3.940 --     8 C    1.408     4 C    1.308    20 H    0.964
     8   6 C    3.982 --     9 C    1.462     7 C    1.408    21 H    0.955
     9   6 C    3.840 --     8 C    1.462     2 C    1.072    10 F    1.035
    10   9 F    1.204 --     9 C    1.035
    11   1 H    0.994 --     1 C    0.983
    12   1 H    0.995 --     1 C    0.981
    13   1 H    0.992 --     1 C    0.982
    14   1 H    0.975 --     2 C    0.832
    15   1 H    0.989 --     3 C    0.963
    16   1 H    1.004 --     5 C    0.973
    17   1 H    1.003 --     5 C    0.976
    18   1 H    0.954 --     6 N    0.942
    19   1 H    0.953 --     6 N    0.941
    20   1 H    0.990 --     7 C    0.964
    21   1 H    0.984 --     8 C    0.955
 ---------------------------------------------------------------------------

           -------------------------------------------------
          | TOTAL ENERGY              -30.769804153114 Eh   |
          | GRADIENT NORM               0.000298595127 Eh/α |
          | HOMO-LUMO GAP               0.443426567799 eV   |
           -------------------------------------------------

 * finished run on 2023/06/20 at 15:14:33.727
