   * xtb version 6.5.1 (579679a) compiled by 'ehlert@majestix' on 2022-07-11
          program call               : /lustre/hpc/kemi/ree/PhD/git/ReactivityQM/dep/xtb-6.5.1/bin/xtb --gfn 1 /lustre/hpc/kemi/ree/PhD/git/ReactivityQM/calculations/RaltegravirCLI/reac02/conf02/RaltegravirCLI_reac02_conf02_gfn1.xyz --opt --vfukui --chrg 0 --uhf 0 --alpb DMSO

   ID    Z sym.   atoms
    1    6 C      1, 3-6, 9, 10, 13-17, 19-21, 23
    2    7 N      2, 7, 8, 12
    3    8 O      11, 22, 24
    4    9 F      18
    5    1 H      25-43

      * Solvation model:               ALPB
        Solvent                        DMSO
        Solvent mass                       7.8130E+01 g/mol
          :  Hamiltonian                  GFN1-xTB          :
 * total energy  :   -76.1644654 Eh     change       -0.7716494E-11 Eh
 * total energy  :   -76.1718473 Eh     change       -0.7381899E-02 Eh
 * total energy  :   -76.1738039 Eh     change       -0.1956559E-02 Eh
 * total energy  :   -76.1741763 Eh     change       -0.3724645E-03 Eh
 * total energy  :   -76.1744147 Eh     change       -0.2384107E-03 Eh
 * total energy  :   -76.1745008 Eh     change       -0.8603092E-04 Eh
 * total energy  :   -76.1745587 Eh     change       -0.5790840E-04 Eh
 * total energy  :   -76.1745885 Eh     change       -0.2980878E-04 Eh
 * total energy  :   -76.1746205 Eh     change       -0.3206773E-04 Eh
 * total energy  :   -76.1746426 Eh     change       -0.2208123E-04 Eh
 * total energy  :   -76.1749196 Eh     change       -0.1425317E-04 Eh
 * total energy  :   -76.1749379 Eh     change       -0.1832411E-04 Eh
 * total energy  :   -76.1749493 Eh     change       -0.1137691E-04 Eh
 * total energy  :   -76.1749572 Eh     change       -0.7898422E-05 Eh
 * total energy  :   -76.1749701 Eh     change       -0.1295005E-04 Eh
 * total energy  :   -76.1749818 Eh     change       -0.1169785E-04 Eh
 * total energy  :   -76.1749924 Eh     change       -0.1059261E-04 Eh
 * total energy  :   -76.1749989 Eh     change       -0.6476135E-05 Eh
 * total energy  :   -76.1750029 Eh     change       -0.4064412E-05 Eh
   *** GEOMETRY OPTIMIZATION CONVERGED AFTER 27 ITERATIONS ***

 final structure:
================
43
 xtb: 6.5.1 (579679a)
C           -4.06280095718320       -1.27037270262554        1.19293302287071
N           -2.72730744796064       -1.09993794899872        0.62045225803123
C           -2.40569642862974       -0.15973057238786       -0.33034310350779
C           -3.40981498947991        0.83454352048328       -0.93135313006648
C           -3.67951776302772        1.97414971848089        0.06317969492216
C           -4.71360111008422        0.18322185739231       -1.41203303993491
N           -2.78936819394468        1.43755200312033       -2.10665839714573
N           -1.19514493889847       -0.03848894761231       -0.77477164804183
C           -0.17223443427912       -0.83766198614271       -0.34970764599990
C            1.15068185129096       -0.50957675566878       -0.98010551145296
O            1.24953148992561        0.35645182747372       -1.84154672988777
N            2.20623850684736       -1.23071518066477       -0.55372569556398
C            3.54782762658288       -0.95740247651799       -1.05858885037566
C            4.25394230459138        0.06272570000707       -0.19020909755444
C            5.24799938984300       -0.33673724369323        0.69921764690866
C            5.89159881984132        0.59259686684626        1.50602112875858
C            5.51529756906889        1.91904401376642        1.40424713059171
F            6.13174455261496        2.82585221537373        2.18145953214260
C            4.53069208091166        2.35091917830355        0.53323134965589
C            3.90083262262911        1.40940024699254       -0.26740066486280
C           -0.43797921174243       -1.81808742445977        0.56030982812419
O            0.47470254656727       -2.68787950014672        1.04189457608534
C           -1.77707380796333       -1.98883304778509        1.08947130525197
O           -2.03456823068287       -2.86536816386573        1.91344623741067
H           -4.53137902534364       -0.30597723698447        1.35731239878911
H           -4.67510992136902       -1.88062292532550        0.52977858866630
H           -3.95454188576705       -1.78324921566875        2.14849007591183
H           -4.21642019865121        1.62517525866003        0.94217330901641
H           -2.73702506321350        2.41781562960017        0.38238419074480
H           -4.27785751392992        2.73848819268127       -0.43157723259695
H           -5.16153473360114        0.82947760572614       -2.16707849673195
H           -4.51489249773933       -0.78851282302999       -1.86179574285164
H           -5.43266670963266        0.06243324246511       -0.60613944052466
H           -2.60219277151743        0.70858149133922       -2.78546787366503
H           -1.89134450737348        1.83002185374833       -1.83694571429374
H            2.12698182181034       -1.87443387598547        0.21484170746934
H            4.10131443779358       -1.89902597579349       -1.07039248087048
H            3.45242949404118       -0.58283294056942       -2.08304561575034
H            5.52873656459740       -1.38139044306913        0.76313846244726
H            6.66738886325104        0.29458771302422        2.19903099075335
H            4.26753690465279        3.39973888914988        0.48390475346914
H            3.12781420374150        1.72401288230810       -0.95960821922945
H            0.02678069141597       -3.27995151995471        1.67667514289026

          :  Hamiltonian                  GFN1-xTB          :
         :: total energy             -76.175002942666 Eh    ::
         :: gradient norm              0.000517674745 Eh/a0 ::
         :: HOMO-LUMO gap              2.722461246885 eV    ::
         :: SCC energy               -77.019517357952 Eh    ::
         :: -> Gsolv                  -0.045548499352 Eh    ::
         :: repulsion energy           0.871817785386 Eh    ::

    * Orbital Energies and Occupations

         #    Occupation            Energy/Eh            Energy/eV
      -------------------------------------------------------------
         1        2.0000           -0.8627872             -23.4776
       ...           ...                  ...                  ...
        52        2.0000           -0.4952506             -13.4765
        53        2.0000           -0.4876164             -13.2687
        54        2.0000           -0.4837387             -13.1632
        55        2.0000           -0.4720774             -12.8459
        56        2.0000           -0.4667782             -12.7017
        57        2.0000           -0.4651947             -12.6586
        58        2.0000           -0.4499925             -12.2449
        59        2.0000           -0.4460239             -12.1369
        60        2.0000           -0.4381569             -11.9229
        61        2.0000           -0.4335752             -11.7982
        62        2.0000           -0.4317843             -11.7494
        63        2.0000           -0.4196118             -11.4182
        64        2.0000           -0.4101856             -11.1617 (HOMO)
        65                         -0.3101370              -8.4393 (LUMO)
        66                         -0.2725270              -7.4158
        67                         -0.2719302              -7.3996
        68                         -0.2655500              -7.2260
        69                         -0.2253119              -6.1310
        70                         -0.1473240              -4.0089
        71                         -0.1451129              -3.9487
        72                         -0.1439822              -3.9180
        73                         -0.1266404              -3.4461
        74                         -0.1190342              -3.2391
        75                         -0.1168652              -3.1801
       ...                                ...                  ...
       134                          0.7185123              19.5517
      -------------------------------------------------------------
                  HL-Gap            0.1000486 Eh            2.7225 eV

Wiberg/Mayer (AO) data.
largest (>0.10) Wiberg bond orders for each atom

     #   Z sym  total        # sym  WBO       # sym  WBO       # sym  WBO
 ---------------------------------------------------------------------------
     1   6 C    3.925 --    25 H    0.977    26 H    0.977    27 H    0.973
                             2 N    0.931
     2   7 N    3.507 --     3 C    1.163    23 C    1.134     1 C    0.931
                            24 O    0.133
     3   6 C    3.918 --     8 N    1.570     2 N    1.163     4 C    0.963
     4   6 C    3.969 --     7 N    0.997     6 C    0.992     5 C    0.983
                             3 C    0.963
     5   6 C    3.994 --    29 H    0.985    30 H    0.983     4 C    0.983
                            28 H    0.979
     6   6 C    3.994 --     4 C    0.992    32 H    0.986    31 H    0.983
                            33 H    0.982
     7   7 N    2.960 --     4 C    0.997    34 H    0.945    35 H    0.939
     8   7 N    3.043 --     3 C    1.570     9 C    1.196
     9   6 C    3.964 --    21 C    1.508     8 N    1.196    10 C    0.990
    10   6 C    3.907 --    11 O    1.572    12 N    1.264     9 C    0.990
    11   8 O    1.880 --    10 C    1.572    12 N    0.170
    12   7 N    3.345 --    10 C    1.264    13 C    0.942    36 H    0.887
                            11 O    0.170
    13   6 C    3.949 --    14 C    0.993    37 H    0.977    38 H    0.969
                            12 N    0.942
    14   6 C    3.988 --    15 C    1.423    20 C    1.414    13 C    0.993
    15   6 C    3.994 --    16 C    1.439    14 C    1.423    39 H    0.971
                            19 C    0.110
    16   6 C    3.991 --    15 C    1.439    17 C    1.404    40 H    0.969
                            20 C    0.111
    17   6 C    3.860 --    16 C    1.404    19 C    1.398    18 F    0.923
    18   9 F    1.051 --    17 C    0.923
    19   6 C    3.992 --    20 C    1.448    17 C    1.398    41 H    0.970
                            15 C    0.110
    20   6 C    3.992 --    19 C    1.448    14 C    1.414    42 H    0.968
                            16 C    0.111
    21   6 C    3.917 --     9 C    1.508    23 C    1.092    22 O    1.071
    22   8 O    2.064 --    21 C    1.071    43 H    0.800
    23   6 C    3.916 --    24 O    1.537     2 N    1.134    21 C    1.092
    24   8 O    1.888 --    23 C    1.537     2 N    0.133
    25   1 H    1.008 --     1 C    0.977
    26   1 H    1.002 --     1 C    0.977
    27   1 H    1.007 --     1 C    0.973
    28   1 H    1.005 --     5 C    0.979
    29   1 H    1.003 --     5 C    0.985
    30   1 H    1.005 --     5 C    0.983
    31   1 H    1.007 --     6 C    0.983
    32   1 H    1.001 --     6 C    0.986
    33   1 H    1.004 --     6 C    0.982
    34   1 H    0.967 --     7 N    0.945
    35   1 H    0.978 --     7 N    0.939
    36   1 H    0.945 --    12 N    0.887
    37   1 H    1.003 --    13 C    0.977
    38   1 H    1.010 --    13 C    0.969
    39   1 H    1.000 --    15 C    0.971
    40   1 H    0.998 --    16 C    0.969
    41   1 H    0.999 --    19 C    0.970
    42   1 H    1.011 --    20 C    0.968
    43   1 H    0.846 --    22 O    0.800
 ---------------------------------------------------------------------------

           -------------------------------------------------
          | TOTAL ENERGY              -76.175002942666 Eh   |
          | GRADIENT NORM               0.000517674745 Eh/α |
          | HOMO-LUMO GAP               2.722461246885 eV   |
           -------------------------------------------------

 * finished run on 2023/06/20 at 14:51:38.532
