   * xtb version 6.5.1 (579679a) compiled by 'ehlert@majestix' on 2022-07-11
          program call               : /lustre/hpc/kemi/ree/PhD/git/ReactivityQM/dep/xtb-6.5.1/bin/xtb --gfn 1 /lustre/hpc/kemi/ree/PhD/git/ReactivityQM/calculations/R01/reac01prodE02/conf17/R01_reac01prodE02_conf17_gfn1.xyz --opt --vfukui --chrg -1 --uhf 0 --alpb DMSO

   ID    Z sym.   atoms
    1    6 C      1, 3, 5, 6, 9, 10
    2    8 O      2, 4, 11
    3    7 N      7, 8
    4    1 H      12-20

      * Solvation model:               ALPB
        Solvent                        DMSO
        Solvent mass                       7.8130E+01 g/mol
          :  Hamiltonian                  GFN1-xTB          :
 * total energy  :   -38.2753709 Eh     change       -0.1570299E-11 Eh
 * total energy  :   -38.2863392 Eh     change       -0.1096830E-01 Eh
 * total energy  :   -38.2896463 Eh     change       -0.3307096E-02 Eh
 * total energy  :   -38.2902418 Eh     change       -0.5955777E-03 Eh
 * total energy  :   -38.2905965 Eh     change       -0.3547053E-03 Eh
 * total energy  :   -38.2907297 Eh     change       -0.1331674E-03 Eh
 * total energy  :   -38.2908436 Eh     change       -0.1139294E-03 Eh
 * total energy  :   -38.2910101 Eh     change       -0.1664246E-03 Eh
 * total energy  :   -38.2911854 Eh     change       -0.1753358E-03 Eh
 * total energy  :   -38.2914893 Eh     change       -0.3038835E-03 Eh
 * total energy  :   -38.3032976 Eh     change       -0.1915998E-04 Eh
 * total energy  :   -38.3033118 Eh     change       -0.1420472E-04 Eh
 * total energy  :   -38.3033268 Eh     change       -0.1500346E-04 Eh
 * total energy  :   -38.3033525 Eh     change       -0.2568960E-04 Eh
 * total energy  :   -38.3033675 Eh     change       -0.1504127E-04 Eh
 * total energy  :   -38.3033968 Eh     change       -0.2929478E-04 Eh
 * total energy  :   -38.3034062 Eh     change       -0.9365213E-05 Eh
 * total energy  :   -38.3034162 Eh     change       -0.9992740E-05 Eh
 * total energy  :   -38.3034182 Eh     change       -0.1970290E-05 Eh
   *** GEOMETRY OPTIMIZATION CONVERGED AFTER 50 ITERATIONS ***

 final structure:
================
20
 xtb: 6.5.1 (579679a)
C           -1.94243823853470       -2.07756243783861       -0.77407782014144
O           -1.40734323471109       -0.77979966000390       -0.95668907344536
C           -1.06607259624045       -0.12359845068414        0.26222106001772
O           -2.11232073616494        0.65213645130665        0.79993169552664
C           -2.42154063556540        1.84463584892885        0.08642359651427
C            0.24111003573864        0.30338543418461        0.44017082432989
N            0.69696299771969        1.15502576276398        1.37908258155952
N            2.07841416516079        1.07194391771493        1.33270352739264
C            2.38972883005219        0.21914513419230        0.42419884488246
C            3.75196009875699       -0.20645187441313        0.00413764645004
O            1.29561791806792       -0.32646160817889       -0.19754617197692
H           -2.89359043564513       -2.04549846280902       -0.22424987462216
H           -1.24364779024265       -2.72321682799531       -0.22349632172111
H           -2.11975442419506       -2.50515793865741       -1.76425359876038
H           -2.70313666800675        1.62526159822700       -0.95195167913856
H           -3.26701077329062        2.32026655151630        0.58916403773234
H           -1.56938713878984        2.53949991129529        0.08280677184222
H            3.89987690875107       -0.02429498132130       -1.06133144982384
H            4.49574649873824        0.35345100622661        0.56759084585862
H            3.89682421840124       -1.27270937445651        0.18516555752514

          :  Hamiltonian                  GFN1-xTB          :
         :: total energy             -38.303418152142 Eh    ::
         :: gradient norm              0.000800070755 Eh/a0 ::
         :: HOMO-LUMO gap              2.798056633343 eV    ::
         :: SCC energy               -38.606196448920 Eh    ::
         :: -> Gsolv                  -0.101829065784 Eh    ::
         :: repulsion energy           0.310852419661 Eh    ::

    * Orbital Energies and Occupations

         #    Occupation            Energy/Eh            Energy/eV
      -------------------------------------------------------------
         1        2.0000           -0.7744192             -21.0730
       ...           ...                  ...                  ...
        19        2.0000           -0.5101009             -13.8806
        20        2.0000           -0.5072157             -13.8020
        21        2.0000           -0.4939623             -13.4414
        22        2.0000           -0.4754730             -12.9383
        23        2.0000           -0.4679012             -12.7322
        24        2.0000           -0.4613316             -12.5535
        25        2.0000           -0.4218413             -11.4789
        26        2.0000           -0.4202173             -11.4347
        27        2.0000           -0.4177957             -11.3688
        28        2.0000           -0.3981489             -10.8342
        29        2.0000           -0.3882106             -10.5637
        30        2.0000           -0.3724297             -10.1343
        31        2.0000           -0.2910362              -7.9195 (HOMO)
        32                         -0.1882095              -5.1214 (LUMO)
        33                         -0.1516309              -4.1261
        34                         -0.1169425              -3.1822
        35                         -0.1069286              -2.9097
        36                         -0.1039756              -2.8293
        37                         -0.0503787              -1.3709
        38                         -0.0492667              -1.3406
        39                         -0.0471059              -1.2818
        40                         -0.0465058              -1.2655
        41                         -0.0463178              -1.2604
        42                         -0.0420668              -1.1447
       ...                                ...                  ...
        62                          0.6453063              17.5597
      -------------------------------------------------------------
                  HL-Gap            0.1028267 Eh            2.7981 eV

Wiberg/Mayer (AO) data.
largest (>0.10) Wiberg bond orders for each atom

     #   Z sym  total        # sym  WBO       # sym  WBO       # sym  WBO
 ---------------------------------------------------------------------------
     1   6 C    3.936 --    14 H    0.985    12 H    0.982    13 H    0.981
                             2 O    0.959
     2   8 O    1.993 --     1 C    0.959     3 C    0.900
     3   6 C    3.572 --     6 C    1.414     4 O    0.923     2 O    0.900
                             7 N    0.154
     4   8 O    1.988 --     5 C    0.946     3 C    0.923
     5   6 C    3.938 --    16 H    0.987    15 H    0.982    17 H    0.982
                             4 O    0.946
     6   6 C    3.861 --     3 C    1.414     7 N    1.332    11 O    0.973
     7   7 N    2.823 --     6 C    1.332     8 N    1.144     3 C    0.154
                             9 C    0.103
     8   7 N    2.984 --     9 C    1.679     7 N    1.144
     9   6 C    3.888 --     8 N    1.679    10 C    1.018    11 O    1.005
                             7 N    0.103
    10   6 C    3.996 --     9 C    1.018    19 H    0.987    18 H    0.976
                            20 H    0.975
    11   8 O    2.192 --     9 C    1.005     6 C    0.973
    12   1 H    1.024 --     1 C    0.982
    13   1 H    1.028 --     1 C    0.981
    14   1 H    1.023 --     1 C    0.985
    15   1 H    1.020 --     5 C    0.982
    16   1 H    1.022 --     5 C    0.987
    17   1 H    1.022 --     5 C    0.982
    18   1 H    1.006 --    10 C    0.976
    19   1 H    1.007 --    10 C    0.987
    20   1 H    1.007 --    10 C    0.975
 ---------------------------------------------------------------------------

           -------------------------------------------------
          | TOTAL ENERGY              -38.303418152142 Eh   |
          | GRADIENT NORM               0.000800070755 Eh/α |
          | HOMO-LUMO GAP               2.798056633343 eV   |
           -------------------------------------------------

 * finished run on 2023/06/20 at 14:52:58.494
