   * xtb version 6.5.1 (579679a) compiled by 'ehlert@majestix' on 2022-07-11
          program call               : /lustre/hpc/kemi/ree/PhD/git/ReactivityQM/dep/xtb-6.5.1/bin/xtb --gfn 1 /lustre/hpc/kemi/ree/PhD/git/ReactivityQM/calculations/R02oxygendeprot/reac01prodN07/conf13/R02oxygendeprot_reac01prodN07_conf13_gfn1.xyz --opt --vfukui --chrg 0 --uhf 0 --alpb DMSO

   ID    Z sym.   atoms
    1    6 C      1, 3, 5, 7-10, 12, 14, 17-19, 22, 24
    2    8 O      2, 4, 13, 20, 23, 25
    3    7 N      6, 11, 15, 16, 21
    4    1 H      26-42

      * Solvation model:               ALPB
        Solvent                        DMSO
        Solvent mass                       7.8130E+01 g/mol
          :  Hamiltonian                  GFN1-xTB          :
 * total energy  :   -82.9499085 Eh     change       -0.5712479E-09 Eh
 * total energy  :   -82.9668933 Eh     change       -0.1698479E-01 Eh
 * total energy  :   -82.9742992 Eh     change       -0.7405844E-02 Eh
 * total energy  :   -82.9755964 Eh     change       -0.1297229E-02 Eh
 * total energy  :   -82.9762108 Eh     change       -0.6143884E-03 Eh
 * total energy  :   -82.9763390 Eh     change       -0.1281977E-03 Eh
 * total energy  :   -82.9764106 Eh     change       -0.7158665E-04 Eh
 * total energy  :   -82.9764481 Eh     change       -0.3756926E-04 Eh
 * total energy  :   -82.9764836 Eh     change       -0.3544040E-04 Eh
 * total energy  :   -82.9765229 Eh     change       -0.3928794E-04 Eh
 * total energy  :   -82.9774713 Eh     change       -0.8914561E-05 Eh
 * total energy  :   -82.9774809 Eh     change       -0.9617220E-05 Eh
 * total energy  :   -82.9774962 Eh     change       -0.1524833E-04 Eh
 * total energy  :   -82.9775120 Eh     change       -0.1580084E-04 Eh
 * total energy  :   -82.9775238 Eh     change       -0.1180272E-04 Eh
 * total energy  :   -82.9775340 Eh     change       -0.1025062E-04 Eh
 * total energy  :   -82.9775425 Eh     change       -0.8455463E-05 Eh
 * total energy  :   -82.9775482 Eh     change       -0.5742119E-05 Eh
 * total energy  :   -82.9775531 Eh     change       -0.4843156E-05 Eh
   *** GEOMETRY OPTIMIZATION CONVERGED AFTER 56 ITERATIONS ***

 final structure:
================
42
 xtb: 6.5.1 (579679a)
C            6.75946164208757       -0.41514872032773        2.01225047213718
O            5.63989162651224        0.38526549601077        1.65799887031972
C            4.68728223088215       -0.22670777664093        0.91279469584857
O            4.80831505031002       -1.40109387893438        0.58518261053569
C            3.55873797663010        0.62093747991455        0.55350126025503
N            2.62357030437921       -0.03726613468968       -0.22201508955931
C            1.57689846892524        0.56602882196961       -0.64621505487864
C            0.59295297639144       -0.17869990291150       -1.53139936109021
C            0.48509574765427        0.47194723170463       -2.91437219869094
C            1.04107497178193       -1.63471460717643       -1.66810640162907
N           -0.73948477561507       -0.21796553161079       -0.87926012909013
C           -1.62862155421936        0.77634414018628       -0.84797499310887
O           -1.49941182680938        1.91060682690026       -1.26376053306026
C           -2.91036390722653        0.33603318371539       -0.18968235920289
N           -3.17867540459176       -0.82003940767524        0.34271531195045
N           -4.44918582447594       -0.71494317331407        0.77609164756890
C           -5.09786667832499       -1.84602553728979        1.40361639165233
C           -4.92079454011621        0.48335898757125        0.49842817779205
C           -6.25691381768537        1.03786743581482        0.76987709080965
O           -3.96870529990455        1.16250704245743       -0.10475877846604
N            1.32984712194600        1.89040058852460       -0.35362046517324
C            2.15336514161832        2.65839552928001        0.43006259335295
O            1.85296094910961        3.82430694129464        0.67254928185012
C            3.40825631977920        1.97974197450484        0.93767613814407
O            4.19637828547400        2.63904781155016        1.63796004604450
H            6.44835423124575       -1.26488402245234        2.62770050215545
H            7.44081582123536        0.21995129213429        2.57747417288366
H            7.26257797975269       -0.79456745686412        1.11735549242552
H            1.43978251281635        0.36655487829639       -3.42840268986267
H            0.24340859990692        1.52968816891739       -2.83968785681632
H           -0.28717837128196       -0.02599156570943       -3.49732986168166
H            2.02528704050424       -1.66921038931907       -2.13371909021812
H            1.10834561045555       -2.10090926756249       -0.68592111080137
H            0.33425170398425       -2.18812285130623       -2.28261200401468
H           -1.02117038797755       -1.10580797699546       -0.49795081638603
H           -5.71551537331700       -2.35194371268222        0.66239591345390
H           -5.71915261065712       -1.48635883002953        2.22024442729369
H           -4.32506207386081       -2.51715310100599        1.76991232050152
H           -6.29737042381767        2.07167375442937        0.43257199060307
H           -6.47437460817437        0.98635689546399        1.83736359490572
H           -7.01307573732924        0.45029335984407        0.24761773986582
H            0.48600890200278        2.32598000399697       -0.69654894862059

          :  Hamiltonian                  GFN1-xTB          :
         :: total energy             -82.977553059679 Eh    ::
         :: gradient norm              0.000485284128 Eh/a0 ::
         :: HOMO-LUMO gap              0.400696207911 eV    ::
         :: SCC energy               -83.765413684238 Eh    ::
         :: -> Gsolv                  -0.134309580415 Eh    ::
         :: repulsion energy           0.812888914198 Eh    ::

    * Orbital Energies and Occupations

         #    Occupation            Energy/Eh            Energy/eV
      -------------------------------------------------------------
         1        2.0000           -0.9347852             -25.4368
       ...           ...                  ...                  ...
        55        2.0000           -0.5054949             -13.7552
        56        2.0000           -0.5016152             -13.6496
        57        2.0000           -0.4967259             -13.5166
        58        2.0000           -0.4899456             -13.3321
        59        2.0000           -0.4828651             -13.1394
        60        2.0000           -0.4689591             -12.7610
        61        2.0000           -0.4673446             -12.7171
        62        2.0000           -0.4590702             -12.4919
        63        2.0000           -0.4431148             -12.0578
        64        2.0000           -0.4396443             -11.9633
        65        2.0000           -0.4211341             -11.4596
        66        2.0000           -0.3824102             -10.4059
        67        1.9991           -0.3704213             -10.0797 (HOMO)
        68        0.0009           -0.3556960              -9.6790 (LUMO)
        69                         -0.3422524              -9.3132
        70                         -0.2731020              -7.4315
        71                         -0.2462199              -6.7000
        72                         -0.2372410              -6.4557
        73                         -0.2000625              -5.4440
        74                         -0.1837213              -4.9993
        75                         -0.1710746              -4.6552
        76                         -0.1314607              -3.5772
        77                         -0.1246973              -3.3932
        78                         -0.1230341              -3.3479
       ...                                ...                  ...
       134                          0.7539789              20.5168
      -------------------------------------------------------------
                  HL-Gap            0.0147253 Eh            0.4007 eV

Wiberg/Mayer (AO) data.
largest (>0.10) Wiberg bond orders for each atom

     #   Z sym  total        # sym  WBO       # sym  WBO       # sym  WBO
 ---------------------------------------------------------------------------
     1   6 C    3.897 --    27 H    0.987    26 H    0.981    28 H    0.980
                             2 O    0.923
     2   8 O    2.163 --     3 C    1.052     1 C    0.923     4 O    0.111
     3   6 C    3.850 --     4 O    1.578     5 C    1.109     2 O    1.052
     4   8 O    1.852 --     3 C    1.578     2 O    0.111
     5   6 C    3.908 --    24 C    1.267     6 N    1.157     3 C    1.109
                            25 O    0.128
     6   7 N    3.033 --     7 C    1.629     5 C    1.157
     7   6 C    3.934 --     6 N    1.629    21 N    1.100     8 C    0.967
     8   6 C    3.913 --    10 C    1.002     9 C    0.989     7 C    0.967
                            11 N    0.889
     9   6 C    3.988 --     8 C    0.989    31 H    0.985    29 H    0.984
                            30 H    0.979
    10   6 C    3.991 --     8 C    1.002    34 H    0.986    33 H    0.982
                            32 H    0.981
    11   7 N    3.389 --    12 C    1.309    35 H    0.895     8 C    0.889
                            13 O    0.201
    12   6 C    3.925 --    13 O    1.588    11 N    1.309    14 C    0.953
    13   8 O    1.937 --    12 C    1.588    11 N    0.201
    14   6 C    3.834 --    15 N    1.603    20 O    1.065    12 C    0.953
    15   7 N    2.984 --    14 C    1.603    16 N    1.148
    16   7 N    3.631 --    18 C    1.423    15 N    1.148    17 C    0.911
    17   6 C    3.886 --    38 H    0.976    37 H    0.975    36 H    0.964
                            16 N    0.911
    18   6 C    3.843 --    16 N    1.423    20 O    1.157    19 C    1.041
    19   6 C    3.962 --    18 C    1.041    39 H    0.973    40 H    0.947
                            41 H    0.945
    20   8 O    2.388 --    18 C    1.157    14 C    1.065
    21   7 N    3.428 --    22 C    1.162     7 C    1.100    42 H    0.882
                            23 O    0.136
    22   6 C    3.879 --    23 O    1.581    21 N    1.162    24 C    0.966
    23   8 O    1.860 --    22 C    1.581    21 N    0.136
    24   6 C    3.941 --    25 O    1.526     5 C    1.267    22 C    0.966
    25   8 O    1.828 --    24 C    1.526     5 C    0.128
    26   1 H    1.013 --     1 C    0.981
    27   1 H    1.015 --     1 C    0.987
    28   1 H    1.014 --     1 C    0.980
    29   1 H    1.002 --     9 C    0.984
    30   1 H    1.009 --     9 C    0.979
    31   1 H    0.999 --     9 C    0.985
    32   1 H    1.010 --    10 C    0.981
    33   1 H    1.008 --    10 C    0.982
    34   1 H    1.000 --    10 C    0.986
    35   1 H    0.940 --    11 N    0.895
    36   1 H    0.989 --    17 C    0.964
    37   1 H    0.990 --    17 C    0.975
    38   1 H    0.992 --    17 C    0.976
    39   1 H    0.986 --    19 C    0.973
    40   1 H    0.986 --    19 C    0.947
    41   1 H    0.986 --    19 C    0.945
    42   1 H    0.949 --    21 N    0.882
 ---------------------------------------------------------------------------

           -------------------------------------------------
          | TOTAL ENERGY              -82.977553059679 Eh   |
          | GRADIENT NORM               0.000485284128 Eh/α |
          | HOMO-LUMO GAP               0.400696207911 eV   |
           -------------------------------------------------

 * finished run on 2023/06/21 at 17:23:00.685
