   * xtb version 6.5.1 (579679a) compiled by 'ehlert@majestix' on 2022-07-11
          program call               : /lustre/hpc/kemi/ree/PhD/git/ReactivityQM/dep/xtb-6.5.1/bin/xtb --gfn 1 /lustre/hpc/kemi/ree/PhD/git/ReactivityQM/calculations/R02deprot/reac01prodN19/conf17/R02deprot_reac01prodN19_conf17_gfn1.xyz --opt --vfukui --chrg 0 --uhf 0 --alpb DMSO

   ID    Z sym.   atoms
    1    6 C      1, 3, 5, 7-10, 12, 14, 17, 18, 21, 23, 24
    2    8 O      2, 4, 13, 19, 22, 25
    3    7 N      6, 11, 15, 16, 20
    4    1 H      26-42

      * Solvation model:               ALPB
        Solvent                        DMSO
        Solvent mass                       7.8130E+01 g/mol
          :  Hamiltonian                  GFN1-xTB          :
 * total energy  :   -82.9880073 Eh     change       -0.6281198E-11 Eh
 * total energy  :   -83.0020701 Eh     change       -0.1406277E-01 Eh
 * total energy  :   -83.0071018 Eh     change       -0.5031744E-02 Eh
 * total energy  :   -83.0082527 Eh     change       -0.1150870E-02 Eh
 * total energy  :   -83.0091026 Eh     change       -0.8499046E-03 Eh
 * total energy  :   -83.0094705 Eh     change       -0.3678864E-03 Eh
 * total energy  :   -83.0097096 Eh     change       -0.2391272E-03 Eh
 * total energy  :   -83.0098704 Eh     change       -0.1608281E-03 Eh
 * total energy  :   -83.0099748 Eh     change       -0.1043450E-03 Eh
 * total energy  :   -83.0100509 Eh     change       -0.7618924E-04 Eh
 * total energy  :   -83.0114516 Eh     change       -0.8599940E-05 Eh
 * total energy  :   -83.0114588 Eh     change       -0.7244453E-05 Eh
 * total energy  :   -83.0114652 Eh     change       -0.6344088E-05 Eh
 * total energy  :   -83.0114711 Eh     change       -0.5951481E-05 Eh
 * total energy  :   -83.0114770 Eh     change       -0.5908954E-05 Eh
 * total energy  :   -83.0114831 Eh     change       -0.6105554E-05 Eh
 * total energy  :   -83.0114895 Eh     change       -0.6387249E-05 Eh
 * total energy  :   -83.0114961 Eh     change       -0.6593818E-05 Eh
 * total energy  :   -83.0115004 Eh     change       -0.4245743E-05 Eh
   *** GEOMETRY OPTIMIZATION CONVERGED AFTER 94 ITERATIONS ***

 final structure:
================
42
 xtb: 6.5.1 (579679a)
C           -2.81019544110340        2.39246033270155       -2.65980531239587
O           -2.22559962282344        1.60791222743639       -1.61385836924132
C           -2.70328530264940        0.38496037755622       -1.45285551442080
O           -3.59373629812967       -0.07995338438232       -2.14232655228991
C           -2.06665818495269       -0.36634416264170       -0.34092434672696
N           -1.07393309139864        0.23492199119358        0.33693073629653
C           -0.53903868171279       -0.41642778132277        1.35021137710532
C            0.56960943730920        0.29137846938740        2.10758429521894
C            1.17014045689544       -0.61548882910091        3.18309740198677
C            0.00126523276692        1.58368490226099        2.71218819223033
N            1.58504264464552        0.62751915033506        1.09959756971919
C            2.73633453674344        1.26283893862160        1.37672078951000
O            3.09267080109249        1.64294667801195        2.48177480490920
C            3.58823425999769        1.45302447053172        0.17204459796590
N            4.75012437568160        2.02487336928623        0.10585977752441
N            5.15924316151810        1.93717450849166       -1.19217839163787
C            4.22252714205042        1.31591217054673       -1.83760078581164
C            4.18810013499592        0.96535725510020       -3.27398564694025
O            3.19924796099886        0.98198001202063       -1.03332061416792
N           -0.90615486638571       -1.63467923842986        1.75163480369266
C           -1.86357105872370       -2.27069923960298        1.09710763986495
O           -2.13426973118865       -3.48936092184730        1.57596059429846
C           -3.09154879207006       -4.36720975768704        0.98819749810706
C           -2.50649916814409       -1.64507372283148       -0.00657575939292
O           -3.48823556445984       -2.27127240424856       -0.67069958736745
H           -3.88245059584847        2.50565186686793       -2.48551937481179
H           -2.64947776573241        1.90560692893818       -3.62385348856765
H           -2.31519447871330        3.36099130807886       -2.63443592635012
H            1.59755733480569       -1.50579714107785        2.72405869266766
H            1.94530372418488       -0.08775645528989        3.73556890819868
H            0.38538895653779       -0.92049573811726        3.87371930183666
H            0.78352897956679        2.13549396325375        3.23066575094329
H           -0.41380952756848        2.20299701861396        1.91815263019744
H           -0.78907616476044        1.33706716500325        3.41939578307402
H            1.36501910408939        0.40929350725077        0.14047504505534
H            5.10825800095724        1.29013836215548       -3.75362063036302
H            4.07446673258245       -0.11221605311683       -3.39000044981182
H            3.33634028672054        1.44663081124957       -3.75399450450371
H           -2.83753376377994       -4.58576477605407       -0.05132426219520
H           -3.04773628386529       -5.28557208752891        1.57533921970379
H           -4.09764858720163       -3.94555999071577        1.04321505541653
H           -3.82275229292328       -1.70114310089452       -1.40358094852806

          :  Hamiltonian                  GFN1-xTB          :
         :: total energy             -83.011500368894 Eh    ::
         :: gradient norm              0.000178247665 Eh/a0 ::
         :: HOMO-LUMO gap              2.779211516835 eV    ::
         :: SCC energy               -83.784558973590 Eh    ::
         :: -> Gsolv                  -0.051263207356 Eh    ::
         :: repulsion energy           0.797781192547 Eh    ::

    * Orbital Energies and Occupations

         #    Occupation            Energy/Eh            Energy/eV
      -------------------------------------------------------------
         1        2.0000           -0.8645067             -23.5244
       ...           ...                  ...                  ...
        55        2.0000           -0.4998728             -13.6022
        56        2.0000           -0.4976729             -13.5424
        57        2.0000           -0.4964052             -13.5079
        58        2.0000           -0.4822172             -13.1218
        59        2.0000           -0.4791929             -13.0395
        60        2.0000           -0.4727982             -12.8655
        61        2.0000           -0.4703327             -12.7984
        62        2.0000           -0.4603297             -12.5262
        63        2.0000           -0.4579868             -12.4625
        64        2.0000           -0.4495766             -12.2336
        65        2.0000           -0.4445854             -12.0978
        66        2.0000           -0.4323387             -11.7645
        67        2.0000           -0.4273192             -11.6279 (HOMO)
        68                         -0.3251851              -8.8487 (LUMO)
        69                         -0.3078428              -8.3768
        70                         -0.2825152              -7.6876
        71                         -0.2560654              -6.9679
        72                         -0.2405328              -6.5452
        73                         -0.1960122              -5.3338
        74                         -0.1558565              -4.2411
        75                         -0.1425044              -3.8777
        76                         -0.1370307              -3.7288
        77                         -0.1337248              -3.6388
        78                         -0.1196450              -3.2557
       ...                                ...                  ...
       134                          0.7281312              19.8135
      -------------------------------------------------------------
                  HL-Gap            0.1021341 Eh            2.7792 eV

Wiberg/Mayer (AO) data.
largest (>0.10) Wiberg bond orders for each atom

     #   Z sym  total        # sym  WBO       # sym  WBO       # sym  WBO
 ---------------------------------------------------------------------------
     1   6 C    3.865 --    28 H    0.986    26 H    0.979    27 H    0.979
                             2 O    0.890
     2   8 O    2.223 --     3 C    1.143     1 C    0.890     4 O    0.132
     3   6 C    3.846 --     4 O    1.612     2 O    1.143     5 C    1.008
     4   8 O    1.951 --     3 C    1.612     2 O    0.132
     5   6 C    3.970 --    24 C    1.379     6 N    1.304     3 C    1.008
     6   7 N    3.028 --     7 C    1.445     5 C    1.304
     7   6 C    3.946 --     6 N    1.445    20 N    1.342     8 C    0.977
     8   6 C    3.932 --     9 C    0.997    10 C    0.980     7 C    0.977
                            11 N    0.915
     9   6 C    3.991 --     8 C    0.997    29 H    0.985    31 H    0.985
                            30 H    0.982
    10   6 C    3.990 --    34 H    0.986    33 H    0.984    32 H    0.982
                             8 C    0.980
    11   7 N    3.362 --    12 C    1.275     8 C    0.915    35 H    0.892
                            13 O    0.181
    12   6 C    3.919 --    13 O    1.575    11 N    1.275    14 C    0.988
    13   8 O    1.893 --    12 C    1.575    11 N    0.181
    14   6 C    3.870 --    15 N    1.626    19 O    1.047    12 C    0.988
    15   7 N    2.998 --    14 C    1.626    16 N    1.195
    16   7 N    2.981 --    17 C    1.614    15 N    1.195
    17   6 C    3.869 --    16 N    1.614    19 O    1.071    18 C    1.031
    18   6 C    3.987 --    17 C    1.031    36 H    0.983    37 H    0.964
                            38 H    0.963
    19   8 O    2.314 --    17 C    1.071    14 C    1.047
    20   7 N    3.020 --    21 C    1.391     7 C    1.342
    21   6 C    3.907 --    20 N    1.391    24 C    1.216    22 O    1.090
    22   8 O    2.188 --    21 C    1.090    23 C    0.900
    23   6 C    3.872 --    40 H    0.984    39 H    0.980    41 H    0.979
                            22 O    0.900
    24   6 C    3.926 --     5 C    1.379    21 C    1.216    25 O    1.099
    25   8 O    2.071 --    24 C    1.099    42 H    0.767
    26   1 H    1.006 --     1 C    0.979
    27   1 H    1.005 --     1 C    0.979
    28   1 H    1.010 --     1 C    0.986
    29   1 H    1.008 --     9 C    0.985
    30   1 H    1.011 --     9 C    0.982
    31   1 H    1.010 --     9 C    0.985
    32   1 H    1.009 --    10 C    0.982
    33   1 H    1.010 --    10 C    0.984
    34   1 H    1.002 --    10 C    0.986
    35   1 H    0.949 --    11 N    0.892
    36   1 H    0.998 --    18 C    0.983
    37   1 H    0.997 --    18 C    0.964
    38   1 H    0.997 --    18 C    0.963
    39   1 H    1.011 --    23 C    0.980
    40   1 H    1.012 --    23 C    0.984
    41   1 H    1.012 --    23 C    0.979
    42   1 H    0.847 --    25 O    0.767
 ---------------------------------------------------------------------------

           -------------------------------------------------
          | TOTAL ENERGY              -83.011500368894 Eh   |
          | GRADIENT NORM               0.000178247665 Eh/α |
          | HOMO-LUMO GAP               2.779211516835 eV   |
           -------------------------------------------------

 * finished run on 2023/06/20 at 18:31:23.403
