   * xtb version 6.5.1 (579679a) compiled by 'ehlert@majestix' on 2022-07-11
          program call               : /lustre/hpc/kemi/ree/PhD/git/ReactivityQM/dep/xtb-6.5.1/bin/xtb --gfn 1 /lustre/hpc/kemi/ree/PhD/git/ReactivityQM/calculations/R01/reac02prodN02/conf09/R01_reac02prodN02_conf09_gfn1.xyz --opt --vfukui --chrg 1 --uhf 0 --alpb DMSO

   ID    Z sym.   atoms
    1    6 C      1, 3-6, 8, 9, 12, 13, 15
    2    7 N      2, 7, 17
    3    8 O      10, 11, 14, 16
    4    1 H      18-33

      * Solvation model:               ALPB
        Solvent                        DMSO
        Solvent mass                       7.8130E+01 g/mol
          :  Hamiltonian                  GFN1-xTB          :
 * total energy  :   -57.8608999 Eh     change       -0.4305889E-11 Eh
 * total energy  :   -57.8699063 Eh     change       -0.9006403E-02 Eh
 * total energy  :   -57.8723654 Eh     change       -0.2459149E-02 Eh
 * total energy  :   -57.8727021 Eh     change       -0.3367382E-03 Eh
 * total energy  :   -57.8728580 Eh     change       -0.1558888E-03 Eh
 * total energy  :   -57.8729001 Eh     change       -0.4210700E-04 Eh
 * total energy  :   -57.8729360 Eh     change       -0.3583643E-04 Eh
 * total energy  :   -57.8729624 Eh     change       -0.2647222E-04 Eh
 * total energy  :   -57.8729734 Eh     change       -0.1093900E-04 Eh
 * total energy  :   -57.8729849 Eh     change       -0.1148224E-04 Eh
 * total energy  :   -57.8729891 Eh     change       -0.4198541E-05 Eh
   *** GEOMETRY OPTIMIZATION CONVERGED AFTER 11 ITERATIONS ***

 final structure:
================
33
 xtb: 6.5.1 (579679a)
C           -2.40728372391790       -1.35768133923991       -1.00578292016377
N           -2.78395551589395       -0.15408343541249       -0.22128371016583
C           -1.67876074228347        0.86385358448735       -0.01787175267147
C           -1.29925277966502        1.45896912991903       -1.37020744567368
C           -2.24626856806114        1.93619374004433        0.91269091443280
C           -0.49427288130514        0.15977944388268        0.60589660972709
N            0.62010372993061        0.12776596777725       -0.03408305224072
C            1.70206338530873       -0.49555935959307        0.53900012980815
C            2.96307664203648       -0.51866607591517       -0.24057183203903
O            3.97661381424015       -1.05501335759885        0.16934716029692
O            2.87951273321095        0.08862510207403       -1.41189239965575
C            4.06174695507778        0.09249271881793       -2.22409736444946
C            1.63088676361069       -1.08559288008525        1.77806418556650
O            2.64841222733846       -1.69867951107941        2.36845215966979
C            0.36689823431707       -1.06043003001610        2.52964718010140
O            0.16465031032889       -1.54171036592374        3.62448172698239
N           -0.64638859233946       -0.40261749991212        1.84161836885672
H           -1.56211826554552       -1.83836649078069       -0.52008446160563
H           -3.26924739409950       -2.01947395310751       -1.01688959558411
H           -2.15091964633491       -1.05588225949886       -2.01703882306149
H           -3.12625111927450       -0.45588232620555        0.68728287698792
H           -3.55912905309398        0.30994611680762       -0.68843660002068
H           -0.82028974966503        0.71389217204141       -2.00260282918382
H           -0.59358616774932        2.27268526111657       -1.20747226759457
H           -2.18325024990596        1.84931371567155       -1.87009156345620
H           -2.58963227020692        1.49782693253531        1.84751386664761
H           -1.47154136678419        2.67023940851606        1.13098487841596
H           -3.08358873497672        2.43821422845476        0.43137308715765
H            4.89428869385645        0.53081393347763       -1.66920651387976
H            3.82963991630688        0.69116034756855       -3.10238922304258
H            4.31377380935070       -0.92992904581257       -2.51395342727332
H            3.44812984524611       -1.67323608898565        1.78858366340822
H           -1.53405823905818       -0.35896778402497        2.31436197370331

          :  Hamiltonian                  GFN1-xTB          :
         :: total energy             -57.872989069311 Eh    ::
         :: gradient norm              0.000572579637 Eh/a0 ::
         :: HOMO-LUMO gap              2.923948124124 eV    ::
         :: SCC energy               -58.452503020610 Eh    ::
         :: -> Gsolv                  -0.129089502246 Eh    ::
         :: repulsion energy           0.598789440679 Eh    ::

    * Orbital Energies and Occupations

         #    Occupation            Energy/Eh            Energy/eV
      -------------------------------------------------------------
         1        2.0000           -0.8917747             -24.2664
       ...           ...                  ...                  ...
        35        2.0000           -0.5622984             -15.3009
        36        2.0000           -0.5533914             -15.0585
        37        2.0000           -0.5476390             -14.9020
        38        2.0000           -0.5439046             -14.8004
        39        2.0000           -0.5358166             -14.5803
        40        2.0000           -0.5288114             -14.3897
        41        2.0000           -0.5224091             -14.2155
        42        2.0000           -0.5095043             -13.8643
        43        2.0000           -0.5034653             -13.7000
        44        2.0000           -0.5029731             -13.6866
        45        2.0000           -0.4802989             -13.0696
        46        2.0000           -0.4642001             -12.6315
        47        2.0000           -0.4483008             -12.1989 (HOMO)
        48                         -0.3408476              -9.2749 (LUMO)
        49                         -0.3078329              -8.3766
        50                         -0.2560214              -6.9667
        51                         -0.1897534              -5.1635
        52                         -0.1776061              -4.8329
        53                         -0.1765054              -4.8030
        54                         -0.1650467              -4.4911
        55                         -0.1520664              -4.1379
        56                         -0.1428532              -3.8872
        57                         -0.1378344              -3.7507
        58                         -0.1190937              -3.2407
       ...                                ...                  ...
       100                          0.7180234              19.5384
      -------------------------------------------------------------
                  HL-Gap            0.1074531 Eh            2.9239 eV

Wiberg/Mayer (AO) data.
largest (>0.10) Wiberg bond orders for each atom

     #   Z sym  total        # sym  WBO       # sym  WBO       # sym  WBO
 ---------------------------------------------------------------------------
     1   6 C    3.892 --    18 H    0.984    20 H    0.982    19 H    0.980
                             2 N    0.916
     2   7 N    3.593 --     1 C    0.916    21 H    0.892    22 H    0.887
                             3 C    0.868
     3   6 C    3.897 --     4 C    1.004     5 C    0.992     6 C    0.981
                             2 N    0.868
     4   6 C    3.983 --     3 C    1.004    25 H    0.982    23 H    0.978
                            24 H    0.977
     5   6 C    3.982 --     3 C    0.992    28 H    0.979    26 H    0.979
                            27 H    0.977
     6   6 C    3.942 --     7 N    1.606    17 N    1.163     3 C    0.981
     7   7 N    3.034 --     6 C    1.606     8 C    1.168
     8   6 C    3.960 --    13 C    1.486     7 N    1.168     9 C    1.016
     9   6 C    3.852 --    10 O    1.610    11 O    1.143     8 C    1.016
    10   8 O    1.950 --     9 C    1.610    11 O    0.132
    11   8 O    2.220 --     9 C    1.143    12 C    0.886    10 O    0.132
    12   6 C    3.860 --    30 H    0.986    29 H    0.979    31 H    0.979
                            11 O    0.886
    13   6 C    3.922 --     8 C    1.486    14 O    1.147    15 C    1.045
    14   8 O    2.112 --    13 C    1.147    32 H    0.767
    15   6 C    3.904 --    16 O    1.628    17 N    1.102    13 C    1.045
    16   8 O    1.926 --    15 C    1.628    17 N    0.135
    17   7 N    3.448 --     6 C    1.163    15 C    1.102    33 H    0.883
                            16 O    0.135
    18   1 H    0.996 --     1 C    0.984
    19   1 H    0.988 --     1 C    0.980
    20   1 H    0.993 --     1 C    0.982
    21   1 H    0.919 --     2 N    0.892
    22   1 H    0.914 --     2 N    0.887
    23   1 H    1.007 --     4 C    0.978
    24   1 H    1.000 --     4 C    0.977
    25   1 H    0.993 --     4 C    0.982
    26   1 H    0.993 --     5 C    0.979
    27   1 H    0.994 --     5 C    0.977
    28   1 H    0.992 --     5 C    0.979
    29   1 H    1.005 --    12 C    0.979
    30   1 H    1.009 --    12 C    0.986
    31   1 H    1.004 --    12 C    0.979
    32   1 H    0.845 --    14 O    0.767
    33   1 H    0.924 --    17 N    0.883
 ---------------------------------------------------------------------------

           -------------------------------------------------
          | TOTAL ENERGY              -57.872989069311 Eh   |
          | GRADIENT NORM               0.000572579637 Eh/α |
          | HOMO-LUMO GAP               2.923948124124 eV   |
           -------------------------------------------------

 * finished run on 2023/06/20 at 15:03:48.827
