   * xtb version 6.5.1 (579679a) compiled by 'ehlert@majestix' on 2022-07-11
          program call               : /lustre/hpc/kemi/ree/PhD/git/ReactivityQM/dep/xtb-6.5.1/bin/xtb --gfn 1 /lustre/hpc/kemi/ree/PhD/git/ReactivityQM/calculations/RaltegravirCLI/reac02prodE02/conf16/RaltegravirCLI_reac02prodE02_conf16_gfn1.xyz --opt --vfukui --chrg -1 --uhf 0 --alpb DMSO

   ID    Z sym.   atoms
    1    6 C      1, 3, 5, 7, 8, 11-15, 17, 18, 20-24
    2    7 N      2, 10, 19, 25
    3    8 O      4, 6, 9
    4    9 F      16
    5    1 H      26-47

      * Solvation model:               ALPB
        Solvent                        DMSO
        Solvent mass                       7.8130E+01 g/mol
          :  Hamiltonian                  GFN1-xTB          :
 * total energy  :   -80.2029351 Eh     change       -0.4547474E-11 Eh
 * total energy  :   -80.2113277 Eh     change       -0.8392602E-02 Eh
 * total energy  :   -80.2135399 Eh     change       -0.2212214E-02 Eh
 * total energy  :   -80.2140199 Eh     change       -0.4799921E-03 Eh
 * total energy  :   -80.2144770 Eh     change       -0.4571198E-03 Eh
 * total energy  :   -80.2147330 Eh     change       -0.2559873E-03 Eh
 * total energy  :   -80.2150049 Eh     change       -0.2719332E-03 Eh
 * total energy  :   -80.2152694 Eh     change       -0.2644326E-03 Eh
 * total energy  :   -80.2154630 Eh     change       -0.1936114E-03 Eh
 * total energy  :   -80.2156031 Eh     change       -0.1400911E-03 Eh
 * total energy  :   -80.2200343 Eh     change       -0.1230471E-05 Eh
 * total energy  :   -80.2200425 Eh     change       -0.8199540E-05 Eh
 * total energy  :   -80.2200560 Eh     change       -0.1345163E-04 Eh
 * total energy  :   -80.2200635 Eh     change       -0.7517867E-05 Eh
 * total energy  :   -80.2200703 Eh     change       -0.6826836E-05 Eh
 * total energy  :   -80.2200762 Eh     change       -0.5880949E-05 Eh
 * total energy  :   -80.2200814 Eh     change       -0.5197366E-05 Eh
 * total energy  :   -80.2200879 Eh     change       -0.6505061E-05 Eh
 * total energy  :   -80.2200908 Eh     change       -0.2934683E-05 Eh
   *** GEOMETRY OPTIMIZATION CONVERGED AFTER 44 ITERATIONS ***

 final structure:
================
47
 xtb: 6.5.1 (579679a)
C           -3.22733057206703       -2.44115666244068        1.01800160350293
N           -2.29474208007712       -1.35196290030803        0.74316590648344
C           -1.16384716233400       -1.29771209555449        1.54446165554484
O           -1.09210864050670       -1.95601607586459        2.60928424970898
C           -0.10655625656699       -0.47528424505601        1.07778497579911
O            1.04732290338808       -0.42910223530659        1.88812878423117
C           -0.10903409872432       -0.00709879347063       -0.23312831795460
C            1.11727878948986        0.59350907434945       -0.85841436253589
O            1.40831256642252        0.46115787605278       -2.04639846672860
N            1.86547636633378        1.36458688836426       -0.02849000538072
C            3.12987116037493        1.92629443679141       -0.47808216149833
C            4.25568338121386        0.93127526551140       -0.28906432690197
C            5.02706369637532        0.95224488497003        0.87027964318600
C            6.04532696117936        0.02772561473419        1.06090049039259
C            6.26689601125670       -0.91296418746722        0.07231773970967
F            7.25382544656615       -1.81195321252407        0.24613840503684
C            5.52006705522277       -0.96492169890873       -1.09088152899477
C            4.50699198543445       -0.03275538826933       -1.26376148843191
N           -1.15435579764184       -0.09939403620316       -1.03480398329545
C           -2.41945399011036       -0.55165185657987       -0.49248243182565
C           -3.05319674327515       -1.39182579156857       -1.62234854375541
C           -3.28811922990812        0.74416452085234       -0.22299515690529
C           -4.73233522208671        0.45154027728360        0.19780899487681
C           -2.63593239035306        1.61949744055384        0.86206908723712
N           -3.33089359746478        1.47691649138208       -1.49076479767641
H           -3.17702612478610       -2.67558730865832        2.08360125532295
H           -4.25050254125879       -2.15586592747471        0.77823707508962
H           -2.97177401453020       -3.34375496684295        0.44998276549670
H            0.82466245903143       -0.93680952130514        2.68683134856049
H            1.71938910288963        1.32644057695175        0.96861073300845
H            3.32369217317212        2.83547112099092        0.09638548522118
H            3.03036908892264        2.18798674584328       -1.53689421654235
H            4.83919906013722        1.70037671407641        1.63154593359947
H            6.65601868647725        0.03761288831063        1.95379434608417
H            5.73373086161880       -1.71463144648159       -1.84165829705008
H            3.90548709581077       -0.05216801487022       -2.16664485995162
H           -2.40431826966110       -2.23812723505940       -1.84785732982520
H           -4.04511988580692       -1.76305606232541       -1.37652127074221
H           -3.12852006833330       -0.76511439021299       -2.51042876983150
H           -5.27668384136388        1.39204974409749        0.29542230589969
H           -4.76175072723746       -0.05417582747995        1.16195889124848
H           -5.24792129856069       -0.15642409365841       -0.54439900076512
H           -3.23119116225914        2.51926547739398        1.01761180808995
H           -1.63322990595981        1.91992793207045        0.55969882974041
H           -2.57403827046464        1.07638965772123        1.80527403730298
H           -2.37067804846714        1.67213853063690       -1.77068902388899
H           -3.79600791151668        2.36294081495263       -1.34814900989102

          :  Hamiltonian                  GFN1-xTB          :
         :: total energy             -80.220090813706 Eh    ::
         :: gradient norm              0.000353614249 Eh/a0 ::
         :: HOMO-LUMO gap              1.198235517319 eV    ::
         :: SCC energy               -81.074895534064 Eh    ::
         :: -> Gsolv                  -0.101556679161 Eh    ::
         :: repulsion energy           0.887095475748 Eh    ::

    * Orbital Energies and Occupations

         #    Occupation            Energy/Eh            Energy/eV
      -------------------------------------------------------------
         1        2.0000           -0.8573232             -23.3290
       ...           ...                  ...                  ...
        56        2.0000           -0.4616912             -12.5633
        57        2.0000           -0.4535576             -12.3419
        58        2.0000           -0.4457985             -12.1308
        59        2.0000           -0.4431532             -12.0588
        60        2.0000           -0.4315119             -11.7420
        61        2.0000           -0.4188749             -11.3982
        62        2.0000           -0.4175435             -11.3619
        63        2.0000           -0.4061477             -11.0518
        64        2.0000           -0.3894726             -10.5981
        65        2.0000           -0.3855464             -10.4913
        66        2.0000           -0.3784334             -10.2977
        67        2.0000           -0.3606651              -9.8142
        68        2.0000           -0.3091347              -8.4120 (HOMO)
        69                         -0.2651003              -7.2137 (LUMO)
        70                         -0.2584313              -7.0323
        71                         -0.2431354              -6.6161
        72                         -0.1816018              -4.9416
        73                         -0.1371393              -3.7317
        74                         -0.1183829              -3.2214
        75                         -0.1103057              -3.0016
        76                         -0.1091839              -2.9710
        77                         -0.1041518              -2.8341
        78                         -0.0972827              -2.6472
        79                         -0.0952535              -2.5920
       ...                                ...                  ...
       144                          0.7209948              19.6193
      -------------------------------------------------------------
                  HL-Gap            0.0440343 Eh            1.1982 eV

Wiberg/Mayer (AO) data.
largest (>0.10) Wiberg bond orders for each atom

     #   Z sym  total        # sym  WBO       # sym  WBO       # sym  WBO
 ---------------------------------------------------------------------------
     1   6 C    3.966 --    27 H    0.984    28 H    0.982    26 H    0.978
                             2 N    0.961
     2   7 N    3.268 --     3 C    1.119     1 C    0.961    20 C    0.915
                             4 O    0.110
     3   6 C    3.921 --     4 O    1.431     5 C    1.206     2 N    1.119
     4   8 O    1.783 --     3 C    1.431     2 N    0.110
     5   6 C    3.839 --     7 C    1.334     3 C    1.206     6 O    0.951
                            19 N    0.164
     6   8 O    1.937 --     5 C    0.951    29 H    0.844
     7   6 C    3.974 --    19 N    1.445     5 C    1.334     8 C    0.982
     8   6 C    3.877 --     9 O    1.570    10 N    1.234     7 C    0.982
     9   8 O    1.858 --     8 C    1.570    10 N    0.152
    10   7 N    3.314 --     8 C    1.234    11 C    0.951    30 H    0.896
                             9 O    0.152
    11   6 C    3.961 --    12 C    0.994    31 H    0.978    32 H    0.972
                            10 N    0.951
    12   6 C    3.988 --    13 C    1.421    18 C    1.415    11 C    0.994
    13   6 C    3.994 --    14 C    1.440    12 C    1.421    33 H    0.972
                            17 C    0.110
    14   6 C    3.992 --    13 C    1.440    15 C    1.404    34 H    0.970
                            18 C    0.111
    15   6 C    3.857 --    14 C    1.404    17 C    1.400    16 F    0.918
    16   9 F    1.044 --    15 C    0.918
    17   6 C    3.992 --    18 C    1.445    15 C    1.400    35 H    0.970
                            13 C    0.110
    18   6 C    3.993 --    17 C    1.445    12 C    1.415    36 H    0.969
                            14 C    0.111
    19   7 N    2.932 --     7 C    1.445    20 C    1.007     5 C    0.164
    20   6 C    3.939 --    19 N    1.007    21 C    0.988    22 C    0.930
                             2 N    0.915
    21   6 C    3.996 --    20 C    0.988    37 H    0.985    39 H    0.983
                            38 H    0.982
    22   6 C    3.961 --    23 C    1.001    24 C    0.992    25 N    0.983
                            20 C    0.930
    23   6 C    3.996 --    22 C    1.001    40 H    0.983    41 H    0.983
                            42 H    0.982
    24   6 C    3.996 --    22 C    0.992    43 H    0.986    45 H    0.984
                            44 H    0.983
    25   7 N    2.969 --    22 C    0.983    47 H    0.954    46 H    0.941
    26   1 H    1.023 --     1 C    0.978
    27   1 H    1.016 --     1 C    0.984
    28   1 H    1.008 --     1 C    0.982
    29   1 H    0.889 --     6 O    0.844
    30   1 H    0.960 --    10 N    0.896
    31   1 H    1.006 --    11 C    0.978
    32   1 H    1.014 --    11 C    0.972
    33   1 H    1.000 --    13 C    0.972
    34   1 H    0.999 --    14 C    0.970
    35   1 H    1.000 --    17 C    0.970
    36   1 H    1.015 --    18 C    0.969
    37   1 H    1.015 --    21 C    0.985
    38   1 H    1.008 --    21 C    0.982
    39   1 H    1.027 --    21 C    0.983
    40   1 H    1.005 --    23 C    0.983
    41   1 H    1.007 --    23 C    0.983
    42   1 H    1.011 --    23 C    0.982
    43   1 H    1.007 --    24 C    0.986
    44   1 H    1.016 --    24 C    0.983
    45   1 H    1.012 --    24 C    0.984
    46   1 H    0.989 --    25 N    0.941
    47   1 H    0.970 --    25 N    0.954
 ---------------------------------------------------------------------------

           -------------------------------------------------
          | TOTAL ENERGY              -80.220090813706 Eh   |
          | GRADIENT NORM               0.000353614249 Eh/α |
          | HOMO-LUMO GAP               1.198235517319 eV   |
           -------------------------------------------------

 * finished run on 2023/06/20 at 14:56:43.848
