   * xtb version 6.5.1 (579679a) compiled by 'ehlert@majestix' on 2022-07-11
          program call               : /lustre/hpc/kemi/ree/PhD/git/ReactivityQM/dep/xtb-6.5.1/bin/xtb --gfn 1 /lustre/hpc/kemi/ree/PhD/git/ReactivityQM/calculations/R02methylcation/reac01prodN03/conf18/R02methylcation_reac01prodN03_conf18_gfn1.xyz --opt --vfukui --chrg 0 --uhf 0 --alpb DMSO

   ID    Z sym.   atoms
    1    6 C      1, 3, 5, 6, 8-11, 13, 15, 18, 19, 22, 24
    2    8 O      2, 4, 14, 20, 23, 25
    3    7 N      7, 12, 16, 17, 21
    4    1 H      26-42

      * Solvation model:               ALPB
        Solvent                        DMSO
        Solvent mass                       7.8130E+01 g/mol
          :  Hamiltonian                  GFN1-xTB          :
 * total energy  :   -82.9860720 Eh     change       -0.6338041E-11 Eh
 * total energy  :   -82.9965641 Eh     change       -0.1049209E-01 Eh
 * total energy  :   -83.0004255 Eh     change       -0.3861397E-02 Eh
 * total energy  :   -83.0012173 Eh     change       -0.7917872E-03 Eh
 * total energy  :   -83.0017689 Eh     change       -0.5516282E-03 Eh
 * total energy  :   -83.0020407 Eh     change       -0.2718285E-03 Eh
 * total energy  :   -83.0022810 Eh     change       -0.2402350E-03 Eh
 * total energy  :   -83.0024801 Eh     change       -0.1991223E-03 Eh
 * total energy  :   -83.0026558 Eh     change       -0.1756930E-03 Eh
 * total energy  :   -83.0028100 Eh     change       -0.1542072E-03 Eh
 * total energy  :   -83.0039991 Eh     change       -0.1428858E-04 Eh
 * total energy  :   -83.0040212 Eh     change       -0.2205353E-04 Eh
 * total energy  :   -83.0040388 Eh     change       -0.1765992E-04 Eh
 * total energy  :   -83.0040572 Eh     change       -0.1840065E-04 Eh
 * total energy  :   -83.0040670 Eh     change       -0.9772983E-05 Eh
 * total energy  :   -83.0040730 Eh     change       -0.5968838E-05 Eh
 * total energy  :   -83.0040798 Eh     change       -0.6830489E-05 Eh
 * total energy  :   -83.0040840 Eh     change       -0.4197858E-05 Eh
 * total energy  :   -83.0040866 Eh     change       -0.2533633E-05 Eh
   *** GEOMETRY OPTIMIZATION CONVERGED AFTER 44 ITERATIONS ***

 final structure:
================
42
 xtb: 6.5.1 (579679a)
C            5.87851510347607        0.11988660768796       -0.76215067894055
O            4.78331518480416        0.78438328281616       -0.11125459216449
C            3.58159095154232        0.28302479489593       -0.29574015574921
O            3.32231265377008       -0.67650976099804       -0.97195687004578
C            2.48940078850414        1.10844579043382        0.44703754461259
C            3.06196990659168        1.86462596891112        1.64547052750632
N            1.51581821443180        0.14060196773210        0.89480600541126
C            0.54554949112712       -0.19034826277892        0.15123022410716
C           -0.35863256091555       -1.33528454445514        0.55370735901773
C            0.06123101767860       -2.55547053907836       -0.28044887936080
C           -0.22887592825227       -1.61624311667583        2.05312283414935
N           -1.73549658131940       -0.94158509878509        0.23811956544970
C           -2.79200856779943       -1.77123332785005        0.40595389310419
O           -2.72550660831465       -2.95793568043138        0.67213016637040
C           -4.08890984248692       -1.07580933080859        0.21326039337258
N           -5.28099311090669       -1.57942785634600        0.29359651445061
N           -6.15561963739606       -0.55919841656011        0.06915612867908
C           -5.44414969722621        0.50584190517044       -0.13287761590163
C           -5.91952315846797        1.87634729262607       -0.42039352462107
O           -4.12789328109644        0.24801448882304       -0.05509549289604
N            0.27316171074885        0.39113794789079       -1.08160607141931
C            0.89447481499713        1.50776467706406       -1.55384497020260
O            0.60142337383211        2.02437241086707       -2.60747635678713
C            1.98075972733200        2.06018825857026       -0.62224563702606
O            2.42592710455041        3.16763014384646       -0.76989985122748
H            5.78322388695809        0.22802230290172       -1.84406988577814
H            5.87880110649602       -0.93881251340997       -0.49735014916742
H            6.78469119882867        0.60447340668074       -0.40696520089168
H            3.55474027179447        1.16746520688074        2.31882447959446
H            2.25015499975192        2.36001894484672        2.17476918683434
H            3.77732463720028        2.61131225902291        1.30649093160527
H            1.13062090144213       -2.72049218750431       -0.15312528591998
H           -0.47870748215113       -3.44176144406034        0.04623477624807
H           -0.14674632401140       -2.37791033947534       -1.33386883548090
H            0.80538051126248       -1.86187609399705        2.28808410395812
H           -0.52037231023732       -0.73517671376363        2.62183453081222
H           -0.86906266063602       -2.45181969472743        2.33010030671415
H           -1.92786268682904        0.04323904762623        0.15586292906870
H           -5.53349741785334        2.56755142520367        0.32820746959846
H           -7.00646292208085        1.89758999376142       -0.41287810316678
H           -5.55363323510410        2.19853022342478       -1.39513691433615
H           -0.48643354403196        0.02642657402525       -1.63648179958114

          :  Hamiltonian                  GFN1-xTB          :
         :: total energy             -83.004086553435 Eh    ::
         :: gradient norm              0.000306703072 Eh/a0 ::
         :: HOMO-LUMO gap              2.394297673371 eV    ::
         :: SCC energy               -83.792493345395 Eh    ::
         :: -> Gsolv                  -0.055460005121 Eh    ::
         :: repulsion energy           0.815026209985 Eh    ::

    * Orbital Energies and Occupations

         #    Occupation            Energy/Eh            Energy/eV
      -------------------------------------------------------------
         1        2.0000           -0.8663970             -23.5759
       ...           ...                  ...                  ...
        55        2.0000           -0.5114286             -13.9167
        56        2.0000           -0.5067871             -13.7904
        57        2.0000           -0.5058543             -13.7650
        58        2.0000           -0.5015993             -13.6492
        59        2.0000           -0.4915404             -13.3755
        60        2.0000           -0.4809821             -13.0882
        61        2.0000           -0.4710225             -12.8172
        62        2.0000           -0.4647539             -12.6466
        63        2.0000           -0.4617145             -12.5639
        64        2.0000           -0.4588707             -12.4865
        65        2.0000           -0.4529241             -12.3247
        66        2.0000           -0.4501259             -12.2486
        67        2.0000           -0.4402432             -11.9796 (HOMO)
        68                         -0.3522544              -9.5853 (LUMO)
        69                         -0.3127591              -8.5106
        70                         -0.2967902              -8.0761
        71                         -0.2697208              -7.3395
        72                         -0.2573724              -7.0035
        73                         -0.2244818              -6.1085
        74                         -0.2004726              -5.4551
        75                         -0.1466110              -3.9895
        76                         -0.1421919              -3.8692
        77                         -0.1278746              -3.4796
        78                         -0.1249488              -3.4000
       ...                                ...                  ...
       134                          0.7598775              20.6773
      -------------------------------------------------------------
                  HL-Gap            0.0879888 Eh            2.3943 eV

Wiberg/Mayer (AO) data.
largest (>0.10) Wiberg bond orders for each atom

     #   Z sym  total        # sym  WBO       # sym  WBO       # sym  WBO
 ---------------------------------------------------------------------------
     1   6 C    3.852 --    28 H    0.985    27 H    0.980    26 H    0.979
                             2 O    0.874
     2   8 O    2.231 --     3 C    1.158     1 C    0.874     4 O    0.140
     3   6 C    3.845 --     4 O    1.695     2 O    1.158     5 C    0.864
     4   8 O    1.966 --     3 C    1.695     2 O    0.140
     5   6 C    3.964 --     6 C    0.982     7 N    0.981    24 C    0.948
                             3 C    0.864
     6   6 C    3.985 --    29 H    0.985    30 H    0.983    31 H    0.982
                             5 C    0.982
     7   7 N    3.028 --     8 C    1.759     5 C    0.981
     8   6 C    3.927 --     7 N    1.759    21 N    1.066     9 C    0.979
     9   6 C    3.933 --    11 C    0.990     8 C    0.979    10 C    0.975
                            12 N    0.924
    10   6 C    3.987 --    32 H    0.984    34 H    0.984    33 H    0.977
                             9 C    0.975
    11   6 C    3.988 --     9 C    0.990    36 H    0.985    35 H    0.983
                            37 H    0.982
    12   7 N    3.331 --    13 C    1.240     9 C    0.924    38 H    0.894
                            14 O    0.172
    13   6 C    3.915 --    14 O    1.597    12 N    1.240    15 C    0.993
    14   8 O    1.911 --    13 C    1.597    12 N    0.172
    15   6 C    3.872 --    16 N    1.622    20 O    1.046    13 C    0.993
    16   7 N    3.001 --    15 C    1.622    17 N    1.199
    17   7 N    2.982 --    18 C    1.610    16 N    1.199
    18   6 C    3.868 --    17 N    1.610    20 O    1.072    19 C    1.032
    19   6 C    3.986 --    18 C    1.032    40 H    0.982    39 H    0.963
                            41 H    0.962
    20   8 O    2.316 --    18 C    1.072    15 C    1.046
    21   7 N    3.430 --    22 C    1.186     8 C    1.066    42 H    0.880
                            23 O    0.149
    22   6 C    3.893 --    23 O    1.675    21 N    1.186    24 C    0.906
    23   8 O    1.959 --    22 C    1.675    21 N    0.149
    24   6 C    3.847 --    25 O    1.813     5 C    0.948    22 C    0.906
    25   8 O    2.027 --    24 C    1.813
    26   1 H    1.003 --     1 C    0.979
    27   1 H    1.004 --     1 C    0.980
    28   1 H    1.007 --     1 C    0.985
    29   1 H    1.003 --     6 C    0.985
    30   1 H    1.001 --     6 C    0.983
    31   1 H    1.008 --     6 C    0.982
    32   1 H    1.004 --    10 C    0.984
    33   1 H    1.011 --    10 C    0.977
    34   1 H    1.000 --    10 C    0.984
    35   1 H    1.009 --    11 C    0.983
    36   1 H    1.003 --    11 C    0.985
    37   1 H    1.005 --    11 C    0.982
    38   1 H    0.938 --    12 N    0.894
    39   1 H    0.997 --    19 C    0.963
    40   1 H    0.998 --    19 C    0.982
    41   1 H    0.996 --    19 C    0.962
    42   1 H    0.926 --    21 N    0.880
 ---------------------------------------------------------------------------

           -------------------------------------------------
          | TOTAL ENERGY              -83.004086553435 Eh   |
          | GRADIENT NORM               0.000306703072 Eh/α |
          | HOMO-LUMO GAP               2.394297673371 eV   |
           -------------------------------------------------

 * finished run on 2023/06/21 at 17:32:45.403
