                         Program Version 5.0.1 -  RELEASE  -
|  1> # ORCA input file
|  2> ! SP r2SCAN-3c CPCM
|  3>
|  4> %maxcore 1875.0
|  5> %pal nprocs 4 end
|  6> %cpcm smd true SMDsolvent "DMSO" end
|  7>
|  8> *xyz 1 1
|  9> C      -2.255215    0.896466    0.543423
| 10> N      -2.124986   -0.394637   -0.172801
| 11> C      -0.985106   -1.235635    0.320098
| 12> C       0.331286   -0.556465    0.049836
| 13> C       0.846350   -0.535057   -1.246125
| 14> C       2.060086    0.081048   -1.509610
| 15> C       2.742432    0.665289   -0.455916
| 16> F       3.914437    1.257393   -0.700884
| 17> C       2.259244    0.659770    0.841002
| 18> C       1.040961    0.043902    1.088361
| 19> H      -1.338271    1.463762    0.404299
| 20> H      -2.420215    0.691552    1.598139
| 21> H      -3.103012    1.429565    0.120844
| 22> H      -2.004538   -0.217045   -1.167151
| 23> H      -2.983961   -0.923645   -0.057308
| 24> H      -1.148011   -1.398411    1.385999
| 25> H      -1.060322   -2.185022   -0.212911
| 26> H       0.295637   -1.005186   -2.051126
| 27> H       2.470096    0.106203   -2.511049
| 28> H       2.821842    1.128770    1.637962
| 29> H       0.641264    0.027382    2.094918
| 30> **                         ****END OF INPUT****

CARTESIAN COORDINATES (ANGSTROEM)
---------------------------------
  C     -2.255215    0.896466    0.543423
  N     -2.124986   -0.394637   -0.172801
  C     -0.985106   -1.235635    0.320098
  C      0.331286   -0.556465    0.049836
  C      0.846350   -0.535057   -1.246125
  C      2.060086    0.081048   -1.509610
  C      2.742432    0.665289   -0.455916
  F      3.914437    1.257393   -0.700884
  C      2.259244    0.659770    0.841002
  C      1.040961    0.043902    1.088361
  H     -1.338271    1.463762    0.404299
  H     -2.420215    0.691552    1.598139
  H     -3.103012    1.429565    0.120844
  H     -2.004538   -0.217045   -1.167151
  H     -2.983961   -0.923645   -0.057308
  H     -1.148011   -1.398411    1.385999
  H     -1.060322   -2.185022   -0.212911
  H      0.295637   -1.005186   -2.051126
  H      2.470096    0.106203   -2.511049
  H      2.821842    1.128770    1.637962
  H      0.641264    0.027382    2.094918

 Total Charge           Charge          ....    1
 Multiplicity           Mult            ....    1
 Number of Electrons    NEL             ....   74
 Basis Dimension        Dim             ....  255

ORBITAL ENERGIES
----------------

  NO   OCC          E(Eh)            E(eV)
   0   2.0000     -24.509722      -666.9434
   1   2.0000     -14.277588      -388.5129
   2   2.0000     -10.127982      -275.5964
   3   2.0000     -10.092581      -274.6331
   4   2.0000     -10.076494      -274.1953
   5   2.0000     -10.057916      -273.6898
   6   2.0000     -10.052211      -273.5346
   7   2.0000     -10.051774      -273.5227
   8   2.0000     -10.048494      -273.4334
   9   2.0000     -10.047869      -273.4164
  10   2.0000      -1.203161       -32.7397
  11   2.0000      -0.974211       -26.5096
  12   2.0000      -0.844827       -22.9889
  13   2.0000      -0.756769       -20.5927
  14   2.0000      -0.735803       -20.0222
  15   2.0000      -0.697395       -18.9771
  16   2.0000      -0.656722       -17.8703
  17   2.0000      -0.603917       -16.4334
  18   2.0000      -0.582022       -15.8376
  19   2.0000      -0.552492       -15.0341
  20   2.0000      -0.523320       -14.2403
  21   2.0000      -0.502714       -13.6795
  22   2.0000      -0.477809       -13.0019
  23   2.0000      -0.463511       -12.6128
  24   2.0000      -0.443964       -12.0809
  25   2.0000      -0.437550       -11.9063
  26   2.0000      -0.416761       -11.3407
  27   2.0000      -0.406490       -11.0612
  28   2.0000      -0.391249       -10.6464
  29   2.0000      -0.379323       -10.3219
  30   2.0000      -0.374712       -10.1964
  31   2.0000      -0.358420        -9.7531
  32   2.0000      -0.347721        -9.4620
  33   2.0000      -0.341881        -9.3031
  34   2.0000      -0.319816        -8.7026
  35   2.0000      -0.255044        -6.9401
  36   2.0000      -0.238141        -6.4801
  37   0.0000      -0.050747        -1.3809
  38   0.0000      -0.044952        -1.2232
  39   0.0000       0.048780         1.3274
  40   0.0000       0.067351         1.8327
  41   0.0000       0.083146         2.2625

MULLIKEN ATOMIC CHARGES
-----------------------
   0 C :   -0.335315
   1 N :   -0.301574
   2 C :   -0.196949
   3 C :    0.003728
   4 C :   -0.158432
   5 C :   -0.299758
   6 C :    0.369493
   7 F :   -0.226826
   8 C :   -0.288953
   9 C :   -0.146583
  10 H :    0.201659
  11 H :    0.201340
  12 H :    0.195392
  13 H :    0.391486
  14 H :    0.380042
  15 H :    0.213957
  16 H :    0.208479
  17 H :    0.194215
  18 H :    0.200393
  19 H :    0.200282
  20 H :    0.193924
Sum of atomic charges:    1.0000000

LOEWDIN ATOMIC CHARGES
----------------------
   0 C :   -0.092569
   1 N :   -0.586427
   2 C :    0.007596
   3 C :   -0.100039
   4 C :   -0.129697
   5 C :   -0.151157
   6 C :    0.210034
   7 F :   -0.286563
   8 C :   -0.153110
   9 C :   -0.133161
  10 H :    0.201104
  11 H :    0.199786
  12 H :    0.198452
  13 H :    0.307774
  14 H :    0.307255
  15 H :    0.212758
  16 H :    0.212970
  17 H :    0.190947
  18 H :    0.196655
  19 H :    0.196550
  20 H :    0.190843

  Mayer bond orders larger than 0.100000
B(  0-C ,  1-N ) :   0.8981 B(  0-C , 10-H ) :   0.9358 B(  0-C , 11-H ) :   0.9421
B(  0-C , 12-H ) :   0.9495 B(  1-N ,  2-C ) :   0.8664 B(  1-N , 13-H ) :   0.8380
B(  1-N , 14-H ) :   0.8438 B(  2-C ,  3-C ) :   0.8611 B(  2-C , 15-H ) :   0.9709
B(  2-C , 16-H ) :   0.9512 B(  3-C ,  4-C ) :   1.3877 B(  3-C ,  9-C ) :   1.3885
B(  4-C ,  5-C ) :   1.3926 B(  4-C , 17-H ) :   0.9381 B(  5-C ,  6-C ) :   1.3914
B(  5-C , 18-H ) :   0.9353 B(  6-C ,  7-F ) :   0.8915 B(  6-C ,  8-C ) :   1.3967
B(  8-C ,  9-C ) :   1.3776 B(  8-C , 19-H ) :   0.9338 B(  9-C , 20-H ) :   0.9417

Dispersion correction           -0.006943932
FINAL SINGLE POINT ENERGY      -465.835378015869

DIPOLE MOMENT
-------------
                                X             Y             Z
Electronic contribution:     12.58308       2.01968      -2.88890
Nuclear contribution   :    -18.30948      -3.18170       3.08242
                        -----------------------------------------
Total Dipole Moment    :     -5.72640      -1.16202       0.19352
                        -----------------------------------------
Magnitude (a.u.)       :      5.84631
Magnitude (Debye)      :     14.86015

Rotational constants in cm-1:     0.105495     0.023802     0.022262
Rotational constants in MHz :  3162.656661   713.566547   667.385494

                             ****ORCA TERMINATED NORMALLY****
TOTAL RUN TIME: 0 days 0 hours 0 minutes 18 seconds 468 msec
