   * xtb version 6.5.1 (579679a) compiled by 'ehlert@majestix' on 2022-07-11
          program call               : /lustre/hpc/kemi/ree/PhD/git/ReactivityQM/dep/xtb-6.5.1/bin/xtb --gfn 1 /lustre/hpc/kemi/ree/PhD/git/ReactivityQM/calculations/R03/reac01prodN01/conf06/R03_reac01prodN01_conf06_gfn1.xyz --opt --vfukui --chrg 1 --uhf 0 --alpb DMSO

   ID    Z sym.   atoms
    1    6 C      1, 3-7, 9, 10
    2    7 N      2
    3    9 F      8
    4    1 H      11-21

      * Solvation model:               ALPB
        Solvent                        DMSO
        Solvent mass                       7.8130E+01 g/mol
          :  Hamiltonian                  GFN1-xTB          :
 * total energy  :   -30.8262260 Eh     change       -0.2462031E-11 Eh
 * total energy  :   -30.8299599 Eh     change       -0.3733949E-02 Eh
 * total energy  :   -30.8305442 Eh     change       -0.5842557E-03 Eh
 * total energy  :   -30.8306054 Eh     change       -0.6122794E-04 Eh
 * total energy  :   -30.8306301 Eh     change       -0.2473077E-04 Eh
 * total energy  :   -30.8306410 Eh     change       -0.1083024E-04 Eh
 * total energy  :   -30.8306511 Eh     change       -0.1009012E-04 Eh
 * total energy  :   -30.8306570 Eh     change       -0.5978045E-05 Eh
 * total energy  :   -30.8306581 Eh     change       -0.1076595E-05 Eh
   *** GEOMETRY OPTIMIZATION CONVERGED AFTER 9 ITERATIONS ***

 final structure:
================
21
 xtb: 6.5.1 (579679a)
C           -2.25521542596684        0.89646600190451        0.54342317245476
N           -2.12498607683347       -0.39463713423807       -0.17280051469170
C           -0.98510631145820       -1.23563450799191        0.32009795408769
C            0.33128642626767       -0.55646521365094        0.04983570799436
C            0.84635009232109       -0.53505693730167       -1.24612456439548
C            2.06008584101451        0.08104831966787       -1.50961006142363
C            2.74243199040964        0.66528857483038       -0.45591636745462
F            3.91443703531899        1.25739261844092       -0.70088377107714
C            2.25924449305351        0.65976972814288        0.84100179344272
C            1.04096123548457        0.04390164289575        1.08836081139534
H           -1.33827146662716        1.46376194304155        0.40429855426132
H           -2.42021547286025        0.69155186837165        1.59813889076611
H           -3.10301194319078        1.42956498213663        0.12084404814015
H           -2.00453754410905       -0.21704500570969       -1.16715085364220
H           -2.98396075111184       -0.92364493377345       -0.05730779099038
H           -1.14801085390680       -1.39841135588579        1.38599859920872
H           -1.06032246601709       -2.18502247445568       -0.21291088886518
H            0.29563712848347       -1.00518603021447       -2.05112630072264
H            2.47009636467082        0.10620338391402       -2.51104941442699
H            2.82184243203574        1.12876986356376        1.63796183074282
H            0.64126427302168        0.02738166631145        2.09491816519597

          :  Hamiltonian                  GFN1-xTB          :
         :: total energy             -30.830658111378 Eh    ::
         :: gradient norm              0.000208508174 Eh/a0 ::
         :: HOMO-LUMO gap              4.523954335301 eV    ::
         :: SCC energy               -31.241813616936 Eh    ::
         :: -> Gsolv                  -0.102480102135 Eh    ::
         :: repulsion energy           0.421408197329 Eh    ::

    * Orbital Energies and Occupations

         #    Occupation            Energy/Eh            Energy/eV
      -------------------------------------------------------------
         1        2.0000           -0.8853327             -24.0911
       ...           ...                  ...                  ...
        15        2.0000           -0.5961169             -16.2212
        16        2.0000           -0.5818130             -15.8319
        17        2.0000           -0.5658531             -15.3976
        18        2.0000           -0.5643068             -15.3556
        19        2.0000           -0.5612691             -15.2729
        20        2.0000           -0.5585291             -15.1983
        21        2.0000           -0.5543224             -15.0839
        22        2.0000           -0.5352426             -14.5647
        23        2.0000           -0.5312868             -14.4570
        24        2.0000           -0.5182158             -14.1014
        25        2.0000           -0.4924950             -13.4015
        26        2.0000           -0.4714697             -12.8293
        27        2.0000           -0.4597671             -12.5109 (HOMO)
        28                         -0.2935149              -7.9869 (LUMO)
        29                         -0.2917760              -7.9396
        30                         -0.1831860              -4.9847
        31                         -0.1730140              -4.7080
        32                         -0.1688447              -4.5945
        33                         -0.1611744              -4.3858
        34                         -0.1383695              -3.7652
        35                         -0.1216379              -3.3099
        36                         -0.1121796              -3.0526
        37                         -0.1058305              -2.8798
        38                         -0.0989485              -2.6925
       ...                                ...                  ...
        62                          0.6265011              17.0480
      -------------------------------------------------------------
                  HL-Gap            0.1662523 Eh            4.5240 eV

Wiberg/Mayer (AO) data.
largest (>0.10) Wiberg bond orders for each atom

     #   Z sym  total        # sym  WBO       # sym  WBO       # sym  WBO
 ---------------------------------------------------------------------------
     1   6 C    3.898 --    12 H    0.984    11 H    0.984    13 H    0.981
                             2 N    0.922
     2   7 N    3.605 --     1 C    0.922     3 C    0.894    14 H    0.893
                            15 H    0.888
     3   6 C    3.902 --     4 C    1.008    16 H    0.975    17 H    0.968
                             2 N    0.894
     4   6 C    3.984 --    10 C    1.414     5 C    1.411     3 C    1.008
     5   6 C    3.993 --     6 C    1.450     4 C    1.411    18 H    0.969
                             9 C    0.109
     6   6 C    3.991 --     5 C    1.450     7 C    1.394    19 H    0.967
                            10 C    0.108
     7   6 C    3.866 --     9 C    1.398     6 C    1.394     8 F    0.941
     8   9 F    1.074 --     7 C    0.941
     9   6 C    3.991 --    10 C    1.444     7 C    1.398    20 H    0.967
                             5 C    0.109
    10   6 C    3.993 --     9 C    1.444     4 C    1.414    21 H    0.969
                             6 C    0.108
    11   1 H    0.999 --     1 C    0.984
    12   1 H    0.991 --     1 C    0.984
    13   1 H    0.989 --     1 C    0.981
    14   1 H    0.921 --     2 N    0.893
    15   1 H    0.909 --     2 N    0.888
    16   1 H    0.994 --     3 C    0.975
    17   1 H    0.993 --     3 C    0.968
    18   1 H    0.995 --     5 C    0.969
    19   1 H    0.995 --     6 C    0.967
    20   1 H    0.995 --     9 C    0.967
    21   1 H    0.997 --    10 C    0.969
 ---------------------------------------------------------------------------

           -------------------------------------------------
          | TOTAL ENERGY              -30.830658111378 Eh   |
          | GRADIENT NORM               0.000208508174 Eh/α |
          | HOMO-LUMO GAP               4.523954335301 eV   |
           -------------------------------------------------

 * finished run on 2023/06/20 at 15:13:51.228
