   * xtb version 6.5.1 (579679a) compiled by 'ehlert@majestix' on 2022-07-11
          program call               : /lustre/hpc/kemi/ree/PhD/git/ReactivityQM/dep/xtb-6.5.1/bin/xtb --gfn 1 /lustre/hpc/kemi/ree/PhD/git/ReactivityQM/calculations/R02/reac01prodN04/conf18/R02_reac01prodN04_conf18_gfn1.xyz --opt --vfukui --chrg 1 --uhf 0 --alpb DMSO

   ID    Z sym.   atoms
    1    6 C      1, 3, 5, 7-10, 12, 14, 17, 18, 21, 23, 25
    2    8 O      2, 4, 13, 19, 22, 24
    3    7 N      6, 11, 15, 16, 20
    4    1 H      26-43

      * Solvation model:               ALPB
        Solvent                        DMSO
        Solvent mass                       7.8130E+01 g/mol
          :  Hamiltonian                  GFN1-xTB          :
 * total energy  :   -83.1151669 Eh     change       -0.9237056E-11 Eh
 * total energy  :   -83.1316675 Eh     change       -0.1650061E-01 Eh
 * total energy  :   -83.1397672 Eh     change       -0.8099722E-02 Eh
 * total energy  :   -83.1426126 Eh     change       -0.2845326E-02 Eh
 * total energy  :   -83.1459477 Eh     change       -0.3335178E-02 Eh
 * total energy  :   -83.1481854 Eh     change       -0.2237684E-02 Eh
 * total energy  :   -83.1506514 Eh     change       -0.2466014E-02 Eh
 * total energy  :   -83.1546560 Eh     change       -0.4004578E-02 Eh
 * total energy  :   -83.1577109 Eh     change       -0.3054920E-02 Eh
 * total energy  :   -83.1559544 Eh     change        0.1756545E-02 Eh
 * total energy  :   -83.1692341 Eh     change       -0.5857206E-04 Eh
 * total energy  :   -83.1692617 Eh     change       -0.2755489E-04 Eh
 * total energy  :   -83.1692868 Eh     change       -0.2510296E-04 Eh
 * total energy  :   -83.1693010 Eh     change       -0.1429534E-04 Eh
 * total energy  :   -83.1693065 Eh     change       -0.5423810E-05 Eh
 * total energy  :   -83.1693155 Eh     change       -0.9049003E-05 Eh
 * total energy  :   -83.1693223 Eh     change       -0.6775992E-05 Eh
 * total energy  :   -83.1693274 Eh     change       -0.5141791E-05 Eh
 * total energy  :   -83.1693324 Eh     change       -0.4981486E-05 Eh
   *** GEOMETRY OPTIMIZATION CONVERGED AFTER 45 ITERATIONS ***

 final structure:
================
43
 xtb: 6.5.1 (579679a)
C           -5.09105892561290        2.10095430007595        0.85216162005648
O           -3.85978097207376        1.36181956539120        0.74074838667398
C           -3.81024525117801        0.30176449596135        0.02352725674045
O           -4.88685994318012       -0.06968586493553       -0.58508796770525
C           -2.55404602468490       -0.40772431310022       -0.05249879112251
N           -1.53783498218703        0.15317022928506        0.67916813993907
C           -0.37824852985881       -0.41700734052296        0.68273316509718
C            0.73576280829116        0.17401109703665        1.52938608284274
C            0.30504820736825        1.54470586250386        2.05395277085077
C            1.04070245184460       -0.76939951218159        2.70234470126055
N            1.93533200263669        0.38971179946129        0.71271000722030
C            2.76393444065971       -0.56726616496877        0.25179788764688
O            2.57394595037495       -1.77399185273073        0.34694460587203
C            3.95447970481253       -0.01474773835119       -0.42791877015407
N            4.94329219908078       -0.66470542561838       -0.95777826243247
N            5.79857235514323        0.26402589687393       -1.46359841563642
C            5.28077067296442        1.42708326719121       -1.21358262419418
C            5.82298050658826        2.75729645528287       -1.56311609320176
O            4.11274036956798        1.32072043973773       -0.55889312355142
N           -0.13904842607654       -1.56157325966889       -0.00797035333683
C           -1.05314738278027       -2.21633267232277       -0.79503538269460
O           -0.75817816737499       -3.22673821548782       -1.40305440358216
C           -2.37758205093639       -1.56325742712959       -0.79860031357195
O           -3.40477625967273       -2.04356833409242       -1.48746342445468
C           -3.31804268465104       -3.23019599942441       -2.30299810900014
H           -5.88173325092563        1.43894185273626        1.20617926916748
H           -5.35594659945370        2.50671422424180       -0.12469183669790
H           -4.89656950960261        2.89769100308188        1.56623845071223
H            0.06875054910063        2.20859404346493        1.22424118448699
H            1.10691689818190        1.98054010719957        2.64677934519950
H           -0.58138612063482        1.43680432621230        2.67628947026937
H            0.15712741163486       -0.84999676299266        3.33333798934187
H            1.86225932150367       -0.36073229116795        3.28816856819847
H            1.31270706989131       -1.76152889649112        2.34871043476689
H            2.19307225022596        1.35075674302402        0.55282459762645
H            5.96076401053501        3.35066981195291       -0.65919326770071
H            5.11933708223127        3.28583536189430       -2.20636111405882
H            6.77484601094404        2.64337154373561       -2.07692121260053
H            0.80448551232054       -1.96827889114751        0.03832463659402
H           -4.79603136339384       -0.89145195639494       -1.11565453736432
H           -2.56912254371221       -3.09608988164032       -3.08388663404926
H           -4.30689675509268       -3.34714492875356       -2.74178140125105
H           -3.07129304281234       -4.09376369721205       -1.68457253220109

          :  Hamiltonian                  GFN1-xTB          :
         :: total energy             -83.169332422026 Eh    ::
         :: gradient norm              0.000602667648 Eh/a0 ::
         :: HOMO-LUMO gap              2.016846918050 eV    ::
         :: SCC energy               -83.960670062581 Eh    ::
         :: -> Gsolv                  -0.107789673070 Eh    ::
         :: repulsion energy           0.817138892111 Eh    ::

    * Orbital Energies and Occupations

         #    Occupation            Energy/Eh            Energy/eV
      -------------------------------------------------------------
         1        2.0000           -0.9114210             -24.8010
       ...           ...                  ...                  ...
        55        2.0000           -0.5287395             -14.3877
        56        2.0000           -0.5213644             -14.1870
        57        2.0000           -0.5145955             -14.0029
        58        2.0000           -0.5118509             -13.9282
        59        2.0000           -0.5112779             -13.9126
        60        2.0000           -0.4891642             -13.3108
        61        2.0000           -0.4857992             -13.2193
        62        2.0000           -0.4816057             -13.1052
        63        2.0000           -0.4754161             -12.9367
        64        2.0000           -0.4696118             -12.7788
        65        2.0000           -0.4605092             -12.5311
        66        2.0000           -0.4586111             -12.4794
        67        2.0000           -0.4575058             -12.4494 (HOMO)
        68                         -0.3833881             -10.4325 (LUMO)
        69                         -0.3221583              -8.7664
        70                         -0.3141292              -8.5479
        71                         -0.2888042              -7.8588
        72                         -0.2620275              -7.1301
        73                         -0.2090477              -5.6885
        74                         -0.1987486              -5.4082
        75                         -0.1656546              -4.5077
        76                         -0.1476501              -4.0178
        77                         -0.1444409              -3.9304
        78                         -0.1368074              -3.7227
       ...                                ...                  ...
       136                          0.7072023              19.2440
      -------------------------------------------------------------
                  HL-Gap            0.0741178 Eh            2.0168 eV

Wiberg/Mayer (AO) data.
largest (>0.10) Wiberg bond orders for each atom

     #   Z sym  total        # sym  WBO       # sym  WBO       # sym  WBO
 ---------------------------------------------------------------------------
     1   6 C    3.820 --    28 H    0.982    26 H    0.973    27 H    0.971
                             2 O    0.852
     2   8 O    2.318 --     3 C    1.285     1 C    0.852
     3   6 C    3.812 --     2 O    1.285     4 O    1.249     5 C    1.122
     4   8 O    2.194 --     3 C    1.249    40 H    0.745
     5   6 C    3.958 --    23 C    1.411     6 N    1.167     3 C    1.122
     6   7 N    3.021 --     7 C    1.575     5 C    1.167
     7   6 C    3.923 --     6 N    1.575    20 N    1.194     8 C    0.972
     8   6 C    3.934 --     9 C    1.000    10 C    0.976     7 C    0.972
                            11 N    0.923
     9   6 C    3.988 --     8 C    1.000    30 H    0.984    29 H    0.983
                            31 H    0.982
    10   6 C    3.984 --    32 H    0.984    33 H    0.982    34 H    0.979
                             8 C    0.976
    11   7 N    3.349 --    12 C    1.268     8 C    0.923    35 H    0.887
                            13 O    0.171
    12   6 C    3.913 --    13 O    1.550    11 N    1.268    14 C    1.004
    13   8 O    1.921 --    12 C    1.550    11 N    0.171
    14   6 C    3.876 --    15 N    1.616    19 O    1.046    12 C    1.004
    15   7 N    3.004 --    14 C    1.616    16 N    1.205
    16   7 N    2.983 --    17 C    1.604    15 N    1.205
    17   6 C    3.866 --    16 N    1.604    19 O    1.073    18 C    1.033
    18   6 C    3.985 --    17 C    1.033    38 H    0.982    36 H    0.962
                            37 H    0.961
    19   8 O    2.317 --    17 C    1.073    14 C    1.046
    20   7 N    3.485 --     7 C    1.194    21 C    1.151    39 H    0.822
                            22 O    0.142
    21   6 C    3.916 --    22 O    1.608    20 N    1.151    23 C    1.034
    22   8 O    1.936 --    21 C    1.608    20 N    0.142
    23   6 C    3.903 --     5 C    1.411    24 O    1.139    21 C    1.034
    24   8 O    2.252 --    23 C    1.139    25 C    0.855
    25   6 C    3.829 --    42 H    0.983    41 H    0.974    43 H    0.974
                            24 O    0.855
    26   1 H    0.997 --     1 C    0.973
    27   1 H    0.996 --     1 C    0.971
    28   1 H    1.002 --     1 C    0.982
    29   1 H    1.001 --     9 C    0.983
    30   1 H    0.997 --     9 C    0.984
    31   1 H    1.006 --     9 C    0.982
    32   1 H    0.999 --    10 C    0.984
    33   1 H    0.997 --    10 C    0.982
    34   1 H    1.007 --    10 C    0.979
    35   1 H    0.932 --    11 N    0.887
    36   1 H    0.996 --    18 C    0.962
    37   1 H    0.996 --    18 C    0.961
    38   1 H    0.998 --    18 C    0.982
    39   1 H    0.917 --    20 N    0.822
    40   1 H    0.807 --     4 O    0.745
    41   1 H    1.008 --    25 C    0.974
    42   1 H    1.005 --    25 C    0.983
    43   1 H    1.008 --    25 C    0.974
 ---------------------------------------------------------------------------

           -------------------------------------------------
          | TOTAL ENERGY              -83.169332422026 Eh   |
          | GRADIENT NORM               0.000602667648 Eh/α |
          | HOMO-LUMO GAP               2.016846918050 eV   |
           -------------------------------------------------

 * finished run on 2023/06/20 at 15:22:41.217
