   * xtb version 6.5.1 (579679a) compiled by 'ehlert@majestix' on 2022-07-11
          program call               : /lustre/hpc/kemi/ree/PhD/git/ReactivityQM/dep/xtb-6.5.1/bin/xtb --gfn 1 /lustre/hpc/kemi/ree/PhD/git/ReactivityQM/calculations/R02deprot/reac01prodN19/conf03/R02deprot_reac01prodN19_conf03_gfn1.xyz --opt --vfukui --chrg 0 --uhf 0 --alpb DMSO

   ID    Z sym.   atoms
    1    6 C      1, 3, 5, 7-10, 12, 14, 17, 18, 21, 23, 24
    2    8 O      2, 4, 13, 19, 22, 25
    3    7 N      6, 11, 15, 16, 20
    4    1 H      26-42

      * Solvation model:               ALPB
        Solvent                        DMSO
        Solvent mass                       7.8130E+01 g/mol
          :  Hamiltonian                  GFN1-xTB          :
 * total energy  :   -82.9817245 Eh     change       -0.7744916E-11 Eh
 * total energy  :   -82.9977441 Eh     change       -0.1601959E-01 Eh
 * total energy  :   -83.0041985 Eh     change       -0.6454375E-02 Eh
 * total energy  :   -83.0056886 Eh     change       -0.1490131E-02 Eh
 * total energy  :   -83.0064468 Eh     change       -0.7581731E-03 Eh
 * total energy  :   -83.0067025 Eh     change       -0.2556886E-03 Eh
 * total energy  :   -83.0068262 Eh     change       -0.1236885E-03 Eh
 * total energy  :   -83.0068990 Eh     change       -0.7282565E-04 Eh
 * total energy  :   -83.0069452 Eh     change       -0.4622573E-04 Eh
 * total energy  :   -83.0069817 Eh     change       -0.3646017E-04 Eh
 * total energy  :   -83.0077339 Eh     change       -0.6979340E-05 Eh
 * total energy  :   -83.0077444 Eh     change       -0.1046954E-04 Eh
 * total energy  :   -83.0077589 Eh     change       -0.1451589E-04 Eh
 * total energy  :   -83.0077674 Eh     change       -0.8434234E-05 Eh
 * total energy  :   -83.0077740 Eh     change       -0.6633554E-05 Eh
 * total energy  :   -83.0077826 Eh     change       -0.8613636E-05 Eh
 * total energy  :   -83.0077901 Eh     change       -0.7508541E-05 Eh
 * total energy  :   -83.0077961 Eh     change       -0.6030057E-05 Eh
 * total energy  :   -83.0078010 Eh     change       -0.4836431E-05 Eh
   *** GEOMETRY OPTIMIZATION CONVERGED AFTER 49 ITERATIONS ***

 final structure:
================
42
 xtb: 6.5.1 (579679a)
C           -6.45388611408074        1.36263323793868        0.08022501624512
O           -5.23360093189301        0.60584216793374        0.12319886152884
C           -4.10135549037537        1.31651101116781        0.05146115409009
O           -4.08854378795846        2.51944542214288       -0.03978359769102
C           -2.86484422243054        0.47762600948059        0.09180989081526
N           -1.73122507592129        1.20062519321976        0.04437609653020
C           -0.57794767309561        0.56866274162210        0.06117965171456
C            0.67389878573118        1.42273680307609        0.03543855151732
C            0.78321111769696        2.16152027859916        1.37875021221203
C            0.58871307034081        2.41685242104905       -1.13014649006247
N            1.81734186546848        0.53210364223313       -0.13942447879252
C            3.09405022054563        0.94411828580387       -0.20549044279975
O            3.47509860834127        2.10164153396686       -0.13946780792795
C            4.01608014976430       -0.21125748818336       -0.38168723841399
N            3.67393173940377       -1.46242742455346       -0.45196545567725
N            4.82357239926715       -2.17564977401220       -0.62047718340175
C            5.79344446242416       -1.31295932295509       -0.64340929106495
C            7.23904891316112       -1.58465751130465       -0.80436223021120
O            5.34800441429449       -0.05637346385644       -0.49658208852308
N           -0.44491129326673       -0.75822175906905        0.12695662417197
C           -1.53066212664562       -1.51072149560180        0.18358383813541
O           -1.27320375498267       -2.82085180587559        0.25560794977989
C           -2.27697382335311       -3.82739754675159        0.36068701966065
C           -2.82161858500578       -0.91140315921901        0.16782741025132
O           -3.90614754227498       -1.70461807483450        0.22463482371157
H           -6.53168100435086        1.88192150698261       -0.87727036598761
H           -7.26625452390835        0.64982634082251        0.19359906491564
H           -6.46663307850182        2.09045912680601        0.89428266755406
H            1.64953220539445        2.82072338263470        1.37646896339377
H            0.88128119084292        1.44265287221798        2.19091453147560
H           -0.11758245691843        2.75289759161839        1.53472183656662
H            0.56086253753262        1.87878423927846       -2.07653615163719
H           -0.32329497268983        3.00340213093713       -1.02912934464475
H            1.44778291159123        3.08509442632145       -1.12228650641390
H            1.61526567067007       -0.46083673246557       -0.17953738629456
H            7.64219943090074       -0.98672812983867       -1.62104332662084
H            7.39089115759147       -2.64072664345184       -1.01266968416868
H            7.77363622233917       -1.31511774388480        0.10664662074246
H           -2.92518466537369       -3.83051873406029       -0.51806041728663
H           -2.87625601612568       -3.69223386970912        1.26357404595556
H           -1.73780007549784       -4.77415159244018        0.41941862802210
H           -4.73824085864628       -1.19922709375890        0.22127502862401

          :  Hamiltonian                  GFN1-xTB          :
         :: total energy             -83.007800979363 Eh    ::
         :: gradient norm              0.000348984468 Eh/a0 ::
         :: HOMO-LUMO gap              2.871088611632 eV    ::
         :: SCC energy               -83.782772587992 Eh    ::
         :: -> Gsolv                  -0.051223687432 Eh    ::
         :: repulsion energy           0.799640723301 Eh    ::

    * Orbital Energies and Occupations

         #    Occupation            Energy/Eh            Energy/eV
      -------------------------------------------------------------
         1        2.0000           -0.8630347             -23.4844
       ...           ...                  ...                  ...
        55        2.0000           -0.5011882             -13.6380
        56        2.0000           -0.5009894             -13.6326
        57        2.0000           -0.4977133             -13.5435
        58        2.0000           -0.4829908             -13.1428
        59        2.0000           -0.4817910             -13.1102
        60        2.0000           -0.4743368             -12.9074
        61        2.0000           -0.4715753             -12.8322
        62        2.0000           -0.4608649             -12.5408
        63        2.0000           -0.4588650             -12.4864
        64        2.0000           -0.4501348             -12.2488
        65        2.0000           -0.4446749             -12.1002
        66        2.0000           -0.4335610             -11.7978
        67        2.0000           -0.4310082             -11.7283 (HOMO)
        68                         -0.3254976              -8.8572 (LUMO)
        69                         -0.3077217              -8.3735
        70                         -0.2834315              -7.7126
        71                         -0.2566662              -6.9842
        72                         -0.2412685              -6.5653
        73                         -0.1958711              -5.3299
        74                         -0.1577413              -4.2924
        75                         -0.1431279              -3.8947
        76                         -0.1377185              -3.7475
        77                         -0.1362443              -3.7074
        78                         -0.1200865              -3.2677
       ...                                ...                  ...
       134                          0.7249661              19.7273
      -------------------------------------------------------------
                  HL-Gap            0.1055106 Eh            2.8711 eV

Wiberg/Mayer (AO) data.
largest (>0.10) Wiberg bond orders for each atom

     #   Z sym  total        # sym  WBO       # sym  WBO       # sym  WBO
 ---------------------------------------------------------------------------
     1   6 C    3.858 --    27 H    0.986    28 H    0.980    26 H    0.980
                             2 O    0.882
     2   8 O    2.209 --     3 C    1.094     1 C    0.882     4 O    0.132
     3   6 C    3.845 --     4 O    1.679     2 O    1.094     5 C    0.994
     4   8 O    1.940 --     3 C    1.679     2 O    0.132
     5   6 C    3.968 --    24 C    1.390     6 N    1.304     3 C    0.994
     6   7 N    3.030 --     7 C    1.449     5 C    1.304
     7   6 C    3.945 --     6 N    1.449    20 N    1.333     8 C    0.984
     8   6 C    3.936 --     7 C    0.984    10 C    0.983     9 C    0.975
                            11 N    0.930
     9   6 C    3.990 --    30 H    0.986    31 H    0.985    29 H    0.981
                             8 C    0.975
    10   6 C    3.990 --    32 H    0.986    33 H    0.984     8 C    0.983
                            34 H    0.982
    11   7 N    3.363 --    12 C    1.273     8 C    0.930    35 H    0.880
                            13 O    0.182
    12   6 C    3.921 --    13 O    1.581    11 N    1.273    14 C    0.985
    13   8 O    1.900 --    12 C    1.581    11 N    0.182
    14   6 C    3.873 --    15 N    1.614    19 O    1.063    12 C    0.985
    15   7 N    3.013 --    14 C    1.614    16 N    1.197
    16   7 N    2.980 --    17 C    1.608    15 N    1.197
    17   6 C    3.872 --    16 N    1.608    19 O    1.082    18 C    1.031
    18   6 C    3.987 --    17 C    1.031    37 H    0.983    36 H    0.966
                            38 H    0.961
    19   8 O    2.329 --    17 C    1.082    14 C    1.063
    20   7 N    3.040 --    21 C    1.390     7 C    1.333
    21   6 C    3.906 --    20 N    1.390    24 C    1.219    22 O    1.090
    22   8 O    2.187 --    21 C    1.090    23 C    0.899
    23   6 C    3.871 --    41 H    0.984    40 H    0.980    39 H    0.980
                            22 O    0.899
    24   6 C    3.922 --     5 C    1.390    21 C    1.219    25 O    1.081
    25   8 O    2.066 --    24 C    1.081    42 H    0.791
    26   1 H    1.006 --     1 C    0.980
    27   1 H    1.008 --     1 C    0.986
    28   1 H    1.006 --     1 C    0.980
    29   1 H    1.009 --     9 C    0.981
    30   1 H    1.003 --     9 C    0.986
    31   1 H    1.006 --     9 C    0.985
    32   1 H    1.003 --    10 C    0.986
    33   1 H    1.011 --    10 C    0.984
    34   1 H    1.010 --    10 C    0.982
    35   1 H    0.971 --    11 N    0.880
    36   1 H    0.997 --    18 C    0.966
    37   1 H    0.999 --    18 C    0.983
    38   1 H    0.997 --    18 C    0.961
    39   1 H    1.012 --    23 C    0.980
    40   1 H    1.012 --    23 C    0.980
    41   1 H    1.012 --    23 C    0.984
    42   1 H    0.847 --    25 O    0.791
 ---------------------------------------------------------------------------

           -------------------------------------------------
          | TOTAL ENERGY              -83.007800979363 Eh   |
          | GRADIENT NORM               0.000348984468 Eh/α |
          | HOMO-LUMO GAP               2.871088611632 eV   |
           -------------------------------------------------

 * finished run on 2023/06/20 at 18:30:57.310
