   * xtb version 6.5.1 (579679a) compiled by 'ehlert@majestix' on 2022-07-11
          program call               : /lustre/hpc/kemi/ree/PhD/git/ReactivityQM/dep/xtb-6.5.1/bin/xtb --gfn 1 /lustre/hpc/kemi/ree/PhD/git/ReactivityQM/calculations/R03/reac02prodN13/conf08/R03_reac02prodN13_conf08_gfn1.xyz --opt --vfukui --chrg 1 --uhf 0 --alpb DMSO

   ID    Z sym.   atoms
    1    6 C      1, 3, 5, 7-10, 12, 14, 17-19, 22, 23, 25
    2    8 O      2, 4, 13, 20, 24, 26
    3    7 N      6, 11, 15, 16, 21
    4    1 H      27-46

      * Solvation model:               ALPB
        Solvent                        DMSO
        Solvent mass                       7.8130E+01 g/mol
          :  Hamiltonian                  GFN1-xTB          :
 * total energy  :   -86.2749265 Eh     change       -0.1605827E-11 Eh
 * total energy  :   -86.2893107 Eh     change       -0.1438416E-01 Eh
 * total energy  :   -86.2945680 Eh     change       -0.5257293E-02 Eh
 * total energy  :   -86.2954227 Eh     change       -0.8547814E-03 Eh
 * total energy  :   -86.2960298 Eh     change       -0.6070836E-03 Eh
 * total energy  :   -86.2962891 Eh     change       -0.2593176E-03 Eh
 * total energy  :   -86.2965532 Eh     change       -0.2640269E-03 Eh
 * total energy  :   -86.2967241 Eh     change       -0.1708960E-03 Eh
 * total energy  :   -86.2968064 Eh     change       -0.8236987E-04 Eh
 * total energy  :   -86.2968452 Eh     change       -0.3874498E-04 Eh
 * total energy  :   -86.2968769 Eh     change       -0.3176461E-04 Eh
 * total energy  :   -86.2969022 Eh     change       -0.2524266E-04 Eh
 * total energy  :   -86.2969206 Eh     change       -0.1838821E-04 Eh
 * total energy  :   -86.2969337 Eh     change       -0.1314876E-04 Eh
 * total energy  :   -86.2969447 Eh     change       -0.1100323E-04 Eh
 * total energy  :   -86.2969578 Eh     change       -0.1303643E-04 Eh
 * total energy  :   -86.2969661 Eh     change       -0.8305732E-05 Eh
 * total energy  :   -86.2969707 Eh     change       -0.4633667E-05 Eh
   *** GEOMETRY OPTIMIZATION CONVERGED AFTER 18 ITERATIONS ***

 final structure:
================
46
 xtb: 6.5.1 (579679a)
C           -5.37717076529852        0.56904979773651       -3.32280624638683
O           -4.44792913017708        0.38146315465051       -2.24941783743858
C           -4.73352295505159        0.99100659770935       -1.10203795987244
O           -5.71602103658980        1.67091483678354       -0.93154749595031
C           -3.68909873407666        0.73225845092501       -0.06157979504101
N           -2.62188305490195       -0.01843385862369       -0.44653507993305
C           -1.65343207395068       -0.30675918535855        0.36754292584584
C           -0.55860033750908       -1.19622077817856       -0.20277134866104
C           -0.73621702701120       -1.31990003961282       -1.72302732760481
C           -0.62670979525148       -2.58599657510958        0.44579297744050
N            0.74191032028849       -0.54626425569364        0.03539455232604
C            1.91893418729149       -1.14774393689510       -0.21827216249733
O            2.10782720329020       -2.29047058247835       -0.56140013470520
C            3.05817106027449       -0.18209252524755       -0.00509046610996
N            2.90962090093341        1.12106602502482        0.39375457481454
N            4.06030213445218        1.64023449161634        0.45021849291434
C            5.04931031554862        0.68096553468533        0.07808526127625
C            5.78692591349085        1.12848259544798       -1.19071950198347
C            6.00571136851177        0.40113048383196        1.24421185690490
O            4.27981151582406       -0.48700378918795       -0.20242735045488
N           -1.65126721172130        0.11790293912259        1.66617692131980
C           -0.62821027106167       -0.19180266208342        2.66570897221863
C           -2.69423335162480        0.88614945852174        2.16916893604732
O           -2.71594726726457        1.26633173642974        3.33051596824578
C           -3.75926984297487        1.20530806548639        1.22559854290375
O           -4.75452225002186        1.94496102232875        1.70006960713331
H           -5.45191695893147        1.63064010822765       -3.57063658725366
H           -4.98818712884012        0.00841247992144       -4.17016367369149
H           -6.36221626144739        0.19245274425221       -3.03656304218244
H           -0.71330602987473       -0.33360102846023       -2.18205944618778
H           -1.69401750621790       -1.79004576221241       -1.93830386820768
H            0.06621471168260       -1.92904951644149       -2.13407627322260
H            0.00054537672957       -3.28812309272636       -0.09970676220897
H           -0.29930941484721       -2.55558284526066        1.48177355993990
H           -1.65836105316604       -2.93489345726585        0.40965041750450
H            0.74466402159591        0.44959070312234        0.19463559620727
H            6.48392160793880        0.34718197720883       -1.48496753731963
H            6.32476125841046        2.04869427902947       -0.97661877922000
H            5.06246187286137        1.29673362654902       -1.98441477569484
H            5.43197029720715        0.06667837894203        2.10559535113421
H            6.54011311981167        1.31652538621415        1.48608920371422
H            6.70783468518188       -0.37334303773122        0.94414536962079
H           -1.02877224100599       -0.93099582952896        3.35944222712000
H            0.26994082980937       -0.56664366047371        2.19325430311489
H           -0.40510586031057        0.72483586722151        3.21088764106228
H           -4.58572414200899        2.15599567759299        2.63742619301176

          :  Hamiltonian                  GFN1-xTB          :
         :: total energy             -86.296970705383 Eh    ::
         :: gradient norm              0.000924818838 Eh/a0 ::
         :: HOMO-LUMO gap              0.137285166007 eV    ::
         :: SCC energy               -87.120445169463 Eh    ::
         :: -> Gsolv                  -0.115203191228 Eh    ::
         :: repulsion energy           0.852322840882 Eh    ::

    * Orbital Energies and Occupations

         #    Occupation            Energy/Eh            Energy/eV
      -------------------------------------------------------------
         1        2.0000           -0.9334748             -25.4011
       ...           ...                  ...                  ...
        58        2.0000           -0.5340700             -14.5328
        59        2.0000           -0.5293394             -14.4041
        60        2.0000           -0.5215918             -14.1932
        61        2.0000           -0.5210333             -14.1780
        62        2.0000           -0.5150430             -14.0150
        63        2.0000           -0.5044520             -13.7268
        64        2.0000           -0.5019138             -13.6578
        65        2.0000           -0.4986034             -13.5677
        66        2.0000           -0.4943506             -13.4520
        67        2.0000           -0.4911858             -13.3658
        68        2.0000           -0.4782744             -13.0145
        69        2.0000           -0.4642236             -12.6322
        70        1.8687           -0.4471776             -12.1683 (HOMO)
        71        0.1313           -0.4421324             -12.0310 (LUMO)
        72                         -0.3613554              -9.8330
        73                         -0.3398258              -9.2471
        74                         -0.3061444              -8.3306
        75                         -0.2598062              -7.0697
        76                         -0.2547066              -6.9309
        77                         -0.1757993              -4.7837
        78                         -0.1618095              -4.4031
        79                         -0.1564839              -4.2581
        80                         -0.1561273              -4.2484
        81                         -0.1427212              -3.8836
       ...                                ...                  ...
       144                          0.7335934              19.9621
      -------------------------------------------------------------
                  HL-Gap            0.0050451 Eh            0.1373 eV

Wiberg/Mayer (AO) data.
largest (>0.10) Wiberg bond orders for each atom

     #   Z sym  total        # sym  WBO       # sym  WBO       # sym  WBO
 ---------------------------------------------------------------------------
     1   6 C    3.866 --    28 H    0.986    27 H    0.979    29 H    0.979
                             2 O    0.892
     2   8 O    2.206 --     3 C    1.121     1 C    0.892     4 O    0.139
     3   6 C    3.855 --     4 O    1.669     2 O    1.121     5 C    0.988
     4   8 O    1.931 --     3 C    1.669     2 O    0.139
     5   6 C    3.929 --    25 C    1.449     6 N    1.219     3 C    0.988
     6   7 N    2.999 --     7 C    1.535     5 C    1.219
     7   6 C    3.906 --     6 N    1.535    21 N    1.194     8 C    0.978
     8   6 C    3.909 --     9 C    0.978     7 C    0.978    10 C    0.976
                            11 N    0.906
     9   6 C    3.977 --    30 H    0.984    32 H    0.982    31 H    0.980
                             8 C    0.978
    10   6 C    3.977 --    35 H    0.982    34 H    0.980     8 C    0.976
                            33 H    0.976
    11   7 N    3.391 --    12 C    1.263     8 C    0.906    36 H    0.886
                            13 O    0.208
    12   6 C    3.923 --    13 O    1.629    11 N    1.263    14 C    0.947
    13   8 O    1.961 --    12 C    1.629    11 N    0.208
    14   6 C    3.738 --    20 O    1.333    15 N    1.211    12 C    0.947
    15   7 N    3.026 --    16 N    1.653    14 C    1.211
    16   7 N    2.903 --    15 N    1.653    17 C    1.052
    17   6 C    3.818 --    16 N    1.052    19 C    0.906    18 C    0.905
                            20 O    0.868
    18   6 C    3.937 --    39 H    0.980    38 H    0.978    37 H    0.976
                            17 C    0.905
    19   6 C    3.937 --    40 H    0.979    41 H    0.978    42 H    0.976
                            17 C    0.906
    20   8 O    2.369 --    14 C    1.333    17 C    0.868
    21   7 N    3.499 --     7 C    1.194    23 C    1.111    22 C    0.924
                            24 O    0.124
    22   6 C    3.911 --    44 H    0.977    45 H    0.972    43 H    0.971
                            21 N    0.924
    23   6 C    3.898 --    24 O    1.583    21 N    1.111    25 C    1.064
    24   8 O    1.890 --    23 C    1.583    21 N    0.124
    25   6 C    3.867 --     5 C    1.449    26 O    1.138    23 C    1.064
    26   8 O    2.089 --    25 C    1.138    46 H    0.798
    27   1 H    1.006 --     1 C    0.979
    28   1 H    1.010 --     1 C    0.986
    29   1 H    1.006 --     1 C    0.979
    30   1 H    1.005 --     9 C    0.984
    31   1 H    1.006 --     9 C    0.980
    32   1 H    1.000 --     9 C    0.982
    33   1 H    1.005 --    10 C    0.976
    34   1 H    0.998 --    10 C    0.980
    35   1 H    0.998 --    10 C    0.982
    36   1 H    0.937 --    11 N    0.886
    37   1 H    0.991 --    18 C    0.976
    38   1 H    0.992 --    18 C    0.978
    39   1 H    0.991 --    18 C    0.980
    40   1 H    0.991 --    19 C    0.979
    41   1 H    0.992 --    19 C    0.978
    42   1 H    0.991 --    19 C    0.976
    43   1 H    0.995 --    22 C    0.971
    44   1 H    1.005 --    22 C    0.977
    45   1 H    1.001 --    22 C    0.972
    46   1 H    0.836 --    26 O    0.798
 ---------------------------------------------------------------------------

           -------------------------------------------------
          | TOTAL ENERGY              -86.296970705383 Eh   |
          | GRADIENT NORM               0.000924818838 Eh/α |
          | HOMO-LUMO GAP               0.137285166007 eV   |
           -------------------------------------------------

 * finished run on 2023/06/20 at 15:48:51.215
