   * xtb version 6.5.1 (579679a) compiled by 'ehlert@majestix' on 2022-07-11
          program call               : /lustre/hpc/kemi/ree/PhD/git/ReactivityQM/dep/xtb-6.5.1/bin/xtb --gfn 1 /lustre/hpc/kemi/ree/PhD/git/ReactivityQM/calculations/R01/reac02prodN10/conf04/R01_reac02prodN10_conf04_gfn1.xyz --opt --vfukui --chrg 1 --uhf 0 --alpb DMSO

   ID    Z sym.   atoms
    1    6 C      1, 3, 4, 6, 8-11, 14, 16
    2    8 O      2, 5, 15, 17
    3    7 N      7, 12, 13
    4    1 H      18-33

      * Solvation model:               ALPB
        Solvent                        DMSO
        Solvent mass                       7.8130E+01 g/mol
          :  Hamiltonian                  GFN1-xTB          :
 * total energy  :   -57.7943609 Eh     change       -0.1165290E-10 Eh
 * total energy  :   -57.8043776 Eh     change       -0.1001669E-01 Eh
 * total energy  :   -57.8069408 Eh     change       -0.2563218E-02 Eh
 * total energy  :   -57.8073726 Eh     change       -0.4317218E-03 Eh
 * total energy  :   -57.8077104 Eh     change       -0.3378722E-03 Eh
 * total energy  :   -57.8079450 Eh     change       -0.2345630E-03 Eh
 * total energy  :   -57.8082235 Eh     change       -0.2784626E-03 Eh
 * total energy  :   -57.8084703 Eh     change       -0.2468946E-03 Eh
 * total energy  :   -57.8086357 Eh     change       -0.1653461E-03 Eh
 * total energy  :   -57.8087418 Eh     change       -0.1060790E-03 Eh
 * total energy  :   -57.8088571 Eh     change       -0.1960767E-04 Eh
 * total energy  :   -57.8088668 Eh     change       -0.9704090E-05 Eh
 * total energy  :   -57.8088813 Eh     change       -0.1444596E-04 Eh
 * total energy  :   -57.8088893 Eh     change       -0.8019495E-05 Eh
 * total energy  :   -57.8088996 Eh     change       -0.1030075E-04 Eh
 * total energy  :   -57.8089069 Eh     change       -0.7274826E-05 Eh
 * total energy  :   -57.8089135 Eh     change       -0.6635298E-05 Eh
 * total energy  :   -57.8089187 Eh     change       -0.5255915E-05 Eh
 * total energy  :   -57.8089221 Eh     change       -0.3340078E-05 Eh
   *** GEOMETRY OPTIMIZATION CONVERGED AFTER 22 ITERATIONS ***

 final structure:
================
33
 xtb: 6.5.1 (579679a)
C            4.04831521025789       -0.86394014263940       -0.69896506624628
O            2.68626858830750       -0.51638850812569       -0.30124694571764
C            2.42108527509092       -0.72304498376176        1.12480832595434
C            2.22284106167234        0.74527945119107       -0.93592094814918
O            3.05189658248809        1.37820973907340       -1.51344011905831
C            0.81323657327516        1.00190420114942       -0.83394433710790
N            0.02748367497487        0.09965955302904       -0.16896651822630
C           -1.24058466460567        0.31509279765617       -0.04210984283519
C           -2.04584874011925       -0.71061496929571        0.72785211745249
C           -2.25883553249097       -1.92051280098879       -0.19487427549747
C           -3.38624734226971       -0.16291526086981        1.23123770644742
N           -1.20125719581436       -1.12773175640244        1.84583229022531
N           -1.83643455282775        1.40134159386722       -0.60681907182361
C           -1.17544761103672        2.38078475754678       -1.32047760032778
O           -1.76101541458768        3.32796939659018       -1.79791702204743
C            0.28053565026836        2.13914062596230       -1.41984266785565
O            0.96620690213494        3.05235083235900       -2.07577544140861
H            4.21523812300726       -1.88380700930664       -0.36413916284626
H            4.08650563136414       -0.79856788143902       -1.78374749915819
H            4.75040685718227       -0.17005741154393       -0.23809451549338
H            2.82127865202472       -1.70404046013948        1.36806503824292
H            1.33898160222543       -0.71039881057008        1.25615627715784
H            2.91329810692626        0.05868442434796        1.70138516431126
H           -1.29181365941338       -2.33446523772973       -0.47766087324469
H           -2.79812454748848       -1.62173491419502       -1.09271426067017
H           -2.83413197249946       -2.68210232345565        0.32873463887126
H           -3.23005120679568        0.74227105118646        1.81550847423201
H           -4.05707050178199        0.05223547367696        0.40016550251824
H           -3.85731573780325       -0.91001888265250        1.86809765830162
H           -1.11952717989720       -0.36250538698667        2.50178777756409
H           -1.64121976975180       -1.90198784766298        2.32586396232560
H           -2.83261317537167        1.54007170570445       -0.50356811654484
H            1.92395931335695        2.86983698442612       -2.12527364934209

          :  Hamiltonian                  GFN1-xTB          :
         :: total energy             -57.808922087396 Eh    ::
         :: gradient norm              0.000435390394 Eh/a0 ::
         :: HOMO-LUMO gap              1.269381686751 eV    ::
         :: SCC energy               -58.389969718211 Eh    ::
         :: -> Gsolv                  -0.103967374596 Eh    ::
         :: repulsion energy           0.600324524391 Eh    ::

    * Orbital Energies and Occupations

         #    Occupation            Energy/Eh            Energy/eV
      -------------------------------------------------------------
         1        2.0000           -0.9313521             -25.3434
       ...           ...                  ...                  ...
        35        2.0000           -0.5561122             -15.1326
        36        2.0000           -0.5466198             -14.8743
        37        2.0000           -0.5447842             -14.8243
        38        2.0000           -0.5311847             -14.4543
        39        2.0000           -0.5250056             -14.2861
        40        2.0000           -0.5177507             -14.0887
        41        2.0000           -0.5124293             -13.9439
        42        2.0000           -0.5103104             -13.8863
        43        2.0000           -0.4995020             -13.5921
        44        2.0000           -0.4853121             -13.2060
        45        2.0000           -0.4743073             -12.9066
        46        2.0000           -0.4584700             -12.4756
        47        2.0000           -0.4259436             -11.5905 (HOMO)
        48                         -0.3792946             -10.3211 (LUMO)
        49                         -0.3097380              -8.4284
        50                         -0.2860434              -7.7836
        51                         -0.1956765              -5.3246
        52                         -0.1818015              -4.9471
        53                         -0.1679353              -4.5698
        54                         -0.1459215              -3.9707
        55                         -0.1340618              -3.6480
        56                         -0.1321592              -3.5962
        57                         -0.1280208              -3.4836
        58                         -0.1195168              -3.2522
       ...                                ...                  ...
       100                          0.7200378              19.5932
      -------------------------------------------------------------
                  HL-Gap            0.0466489 Eh            1.2694 eV

Wiberg/Mayer (AO) data.
largest (>0.10) Wiberg bond orders for each atom

     #   Z sym  total        # sym  WBO       # sym  WBO       # sym  WBO
 ---------------------------------------------------------------------------
     1   6 C    3.783 --    20 H    0.979    18 H    0.977    19 H    0.974
                             2 O    0.811
     2   8 O    2.504 --     1 C    0.811     3 C    0.795     4 C    0.777
     3   6 C    3.768 --    23 H    0.982    21 H    0.977    22 H    0.956
                             2 O    0.795
     4   6 C    3.805 --     5 O    1.749     6 C    1.127     2 O    0.777
     5   8 O    2.067 --     4 C    1.749
     6   6 C    3.960 --    16 C    1.408     7 N    1.165     4 C    1.127
     7   7 N    3.044 --     8 C    1.568     6 C    1.165
     8   6 C    3.909 --     7 N    1.568    13 N    1.178     9 C    0.978
     9   6 C    3.964 --    11 C    0.991    12 N    0.985     8 C    0.978
                            10 C    0.974
    10   6 C    3.991 --    25 H    0.986    24 H    0.985    26 H    0.982
                             9 C    0.974
    11   6 C    3.992 --     9 C    0.991    27 H    0.984    29 H    0.981
                            28 H    0.980
    12   7 N    2.962 --     9 C    0.985    30 H    0.941    31 H    0.937
    13   7 N    3.472 --     8 C    1.178    14 C    1.130    32 H    0.875
                            15 O    0.141
    14   6 C    3.913 --    15 O    1.635    13 N    1.130    16 C    1.026
    15   8 O    1.937 --    14 C    1.635    13 N    0.141
    16   6 C    3.909 --     6 C    1.408    17 O    1.177    14 C    1.026
    17   8 O    2.153 --    16 C    1.177    33 H    0.781
    18   1 H    0.995 --     1 C    0.977
    19   1 H    0.997 --     1 C    0.974
    20   1 H    0.994 --     1 C    0.979
    21   1 H    0.994 --     3 C    0.977
    22   1 H    1.038 --     3 C    0.956
    23   1 H    0.992 --     3 C    0.982
    24   1 H    1.007 --    10 C    0.985
    25   1 H    1.001 --    10 C    0.986
    26   1 H    0.998 --    10 C    0.982
    27   1 H    0.999 --    11 C    0.984
    28   1 H    0.998 --    11 C    0.980
    29   1 H    1.000 --    11 C    0.981
    30   1 H    0.956 --    12 N    0.941
    31   1 H    0.951 --    12 N    0.937
    32   1 H    0.923 --    13 N    0.875
    33   1 H    0.831 --    17 O    0.781
 ---------------------------------------------------------------------------

           -------------------------------------------------
          | TOTAL ENERGY              -57.808922087396 Eh   |
          | GRADIENT NORM               0.000435390394 Eh/α |
          | HOMO-LUMO GAP               1.269381686751 eV   |
           -------------------------------------------------

 * finished run on 2023/06/20 at 15:10:14.205
