   * xtb version 6.5.1 (579679a) compiled by 'ehlert@majestix' on 2022-07-11
          program call               : /lustre/hpc/kemi/ree/PhD/git/ReactivityQM/dep/xtb-6.5.1/bin/xtb --gfn 1 /lustre/hpc/kemi/ree/PhD/git/ReactivityQM/calculations/R02methylcation/reac01/conf04/R02methylcation_reac01_conf04_gfn1.xyz --opt --vfukui --chrg -1 --uhf 0 --alpb DMSO

   ID    Z sym.   atoms
    1    6 C      1, 3, 5, 7-10, 12, 14, 17, 18, 21, 23
    2    8 O      2, 4, 13, 19, 22, 24
    3    7 N      6, 11, 15, 16, 20
    4    1 H      25-38

      * Solvation model:               ALPB
        Solvent                        DMSO
        Solvent mass                       7.8130E+01 g/mol
          :  Hamiltonian                  GFN1-xTB          :
 * total energy  :   -79.6041554 Eh     change       -0.3683454E-10 Eh
 * total energy  :   -79.6161336 Eh     change       -0.1197814E-01 Eh
 * total energy  :   -79.6203314 Eh     change       -0.4197827E-02 Eh
 * total energy  :   -79.6209338 Eh     change       -0.6024314E-03 Eh
 * total energy  :   -79.6213707 Eh     change       -0.4368616E-03 Eh
 * total energy  :   -79.6215958 Eh     change       -0.2250814E-03 Eh
 * total energy  :   -79.6218027 Eh     change       -0.2068782E-03 Eh
 * total energy  :   -79.6219514 Eh     change       -0.1487644E-03 Eh
 * total energy  :   -79.6220517 Eh     change       -0.1003232E-03 Eh
 * total energy  :   -79.6221265 Eh     change       -0.7477799E-04 Eh
 * total energy  :   -79.6227464 Eh     change       -0.2796169E-04 Eh
 * total energy  :   -79.6227558 Eh     change       -0.9379199E-05 Eh
 * total energy  :   -79.6227779 Eh     change       -0.2210131E-04 Eh
 * total energy  :   -79.6227549 Eh     change        0.2293883E-04 Eh
 * total energy  :   -79.6227840 Eh     change       -0.2909422E-04 Eh
 * total energy  :   -79.6227953 Eh     change       -0.1131598E-04 Eh
 * total energy  :   -79.6228024 Eh     change       -0.7044983E-05 Eh
 * total energy  :   -79.6228122 Eh     change       -0.9766843E-05 Eh
 * total energy  :   -79.6228162 Eh     change       -0.4002620E-05 Eh
   *** GEOMETRY OPTIMIZATION CONVERGED AFTER 31 ITERATIONS ***

 final structure:
================
38
 xtb: 6.5.1 (579679a)
C           -6.09410879844432        2.08043370719087        0.60957981956717
O           -4.97820026702737        1.64794396737862       -0.15546982857665
C           -4.01729935331385        0.97632878518150        0.52831591470515
O           -4.13885926807842        0.76814536236192        1.73032133971555
C           -2.88051517871886        0.55316602237403       -0.27545314921347
N           -1.92285259250707       -0.11162244900348        0.46811984394923
C           -0.85481650723665       -0.55291643572090       -0.08063351996781
C            0.16144567100336       -1.32993967818768        0.73034455128331
C           -0.11799553818661       -1.13793682949234        2.22440322831238
C            0.08574503547719       -2.81344074632627        0.33803627330418
N            1.49749260545460       -0.80232120012782        0.40496697977620
C            2.63250549077560       -1.28283066401178        0.94233651982719
O            2.71346265354493       -2.21909738246642        1.72316464179701
C            3.84384811793271       -0.54982044025296        0.48551296906129
N            5.07272379029518       -0.75563147327031        0.84711545991835
N            5.83788401946142        0.15374717020743        0.17855986394229
C            5.02899418409636        0.85792025206640       -0.55012069110686
C            5.36831360032571        1.96698999503083       -1.46808493689711
O            3.75298041417853        0.46512601068895       -0.40130417823418
N           -0.61340502206036       -0.40238437098665       -1.43372627925043
C           -1.47375520839721        0.23818414949999       -2.29070597337439
O           -1.18425109010757        0.33909196542161       -3.47988524477625
C           -2.74607320888511        0.77592480462315       -1.67096498318459
O           -3.56442809431069        1.35598368625951       -2.40750408390764
H           -6.77902620487438        2.57754293792742       -0.07641308814244
H           -5.78068931319300        2.78047161646615        1.39067664694885
H           -6.59522015769422        1.22894679732971        1.08093984068564
H            0.56122419021535       -1.74369103305538        2.82050536867599
H            0.00656254345971       -0.08921417653046        2.49138977846541
H           -1.14452380621532       -1.43422091972948        2.43753993988287
H            0.78114476379438       -3.40300620214940        0.93217643714623
H            0.33094667087790       -2.93304126278305       -0.71591023605440
H           -0.92543825095022       -3.17998025202219        0.51041670522586
H            1.55729114992188        0.00930931428144       -0.18832568639030
H            6.42285306736155        2.21342847943562       -1.36989281375797
H            5.15951422193738        1.67363250496480       -2.49745343961230
H            4.76128584723454        2.84210915575342       -1.23693924057096
H            0.23524082284810       -0.76333416832122       -1.83531374917211

          :  Hamiltonian                  GFN1-xTB          :
         :: total energy             -79.622816160022 Eh    ::
         :: gradient norm              0.000659932908 Eh/a0 ::
         :: HOMO-LUMO gap              1.658186497550 eV    ::
         :: SCC energy               -80.349544141732 Eh    ::
         :: -> Gsolv                  -0.121297527742 Eh    ::
         :: repulsion energy           0.749488834315 Eh    ::

    * Orbital Energies and Occupations

         #    Occupation            Energy/Eh            Energy/eV
      -------------------------------------------------------------
         1        2.0000           -0.8608242             -23.4242
       ...           ...                  ...                  ...
        52        2.0000           -0.4836508             -13.1608
        53        2.0000           -0.4746436             -12.9157
        54        2.0000           -0.4636781             -12.6173
        55        2.0000           -0.4581458             -12.4668
        56        2.0000           -0.4544888             -12.3673
        57        2.0000           -0.4540419             -12.3551
        58        2.0000           -0.4459715             -12.1355
        59        2.0000           -0.4394894             -11.9591
        60        2.0000           -0.4385365             -11.9332
        61        2.0000           -0.4349440             -11.8354
        62        2.0000           -0.4153358             -11.3019
        63        2.0000           -0.3776519             -10.2764
        64        2.0000           -0.3648464              -9.9280 (HOMO)
        65                         -0.3039092              -8.2698 (LUMO)
        66                         -0.2689028              -7.3172
        67                         -0.2526983              -6.8763
        68                         -0.2384872              -6.4896
        69                         -0.1958874              -5.3304
        70                         -0.1920039              -5.2247
        71                         -0.1397425              -3.8026
        72                         -0.1205201              -3.2795
        73                         -0.1159179              -3.1543
        74                         -0.1116823              -3.0390
        75                         -0.1072686              -2.9189
       ...                                ...                  ...
       124                          0.7572577              20.6060
      -------------------------------------------------------------
                  HL-Gap            0.0609372 Eh            1.6582 eV

Wiberg/Mayer (AO) data.
largest (>0.10) Wiberg bond orders for each atom

     #   Z sym  total        # sym  WBO       # sym  WBO       # sym  WBO
 ---------------------------------------------------------------------------
     1   6 C    3.899 --    25 H    0.987    26 H    0.981    27 H    0.980
                             2 O    0.925
     2   8 O    2.160 --     3 C    1.048     1 C    0.925     4 O    0.110
     3   6 C    3.850 --     4 O    1.575     5 C    1.114     2 O    1.048
     4   8 O    1.850 --     3 C    1.575     2 O    0.110
     5   6 C    3.915 --    23 C    1.271     6 N    1.153     3 C    1.114
                            24 O    0.130
     6   7 N    3.033 --     7 C    1.638     5 C    1.153
     7   6 C    3.933 --     6 N    1.638    20 N    1.088     8 C    0.979
     8   6 C    3.929 --     9 C    0.993    10 C    0.982     7 C    0.979
                            11 N    0.911
     9   6 C    3.991 --     8 C    0.993    29 H    0.986    28 H    0.984
                            30 H    0.983
    10   6 C    3.989 --    33 H    0.986    32 H    0.985     8 C    0.982
                            31 H    0.980
    11   7 N    3.359 --    12 C    1.275     8 C    0.911    34 H    0.896
                            13 O    0.180
    12   6 C    3.919 --    13 O    1.575    11 N    1.275    14 C    0.988
    13   8 O    1.894 --    12 C    1.575    11 N    0.180
    14   6 C    3.870 --    15 N    1.624    19 O    1.048    12 C    0.988
    15   7 N    2.997 --    14 C    1.624    16 N    1.196
    16   7 N    2.981 --    17 C    1.613    15 N    1.196
    17   6 C    3.870 --    16 N    1.613    19 O    1.072    18 C    1.031
    18   6 C    3.987 --    17 C    1.031    35 H    0.982    37 H    0.966
                            36 H    0.961
    19   8 O    2.316 --    17 C    1.072    14 C    1.048
    20   7 N    3.421 --    21 C    1.157     7 C    1.088    38 H    0.897
                            22 O    0.135
    21   6 C    3.877 --    22 O    1.582    20 N    1.157    23 C    0.967
    22   8 O    1.862 --    21 C    1.582    20 N    0.135
    23   6 C    3.943 --    24 O    1.521     5 C    1.271    21 C    0.967
    24   8 O    1.827 --    23 C    1.521     5 C    0.130
    25   1 H    1.016 --     1 C    0.987
    26   1 H    1.014 --     1 C    0.981
    27   1 H    1.014 --     1 C    0.980
    28   1 H    1.011 --     9 C    0.984
    29   1 H    1.008 --     9 C    0.986
    30   1 H    1.016 --     9 C    0.983
    31   1 H    1.011 --    10 C    0.980
    32   1 H    1.003 --    10 C    0.985
    33   1 H    1.004 --    10 C    0.986
    34   1 H    0.942 --    11 N    0.896
    35   1 H    0.999 --    18 C    0.982
    36   1 H    0.997 --    18 C    0.961
    37   1 H    0.997 --    18 C    0.966
    38   1 H    0.944 --    20 N    0.897
 ---------------------------------------------------------------------------

           -------------------------------------------------
          | TOTAL ENERGY              -79.622816160022 Eh   |
          | GRADIENT NORM               0.000659932908 Eh/α |
          | HOMO-LUMO GAP               1.658186497550 eV   |
           -------------------------------------------------

 * finished run on 2023/06/21 at 17:04:06.300
