   * xtb version 6.5.1 (579679a) compiled by 'ehlert@majestix' on 2022-07-11
          program call               : /lustre/hpc/kemi/ree/PhD/git/ReactivityQM/dep/xtb-6.5.1/bin/xtb --gfn 1 /lustre/hpc/kemi/ree/PhD/git/ReactivityQM/calculations/R02deprot/reac01prodN18/conf19/R02deprot_reac01prodN18_conf19_gfn1.xyz --opt --vfukui --chrg 0 --uhf 0 --alpb DMSO

   ID    Z sym.   atoms
    1    6 C      1, 3, 5, 7-10, 12, 13, 15, 18, 19, 22, 24
    2    8 O      2, 4, 14, 20, 23, 25
    3    7 N      6, 11, 16, 17, 21
    4    1 H      26-42

      * Solvation model:               ALPB
        Solvent                        DMSO
        Solvent mass                       7.8130E+01 g/mol
          :  Hamiltonian                  GFN1-xTB          :
 * total energy  :   -82.9360130 Eh     change       -0.5098855E-10 Eh
 * total energy  :   -82.9486482 Eh     change       -0.1263516E-01 Eh
 * total energy  :   -82.9523950 Eh     change       -0.3746821E-02 Eh
 * total energy  :   -82.9530782 Eh     change       -0.6831882E-03 Eh
 * total energy  :   -82.9535015 Eh     change       -0.4233413E-03 Eh
 * total energy  :   -82.9537535 Eh     change       -0.2519094E-03 Eh
 * total energy  :   -82.9540382 Eh     change       -0.2847407E-03 Eh
 * total energy  :   -82.9543612 Eh     change       -0.3229748E-03 Eh
 * total energy  :   -82.9546844 Eh     change       -0.3232124E-03 Eh
 * total energy  :   -82.9549786 Eh     change       -0.2942023E-03 Eh
 * total energy  :   -82.9573938 Eh     change       -0.2072933E-04 Eh
 * total energy  :   -82.9574045 Eh     change       -0.1070952E-04 Eh
 * total energy  :   -82.9574192 Eh     change       -0.1465089E-04 Eh
 * total energy  :   -82.9574276 Eh     change       -0.8398078E-05 Eh
 * total energy  :   -82.9574347 Eh     change       -0.7115527E-05 Eh
 * total energy  :   -82.9574457 Eh     change       -0.1098645E-04 Eh
 * total energy  :   -82.9574630 Eh     change       -0.1731934E-04 Eh
 * total energy  :   -82.9574698 Eh     change       -0.6803325E-05 Eh
 * total energy  :   -82.9574731 Eh     change       -0.3272127E-05 Eh
   *** GEOMETRY OPTIMIZATION CONVERGED AFTER 45 ITERATIONS ***

 final structure:
================
42
 xtb: 6.5.1 (579679a)
C            6.49153544707201       -0.29109205036934        0.75735311176725
O            5.14287295603126        0.14352004489864        0.92631156731837
C            4.22515699098845       -0.45336267621640        0.15374667761109
O            4.51727784191745       -1.31911388775938       -0.64658525542703
C            2.84703021486083        0.04673929513016        0.37245857613039
N            1.89971198393794       -0.55347765013956       -0.42592131696661
C            0.66940361561491       -0.14933642088485       -0.29306657063116
C           -0.40069647149767       -0.82539701035788       -1.13609656083549
C           -1.01109117650314       -1.96956627206755       -0.32328759407300
C            0.11428404955364       -1.30826364974944       -2.48134100391825
N           -1.45459563166692        0.26531898634922       -1.27267333103523
C           -1.11535336458049        1.32727174492137       -2.25000722638174
C           -2.80469382522660       -0.26019026397494       -1.57779149338166
O           -3.04660921861746       -0.68360104914203       -2.66951139932217
C           -3.72520795169638       -0.15935717788354       -0.46679302685954
N           -4.98671440822326       -0.50437491788668       -0.44235350138778
N           -5.44920276633367       -0.21005488494861        0.78101515033907
C           -4.45284834555856        0.30379673105117        1.45710716487134
C           -4.47130507059409        0.78902472910726        2.84895403568558
O           -3.34098645473900        0.35822860598397        0.72099316393282
N            0.17972889691497        0.78205137930561        0.53453044865682
C            1.04972371434561        1.42042773431465        1.36082244895339
O            0.73261685410988        2.30445693010575        2.16844829345762
C            2.46117608400328        1.01691234791909        1.25823472643325
O            3.28934843703247        1.67921950842334        2.08601040061503
H            7.09790325791745        0.28713548661406        1.45233224548183
H            6.82221498129154       -0.11231516343292       -0.26943479603874
H            6.57758683893342       -1.35811494952067        0.98035207519410
H           -1.43756554474942       -1.58416873733593        0.60148818867665
H           -0.21976948948061       -2.67579996351926       -0.07460405500945
H           -1.78186869954837       -2.49077467571395       -0.88844281881825
H           -0.70085039726059       -1.68157653573263       -3.09853598312551
H            0.82296729591624       -2.11512031959382       -2.29552310217717
H            0.63888757546144       -0.51406292831034       -3.00899612575470
H           -1.38101126048119        0.71151171467956       -0.31391384301816
H           -1.19185876913623        0.93104884915167       -3.25842512053889
H           -1.82434650824240        2.14002991516453       -2.11129366196764
H           -0.10576010059194        1.66865550656750       -2.03522414001672
H           -4.18497401029412        1.84011485635759        2.87734067711427
H           -5.46759076301470        0.66793122305683        3.26595035264799
H           -3.75154736098113        0.23039808262729        3.44655797391205
H            2.72701755312091        2.30532451280772        2.58978564787667

          :  Hamiltonian                  GFN1-xTB          :
         :: total energy             -82.957473088704 Eh    ::
         :: gradient norm              0.000661758745 Eh/a0 ::
         :: HOMO-LUMO gap              0.523251899121 eV    ::
         :: SCC energy               -83.723631225754 Eh    ::
         :: -> Gsolv                  -0.063370496808 Eh    ::
         :: repulsion energy           0.793869335132 Eh    ::

    * Orbital Energies and Occupations

         #    Occupation            Energy/Eh            Energy/eV
      -------------------------------------------------------------
         1        2.0000           -0.8955701             -24.3697
       ...           ...                  ...                  ...
        55        2.0000           -0.5066154             -13.7857
        56        2.0000           -0.5004696             -13.6185
        57        2.0000           -0.4937956             -13.4369
        58        2.0000           -0.4923396             -13.3972
        59        2.0000           -0.4839524             -13.1690
        60        2.0000           -0.4838235             -13.1655
        61        2.0000           -0.4796307             -13.0514
        62        2.0000           -0.4637842             -12.6202
        63        2.0000           -0.4582185             -12.4688
        64        2.0000           -0.4392770             -11.9533
        65        2.0000           -0.4226642             -11.5013
        66        2.0000           -0.3979989             -10.8301
        67        1.9999           -0.3907725             -10.6335 (HOMO)
        68        0.0001           -0.3715434             -10.1102 (LUMO)
        69                         -0.2895954              -7.8803
        70                         -0.2837829              -7.7221
        71                         -0.2514011              -6.8410
        72                         -0.2458770              -6.6907
        73                         -0.2052096              -5.5840
        74                         -0.1570498              -4.2735
        75                         -0.1519343              -4.1343
        76                         -0.1340358              -3.6473
        77                         -0.1305725              -3.5531
        78                         -0.1291049              -3.5131
       ...                                ...                  ...
       134                          0.7388103              20.1041
      -------------------------------------------------------------
                  HL-Gap            0.0192292 Eh            0.5233 eV

Wiberg/Mayer (AO) data.
largest (>0.10) Wiberg bond orders for each atom

     #   Z sym  total        # sym  WBO       # sym  WBO       # sym  WBO
 ---------------------------------------------------------------------------
     1   6 C    3.883 --    26 H    0.986    27 H    0.980    28 H    0.980
                             2 O    0.907
     2   8 O    2.190 --     3 C    1.093     1 C    0.907     4 O    0.127
     3   6 C    3.842 --     4 O    1.638     2 O    1.093     5 C    1.021
     4   8 O    1.900 --     3 C    1.638     2 O    0.127
     5   6 C    3.959 --    24 C    1.494     6 N    1.180     3 C    1.021
     6   7 N    3.000 --     7 C    1.510     5 C    1.180
     7   6 C    3.961 --     6 N    1.510    21 N    1.325     8 C    0.963
     8   6 C    3.878 --    10 C    1.007     9 C    0.991     7 C    0.963
                            11 N    0.833
     9   6 C    3.989 --     8 C    0.991    29 H    0.983    31 H    0.981
                            30 H    0.979
    10   6 C    3.989 --     8 C    1.007    32 H    0.982    34 H    0.981
                            33 H    0.975
    11   7 N    3.590 --    12 C    0.907    13 C    0.896     8 C    0.833
                            35 H    0.803
    12   6 C    3.899 --    37 H    0.983    36 H    0.983    38 H    0.980
                            11 N    0.907
    13   6 C    3.881 --    14 O    1.764    15 C    1.076    11 N    0.896
    14   8 O    2.029 --    13 C    1.764
    15   6 C    3.883 --    16 N    1.539    13 C    1.076    20 O    1.041
    16   7 N    3.014 --    15 C    1.539    17 N    1.273
    17   7 N    2.989 --    18 C    1.531    16 N    1.273
    18   6 C    3.853 --    17 N    1.531    20 O    1.100    19 C    1.040
    19   6 C    3.979 --    18 C    1.040    40 H    0.981    39 H    0.954
                            41 H    0.954
    20   8 O    2.341 --    18 C    1.100    15 C    1.041
    21   7 N    3.060 --     7 C    1.325    22 C    1.228    23 O    0.128
                            35 H    0.121
    22   6 C    3.924 --    23 O    1.504    21 N    1.228    24 C    1.057
    23   8 O    1.838 --    22 C    1.504    21 N    0.128
    24   6 C    3.906 --     5 C    1.494    25 O    1.089    22 C    1.057
    25   8 O    2.064 --    24 C    1.089    42 H    0.809
    26   1 H    1.013 --     1 C    0.986
    27   1 H    1.010 --     1 C    0.980
    28   1 H    1.010 --     1 C    0.980
    29   1 H    1.003 --     9 C    0.983
    30   1 H    1.000 --     9 C    0.979
    31   1 H    0.998 --     9 C    0.981
    32   1 H    1.003 --    10 C    0.982
    33   1 H    1.008 --    10 C    0.975
    34   1 H    1.003 --    10 C    0.981
    35   1 H    0.965 --    11 N    0.803    21 N    0.121
    36   1 H    0.999 --    12 C    0.983
    37   1 H    0.992 --    12 C    0.983
    38   1 H    0.998 --    12 C    0.980
    39   1 H    0.991 --    19 C    0.954
    40   1 H    0.996 --    19 C    0.981
    41   1 H    0.992 --    19 C    0.954
    42   1 H    0.866 --    25 O    0.809
 ---------------------------------------------------------------------------

           -------------------------------------------------
          | TOTAL ENERGY              -82.957473088704 Eh   |
          | GRADIENT NORM               0.000661758745 Eh/α |
          | HOMO-LUMO GAP               0.523251899121 eV   |
           -------------------------------------------------

 * finished run on 2023/06/20 at 18:29:36.533
