   * xtb version 6.5.1 (579679a) compiled by 'ehlert@majestix' on 2022-07-11
          program call               : /lustre/hpc/kemi/ree/PhD/git/ReactivityQM/dep/xtb-6.5.1/bin/xtb --gfn 1 /lustre/hpc/kemi/ree/PhD/git/ReactivityQM/calculations/RaltegravirCLI/reac02prodN04/conf03/RaltegravirCLI_reac02prodN04_conf03_gfn1.xyz --opt --vfukui --chrg 1 --uhf 0 --alpb DMSO

   ID    Z sym.   atoms
    1    6 C      1, 3-6, 9-11, 14-18, 20-22, 24
    2    7 N      2, 7, 8, 13
    3    8 O      12, 23, 25
    4    9 F      19
    5    1 H      26-47

      * Solvation model:               ALPB
        Solvent                        DMSO
        Solvent mass                       7.8130E+01 g/mol
          :  Hamiltonian                  GFN1-xTB          :
 * total energy  :   -79.4979169 Eh     change       -0.2316369E-10 Eh
 * total energy  :   -79.5135777 Eh     change       -0.1566073E-01 Eh
 * total energy  :   -79.5189271 Eh     change       -0.5349385E-02 Eh
 * total energy  :   -79.5201089 Eh     change       -0.1181870E-02 Eh
 * total energy  :   -79.5209743 Eh     change       -0.8654194E-03 Eh
 * total energy  :   -79.5214769 Eh     change       -0.5025865E-03 Eh
 * total energy  :   -79.5219303 Eh     change       -0.4533575E-03 Eh
 * total energy  :   -79.5222535 Eh     change       -0.3231684E-03 Eh
 * total energy  :   -79.5225231 Eh     change       -0.2696027E-03 Eh
 * total energy  :   -79.5226716 Eh     change       -0.1485434E-03 Eh
 * total energy  :   -79.5236807 Eh     change       -0.2761929E-04 Eh
 * total energy  :   -79.5237097 Eh     change       -0.2896763E-04 Eh
 * total energy  :   -79.5237369 Eh     change       -0.2722913E-04 Eh
 * total energy  :   -79.5237609 Eh     change       -0.2396806E-04 Eh
 * total energy  :   -79.5237949 Eh     change       -0.3400966E-04 Eh
 * total energy  :   -79.5238094 Eh     change       -0.1449819E-04 Eh
 * total energy  :   -79.5238233 Eh     change       -0.1394382E-04 Eh
 * total energy  :   -79.5238330 Eh     change       -0.9705579E-05 Eh
 * total energy  :   -79.5238378 Eh     change       -0.4770029E-05 Eh
   *** GEOMETRY OPTIMIZATION CONVERGED AFTER 35 ITERATIONS ***

 final structure:
================
47
 xtb: 6.5.1 (579679a)
C           -3.73048384213082        0.66526852219874        2.38713167474265
N           -2.55390372971457        0.13104764294854        1.67969207355327
C           -2.38094100558049        0.17880024933795        0.34272294588680
C           -3.58955139970004        0.40453788752922       -0.58028262548167
C           -3.81940519042260        1.89706045076424       -0.85682048376184
C           -3.48088747524267       -0.37986034330666       -1.90448153692862
N           -4.75467358109455       -0.12558583392771        0.12054155740463
N           -1.16063384947015       -0.08350865052396       -0.13992411276208
C           -0.73977327096263        0.38969999653936       -1.47008650490906
C           -0.15340522246332       -0.67315752770418        0.62049724502650
C            1.05723840770417       -1.23476850891770       -0.09745413755991
O            0.96868258518261       -1.69837332347024       -1.22414609256643
N            2.18074432704394       -1.22076815555365        0.62312065349943
C            3.42628908552204       -1.76938183260873        0.09132019232699
C            4.34910734669019       -0.66790971814634       -0.38144095992002
C            5.66876465773482       -0.62215062184389        0.06000970542374
C            6.52663669620413        0.37627668719266       -0.38143229976885
C            6.03513868549271        1.32018646378758       -1.26464060336861
F            6.85576857813031        2.29007225670964       -1.69374748384388
C            4.72882371204852        1.30524837038073       -1.72135299593329
C            3.88686295456819        0.29851213387769       -1.27298228066504
C           -0.37984457129281       -0.86583073689096        1.94507511376713
O            0.49906962592395       -1.46099116362825        2.75525550299880
C           -1.60061662212629       -0.38716463240078        2.56532386969833
O           -1.79073654550702       -0.43727096218360        3.76394319208471
H           -4.21321754889003        1.42903428893367        1.79261834558843
H           -4.42571293850363       -0.14399407129226        2.59882843541277
H           -3.37237768291713        1.09518887642244        3.32298520080117
H           -2.95808343468170        2.34252277550928       -1.34972541519081
H           -4.00945173481553        2.44053909570679        0.06638597930677
H           -4.68498328971719        2.00105872608732       -1.50902334193959
H           -4.49391000982656       -0.56275147789213       -2.26074990463905
H           -2.99463072304099       -1.34065114036133       -1.74791813071861
H           -2.96092466334018        0.17505675527217       -2.68036942154363
H           -4.74237966474983       -1.13620221626530        0.07952600044857
H           -5.59093704165698        0.19640853503781       -0.34660707005710
H           -0.77738334637349       -0.42166056262467       -2.19374048082118
H            0.28423777761003        0.74634332470606       -1.38093115342500
H           -1.36869581147192        1.21648944397627       -1.77565680681181
H            2.20528221638537       -0.80227576075383        1.53664661060021
H            3.16555033641531       -2.42954078422953       -0.74256825894493
H            3.90076785331125       -2.35964512295406        0.87886002900509
H            6.03215753524328       -1.36983870453401        0.75519067039267
H            7.55389989611326        0.42372380420650       -0.04357028291550
H            4.38023276109844        2.06295426980121       -2.41059392660681
H            2.86014008617389        0.26689187035204       -1.61686895261267
H            0.16214707109284       -1.45964157526196        3.67102426573356

          :  Hamiltonian                  GFN1-xTB          :
         :: total energy             -79.523837793499 Eh    ::
         :: gradient norm              0.000496485300 Eh/a0 ::
         :: HOMO-LUMO gap              2.312872649177 eV    ::
         :: SCC energy               -80.424435762643 Eh    ::
         :: -> Gsolv                  -0.107336669955 Eh    ::
         :: repulsion energy           0.931947042739 Eh    ::

    * Orbital Energies and Occupations

         #    Occupation            Energy/Eh            Energy/eV
      -------------------------------------------------------------
         1        2.0000           -0.8796919             -23.9376
       ...           ...                  ...                  ...
        55        2.0000           -0.5208613             -14.1734
        56        2.0000           -0.5171998             -14.0737
        57        2.0000           -0.5154142             -14.0251
        58        2.0000           -0.5090489             -13.8519
        59        2.0000           -0.5055586             -13.7569
        60        2.0000           -0.5053803             -13.7521
        61        2.0000           -0.4806641             -13.0795
        62        2.0000           -0.4790785             -13.0364
        63        2.0000           -0.4702997             -12.7975
        64        2.0000           -0.4614521             -12.5568
        65        2.0000           -0.4581897             -12.4680
        66        2.0000           -0.4433663             -12.0646
        67        2.0000           -0.4373124             -11.8999 (HOMO)
        68                         -0.3523159              -9.5870 (LUMO)
        69                         -0.3505343              -9.5385
        70                         -0.2802797              -7.6268
        71                         -0.2745772              -7.4716
        72                         -0.2664592              -7.2507
        73                         -0.2088524              -5.6832
        74                         -0.1627395              -4.4284
        75                         -0.1528004              -4.1579
        76                         -0.1511638              -4.1134
        77                         -0.1453595              -3.9554
        78                         -0.1392829              -3.7901
       ...                                ...                  ...
       144                          0.6959137              18.9368
      -------------------------------------------------------------
                  HL-Gap            0.0849965 Eh            2.3129 eV

Wiberg/Mayer (AO) data.
largest (>0.10) Wiberg bond orders for each atom

     #   Z sym  total        # sym  WBO       # sym  WBO       # sym  WBO
 ---------------------------------------------------------------------------
     1   6 C    3.891 --    26 H    0.978    27 H    0.970    28 H    0.969
                             2 N    0.905
     2   7 N    3.541 --     3 C    1.296    24 C    1.073     1 C    0.905
                            25 O    0.117
     3   6 C    3.886 --     8 N    1.355     2 N    1.296     4 C    0.967
     4   6 C    3.954 --     7 N    0.991     6 C    0.981     5 C    0.978
                             3 C    0.967
     5   6 C    3.987 --    31 H    0.979     4 C    0.978    29 H    0.977
                            30 H    0.977
     6   6 C    3.988 --    33 H    0.984     4 C    0.981    34 H    0.979
                            32 H    0.978
     7   7 N    2.975 --     4 C    0.991    35 H    0.935    36 H    0.928
     8   7 N    3.563 --     3 C    1.355    10 C    1.094     9 C    0.905
     9   6 C    3.896 --    39 H    0.977    38 H    0.973    37 H    0.967
                             8 N    0.905
    10   6 C    3.920 --    22 C    1.538     8 N    1.094    11 C    0.960
    11   6 C    3.920 --    12 O    1.569    13 N    1.312    10 C    0.960
    12   8 O    1.912 --    11 C    1.569    13 N    0.186
    13   7 N    3.387 --    11 C    1.312    14 C    0.931    40 H    0.890
                            12 O    0.186
    14   6 C    3.933 --    15 C    0.995    42 H    0.973    41 H    0.962
                            13 N    0.931
    15   6 C    3.988 --    16 C    1.421    21 C    1.414    14 C    0.995
    16   6 C    3.993 --    17 C    1.440    15 C    1.421    43 H    0.970
                            20 C    0.110
    17   6 C    3.991 --    16 C    1.440    18 C    1.402    44 H    0.969
                            21 C    0.111
    18   6 C    3.862 --    17 C    1.402    20 C    1.397    19 F    0.929
    19   9 F    1.059 --    18 C    0.929
    20   6 C    3.992 --    21 C    1.448    18 C    1.397    45 H    0.969
                            16 C    0.110
    21   6 C    3.994 --    20 C    1.448    15 C    1.414    46 H    0.970
                            17 C    0.111
    22   6 C    3.927 --    10 C    1.538    23 O    1.108    24 C    1.065
    23   8 O    2.087 --    22 C    1.108    47 H    0.790
    24   6 C    3.909 --    25 O    1.622     2 N    1.073    22 C    1.065
    25   8 O    1.953 --    24 C    1.622     2 N    0.117
    26   1 H    1.018 --     1 C    0.978
    27   1 H    1.012 --     1 C    0.970
    28   1 H    1.002 --     1 C    0.969
    29   1 H    1.001 --     5 C    0.977
    30   1 H    1.001 --     5 C    0.977
    31   1 H    0.994 --     5 C    0.979
    32   1 H    0.998 --     6 C    0.978
    33   1 H    0.997 --     6 C    0.984
    34   1 H    0.999 --     6 C    0.979
    35   1 H    0.948 --     7 N    0.935
    36   1 H    0.944 --     7 N    0.928
    37   1 H    1.009 --     9 C    0.967
    38   1 H    1.001 --     9 C    0.973
    39   1 H    1.004 --     9 C    0.977
    40   1 H    0.937 --    13 N    0.890
    41   1 H    1.007 --    14 C    0.962
    42   1 H    1.001 --    14 C    0.973
    43   1 H    0.998 --    16 C    0.970
    44   1 H    0.997 --    17 C    0.969
    45   1 H    0.997 --    20 C    0.969
    46   1 H    1.003 --    21 C    0.970
    47   1 H    0.824 --    23 O    0.790
 ---------------------------------------------------------------------------

           -------------------------------------------------
          | TOTAL ENERGY              -79.523837793499 Eh   |
          | GRADIENT NORM               0.000496485300 Eh/α |
          | HOMO-LUMO GAP               2.312872649177 eV   |
           -------------------------------------------------

 * finished run on 2023/06/20 at 15:20:04.413
