   * xtb version 6.5.1 (579679a) compiled by 'ehlert@majestix' on 2022-07-11
          program call               : /lustre/hpc/kemi/ree/PhD/git/ReactivityQM/dep/xtb-6.5.1/bin/xtb --gfn 1 /lustre/hpc/kemi/ree/PhD/git/ReactivityQM/calculations/RaltegravirCLI/reac01prodE01/conf03/RaltegravirCLI_reac01prodE01_conf03_gfn1.xyz --opt --vfukui --chrg -1 --uhf 0 --alpb DMSO

   ID    Z sym.   atoms
    1    6 C      1, 2, 5-7
    2    7 N      3, 4
    3    8 O      8, 10
    4   17 Cl     9
    5    1 H      11-16

      * Solvation model:               ALPB
        Solvent                        DMSO
        Solvent mass                       7.8130E+01 g/mol
          :  Hamiltonian                  GFN1-xTB          :
 * total energy  :   -34.1577132 Eh     change       -0.5073275E-11 Eh
 * total energy  :   -34.1692449 Eh     change       -0.1153173E-01 Eh
 * total energy  :   -34.1794217 Eh     change       -0.1017677E-01 Eh
 * total energy  :   -34.1829905 Eh     change       -0.3568816E-02 Eh
 * total energy  :   -34.1893258 Eh     change       -0.6335276E-02 Eh
 * total energy  :   -34.1949497 Eh     change       -0.5623918E-02 Eh
 * total energy  :   -34.1994497 Eh     change       -0.4500005E-02 Eh
 * total energy  :   -34.2017165 Eh     change       -0.2266821E-02 Eh
 * total energy  :   -34.2032476 Eh     change       -0.1531130E-02 Eh
 * total energy  :   -34.2037283 Eh     change       -0.4806529E-03 Eh
 * total energy  :   -34.2078819 Eh     change       -0.6144578E-04 Eh
 * total energy  :   -34.2079201 Eh     change       -0.3816414E-04 Eh
 * total energy  :   -34.2079435 Eh     change       -0.2336111E-04 Eh
 * total energy  :   -34.2079494 Eh     change       -0.5955612E-05 Eh
 * total energy  :   -34.2079512 Eh     change       -0.1772042E-05 Eh
 * total energy  :   -34.2079574 Eh     change       -0.6199203E-05 Eh
 * total energy  :   -34.2079635 Eh     change       -0.6103721E-05 Eh
 * total energy  :   -34.2079745 Eh     change       -0.1100179E-04 Eh
 * total energy  :   -34.2079784 Eh     change       -0.3911067E-05 Eh
   *** GEOMETRY OPTIMIZATION CONVERGED AFTER 44 ITERATIONS ***

 final structure:
================
16
 xtb: 6.5.1 (579679a)
C            3.25436249925296       -0.10648493990618       -0.01402853034195
C            1.78982761057274       -0.30550945156060        0.06256363692220
N            1.14591188693067       -1.19296888704347        0.76354415158575
N           -0.17368862779116       -0.98971849634724        0.52720560955370
C           -0.26380680178348        0.00874577255799       -0.30332576202838
C           -1.50516213987161        0.58670957911676       -0.86698117444285
C           -2.75868798791408       -0.05455966404616       -0.35530573461830
O           -1.48401570570837        1.49561232783998       -1.66531632670564
Cl          -2.65681735938200        0.87373769114342        3.20423342829611
O            0.96039013311762        0.47892176630601       -0.63060754648999
H            3.60141173452954        0.45032109732852        0.85721293606200
H            3.76017403663229       -1.06955466940683       -0.02685993733047
H            3.50553287061022        0.45519107903277       -0.91032912890053
H           -3.61733638757097        0.29639132596966       -0.92132179454930
H           -2.67822556493143       -1.13762872844069       -0.41895334667303
H           -2.87987119669519        0.21079419745490        0.69826851966342

          :  Hamiltonian                  GFN1-xTB          :
         :: total energy             -34.207978403417 Eh    ::
         :: gradient norm              0.000472373832 Eh/a0 ::
         :: HOMO-LUMO gap              3.358463155187 eV    ::
         :: SCC energy               -34.492333556363 Eh    ::
         :: -> Gsolv                  -0.110499714245 Eh    ::
         :: repulsion energy           0.291126956077 Eh    ::

    * Orbital Energies and Occupations

         #    Occupation            Energy/Eh            Energy/eV
      -------------------------------------------------------------
         1        2.0000           -0.8614483             -23.4412
       ...           ...                  ...                  ...
        16        2.0000           -0.5465987             -14.8737
        17        2.0000           -0.5414094             -14.7325
        18        2.0000           -0.5325980             -14.4927
        19        2.0000           -0.5213820             -14.1875
        20        2.0000           -0.5166827             -14.0597
        21        2.0000           -0.5034930             -13.7007
        22        2.0000           -0.4798078             -13.0562
        23        2.0000           -0.4742079             -12.9039
        24        2.0000           -0.4742010             -12.9037
        25        2.0000           -0.4724140             -12.8550
        26        2.0000           -0.4586474             -12.4804
        27        2.0000           -0.4538655             -12.3503
        28        2.0000           -0.4473987             -12.1743 (HOMO)
        29                         -0.3239774              -8.8159 (LUMO)
        30                         -0.2560290              -6.9669
        31                         -0.2095929              -5.7033
        32                         -0.1428385              -3.8868
        33                         -0.1227515              -3.3402
        34                         -0.0754775              -2.0538
        35                         -0.0732246              -1.9925
        36                         -0.0630921              -1.7168
        37                         -0.0483707              -1.3162
        38                          0.0348548               0.9484
        39                          0.0356265               0.9694
       ...                                ...                  ...
        57                          0.7118078              19.3693
      -------------------------------------------------------------
                  HL-Gap            0.1234212 Eh            3.3585 eV

Wiberg/Mayer (AO) data.
largest (>0.10) Wiberg bond orders for each atom

     #   Z sym  total        # sym  WBO       # sym  WBO       # sym  WBO
 ---------------------------------------------------------------------------
     1   6 C    3.987 --     2 C    1.030    13 H    0.980    12 H    0.973
                            11 H    0.957
     2   6 C    3.873 --     3 N    1.582    10 O    1.100     1 C    1.030
     3   7 N    2.981 --     2 C    1.582     4 N    1.223
     4   7 N    3.010 --     5 C    1.595     3 N    1.223
     5   6 C    3.870 --     4 N    1.595    10 O    1.048     6 C    1.012
     6   6 C    3.864 --     8 O    1.746     7 C    1.014     5 C    1.012
     7   6 C    3.990 --     6 C    1.014    14 H    0.983    15 H    0.966
                            16 H    0.937
     8   8 O    1.971 --     6 C    1.746
     9  17 Cl   0.038
    10   8 O    2.333 --     2 C    1.100     5 C    1.048
    11   1 H    0.996 --     1 C    0.957
    12   1 H    0.998 --     1 C    0.973
    13   1 H    0.997 --     1 C    0.980
    14   1 H    1.001 --     7 C    0.983
    15   1 H    1.004 --     7 C    0.966
    16   1 H    1.016 --     7 C    0.937
 ---------------------------------------------------------------------------

           -------------------------------------------------
          | TOTAL ENERGY              -34.207978403417 Eh   |
          | GRADIENT NORM               0.000472373832 Eh/α |
          | HOMO-LUMO GAP               3.358463155187 eV   |
           -------------------------------------------------

 * finished run on 2023/06/20 at 14:52:08.235
