   * xtb version 6.5.1 (579679a) compiled by 'ehlert@majestix' on 2022-07-11
          program call               : /lustre/hpc/kemi/ree/PhD/git/ReactivityQM/dep/xtb-6.5.1/bin/xtb --gfn 1 /lustre/hpc/kemi/ree/PhD/git/ReactivityQM/calculations/R02deprot/reac01prodN13/conf08/R02deprot_reac01prodN13_conf08_gfn1.xyz --opt --vfukui --chrg 0 --uhf 0 --alpb DMSO

   ID    Z sym.   atoms
    1    6 C      1, 3, 5, 7-10, 12, 14, 15, 18, 19, 22, 24
    2    8 O      2, 4, 13, 20, 23, 25
    3    7 N      6, 11, 16, 17, 21
    4    1 H      26-42

      * Solvation model:               ALPB
        Solvent                        DMSO
        Solvent mass                       7.8130E+01 g/mol
          :  Hamiltonian                  GFN1-xTB          :
 * total energy  :   -82.9254116 Eh     change       -0.5027800E-10 Eh
 * total energy  :   -82.9362732 Eh     change       -0.1086151E-01 Eh
 * total energy  :   -82.9397959 Eh     change       -0.3522760E-02 Eh
 * total energy  :   -82.9405307 Eh     change       -0.7347845E-03 Eh
 * total energy  :   -82.9412139 Eh     change       -0.6832175E-03 Eh
 * total energy  :   -82.9415374 Eh     change       -0.3234929E-03 Eh
 * total energy  :   -82.9417577 Eh     change       -0.2202468E-03 Eh
 * total energy  :   -82.9419083 Eh     change       -0.1506320E-03 Eh
 * total energy  :   -82.9420268 Eh     change       -0.1185468E-03 Eh
 * total energy  :   -82.9421346 Eh     change       -0.1078018E-03 Eh
 * total energy  :   -82.9875574 Eh     change       -0.2468539E-04 Eh
 * total energy  :   -82.9875868 Eh     change       -0.2937692E-04 Eh
 * total energy  :   -82.9876230 Eh     change       -0.3616144E-04 Eh
 * total energy  :   -82.9876176 Eh     change        0.5368325E-05 Eh
 * total energy  :   -82.9876790 Eh     change       -0.6135630E-04 Eh
 * total energy  :   -82.9876949 Eh     change       -0.1595443E-04 Eh
 * total energy  :   -82.9877024 Eh     change       -0.7505411E-05 Eh
 * total energy  :   -82.9877102 Eh     change       -0.7791623E-05 Eh
 * total energy  :   -82.9877142 Eh     change       -0.3952553E-05 Eh
   *** GEOMETRY OPTIMIZATION CONVERGED AFTER 189 ITERATIONS ***

 final structure:
================
42
 xtb: 6.5.1 (579679a)
C            5.65795598893301        2.48909582400035       -0.60577810480331
O            4.45384078577970        1.75784703693829       -0.36067135978437
C            4.40489503919536        1.05030559614970        0.76853141150612
O            5.31364942246131        1.00933157424996        1.56409876132384
C            3.10390985562606        0.32743850059648        0.91558621665746
N            2.17100876958335        0.55337763312227       -0.03049749939034
C            1.00636038420935       -0.04823894837956        0.05637264814333
C            0.01617365672852        0.20869352148414       -1.06089500648560
C            0.46616670778309       -0.61311133211407       -2.28039959966399
C           -0.02421694364301        1.70610261986437       -1.39090339628795
N           -1.30128539099151       -0.24036707345458       -0.60901520859635
C           -2.39256319066219       -0.20645239236547       -1.37635945417644
O           -2.44607813965696        0.19617371374860       -2.52660466884634
C           -3.66193924659830       -0.77654404839751       -0.69333706475755
C           -4.00727314563838       -2.13193600841757       -1.31095203080980
N           -4.76664882418667        0.15512845160555       -0.90294058198475
N           -5.21654443345865        0.53199576933696        0.18905607224358
C           -4.49848330319991       -0.06812641652039        1.23707655423814
C           -4.75000407471786        0.11768801978655        2.53050237587870
O           -3.52662562635309       -0.86054992395677        0.70914060287165
N            0.66145649768981       -0.91088473321669        1.02833029128358
C            1.55676569617553       -1.16075516952693        1.95737048997214
O            1.29638388668483       -2.02054810570004        2.94462677202778
C            2.83420816735668       -0.54544638437183        1.95904637126382
O            3.71582824676343       -0.82570400860697        2.93048755989124
H            5.58087027430522        2.88774214768153       -1.61528290487863
H            5.75456225782602        3.30359130928752        0.11612863570991
H            6.52430726422172        1.82827363641349       -0.52317547700182
H           -0.18945451277705       -0.42470975316158       -3.12850848270413
H            1.48378409916563       -0.32988630762973       -2.54510064814090
H            0.44318722562975       -1.67439078998735       -2.03898566645564
H           -0.39745469390314        2.26518090261931       -0.53387303327434
H            0.98323666624434        2.04753978902674       -1.62469524854578
H           -0.67169415666558        1.88776098527111       -2.24706206564308
H           -1.34890559670326       -0.64483686381960        0.31660074222796
H           -4.10827397351866       -2.01878489536358       -2.38841490657958
H           -3.21472370963962       -2.84183274325793       -1.08925017220785
H           -4.94177656594826       -2.49329271607649       -0.88759823485342
H            0.42100568509511       -2.41712357073073        2.85953259390710
H           -4.17711645149131       -0.37667508836663        3.29728740750032
H           -5.54929471382034        0.77198140245334        2.83682828393628
H            3.34079911611060       -1.46504516020376        3.55369702529492

          :  Hamiltonian                  GFN1-xTB          :
         :: total energy             -82.987714174739 Eh    ::
         :: gradient norm              0.000854147201 Eh/a0 ::
         :: HOMO-LUMO gap              2.485825806178 eV    ::
         :: SCC energy               -83.770181093989 Eh    ::
         :: -> Gsolv                  -0.059800180914 Eh    ::
         :: repulsion energy           0.808554847204 Eh    ::

    * Orbital Energies and Occupations

         #    Occupation            Energy/Eh            Energy/eV
      -------------------------------------------------------------
         1        2.0000           -0.8397438             -22.8506
       ...           ...                  ...                  ...
        55        2.0000           -0.5002496             -13.6125
        56        2.0000           -0.4981362             -13.5550
        57        2.0000           -0.4970967             -13.5267
        58        2.0000           -0.4965499             -13.5118
        59        2.0000           -0.4810968             -13.0913
        60        2.0000           -0.4791625             -13.0387
        61        2.0000           -0.4708888             -12.8135
        62        2.0000           -0.4603872             -12.5278
        63        2.0000           -0.4496245             -12.2349
        64        2.0000           -0.4401987             -11.9784
        65        2.0000           -0.4355821             -11.8528
        66        2.0000           -0.4314374             -11.7400
        67        2.0000           -0.4219674             -11.4823 (HOMO)
        68                         -0.3306150              -8.9965 (LUMO)
        69                         -0.3233004              -8.7975
        70                         -0.2831418              -7.7047
        71                         -0.2531841              -6.8895
        72                         -0.2384820              -6.4894
        73                         -0.2107638              -5.7352
        74                         -0.1550315              -4.2186
        75                         -0.1385085              -3.7690
        76                         -0.1270377              -3.4569
        77                         -0.1195671              -3.2536
        78                         -0.1182056              -3.2165
       ...                                ...                  ...
       134                          0.7304177              19.8757
      -------------------------------------------------------------
                  HL-Gap            0.0913524 Eh            2.4858 eV

Wiberg/Mayer (AO) data.
largest (>0.10) Wiberg bond orders for each atom

     #   Z sym  total        # sym  WBO       # sym  WBO       # sym  WBO
 ---------------------------------------------------------------------------
     1   6 C    3.872 --    26 H    0.986    28 H    0.979    27 H    0.979
                             2 O    0.898
     2   8 O    2.203 --     3 C    1.114     1 C    0.898     4 O    0.136
     3   6 C    3.849 --     4 O    1.666     2 O    1.114     5 C    0.991
     4   8 O    1.929 --     3 C    1.666     2 O    0.136
     5   6 C    3.969 --    24 C    1.397     6 N    1.298     3 C    0.991
     6   7 N    3.030 --     7 C    1.466     5 C    1.298
     7   6 C    3.944 --     6 N    1.466    21 N    1.307     8 C    0.985
     8   6 C    3.935 --    10 C    0.987     7 C    0.985     9 C    0.974
                            11 N    0.925
     9   6 C    3.990 --    31 H    0.986    30 H    0.985    29 H    0.980
                             8 C    0.974
    10   6 C    3.991 --     8 C    0.987    32 H    0.986    33 H    0.984
                            34 H    0.982
    11   7 N    3.367 --    12 C    1.311     8 C    0.925    35 H    0.879
                            13 O    0.176
    12   6 C    3.907 --    13 O    1.594    11 N    1.311    14 C    0.894
    13   8 O    1.904 --    12 C    1.594    11 N    0.176
    14   6 C    3.883 --    16 N    0.978    15 C    0.958    20 O    0.923
                            12 C    0.894
    15   6 C    3.986 --    36 H    0.983    37 H    0.983    38 H    0.983
                            14 C    0.958
    16   7 N    3.013 --    17 N    1.821    14 C    0.978    19 C    0.119
    17   7 N    3.020 --    16 N    1.821    18 C    1.068
    18   6 C    3.884 --    19 C    1.756    17 N    1.068    20 O    1.007
    19   6 C    3.976 --    18 C    1.756    41 H    0.978    40 H    0.976
                            16 N    0.119
    20   8 O    2.144 --    18 C    1.007    14 C    0.923
    21   7 N    3.040 --    22 C    1.417     7 C    1.307
    22   6 C    3.906 --    21 N    1.417    24 C    1.213    23 O    1.092
    23   8 O    2.075 --    22 C    1.092    39 H    0.804
    24   6 C    3.924 --     5 C    1.397    22 C    1.213    25 O    1.092
    25   8 O    2.069 --    24 C    1.092    42 H    0.815
    26   1 H    1.011 --     1 C    0.986
    27   1 H    1.006 --     1 C    0.979
    28   1 H    1.008 --     1 C    0.979
    29   1 H    1.010 --     9 C    0.980
    30   1 H    1.005 --     9 C    0.985
    31   1 H    1.003 --     9 C    0.986
    32   1 H    1.004 --    10 C    0.986
    33   1 H    1.013 --    10 C    0.984
    34   1 H    1.010 --    10 C    0.982
    35   1 H    0.959 --    11 N    0.879
    36   1 H    1.003 --    15 C    0.983
    37   1 H    1.001 --    15 C    0.983
    38   1 H    1.001 --    15 C    0.983
    39   1 H    0.830 --    23 O    0.804
    40   1 H    0.997 --    19 C    0.976
    41   1 H    1.000 --    19 C    0.978
    42   1 H    0.843 --    25 O    0.815
 ---------------------------------------------------------------------------

           -------------------------------------------------
          | TOTAL ENERGY              -82.987714174739 Eh   |
          | GRADIENT NORM               0.000854147201 Eh/α |
          | HOMO-LUMO GAP               2.485825806178 eV   |
           -------------------------------------------------

 * finished run on 2023/06/20 at 18:21:19.650
