   * xtb version 6.5.1 (579679a) compiled by 'ehlert@majestix' on 2022-07-11
          program call               : /lustre/hpc/kemi/ree/PhD/git/ReactivityQM/dep/xtb-6.5.1/bin/xtb --gfn 1 /lustre/hpc/kemi/ree/PhD/git/ReactivityQM/calculations/R02oxygendeprot/reac01prodE03/conf14/R02oxygendeprot_reac01prodE03_conf14_gfn1.xyz --opt --vfukui --chrg -2 --uhf 0 --alpb DMSO

   ID    Z sym.   atoms
    1    6 C      1, 3, 5, 6, 8-11, 13, 15, 18, 19, 22, 24
    2    8 O      2, 4, 14, 20, 23, 25
    3    7 N      7, 12, 16, 17, 21
    4    1 H      26-42

      * Solvation model:               ALPB
        Solvent                        DMSO
        Solvent mass                       7.8130E+01 g/mol
          :  Hamiltonian                  GFN1-xTB          :
 * total energy  :   -83.5550733 Eh     change       -0.2385718E-09 Eh
 * total energy  :   -83.5679949 Eh     change       -0.1292159E-01 Eh
 * total energy  :   -83.5727955 Eh     change       -0.4800579E-02 Eh
 * total energy  :   -83.5737884 Eh     change       -0.9929693E-03 Eh
 * total energy  :   -83.5746506 Eh     change       -0.8621681E-03 Eh
 * total energy  :   -83.5752222 Eh     change       -0.5715918E-03 Eh
 * total energy  :   -83.5757038 Eh     change       -0.4816049E-03 Eh
 * total energy  :   -83.5760494 Eh     change       -0.3456128E-03 Eh
 * total energy  :   -83.5762752 Eh     change       -0.2258008E-03 Eh
 * total energy  :   -83.5764536 Eh     change       -0.1784195E-03 Eh
 * total energy  :   -83.5780673 Eh     change        0.1115029E-05 Eh
 * total energy  :   -83.5780741 Eh     change       -0.6791319E-05 Eh
 * total energy  :   -83.5780798 Eh     change       -0.5692984E-05 Eh
 * total energy  :   -83.5780852 Eh     change       -0.5416766E-05 Eh
 * total energy  :   -83.5780909 Eh     change       -0.5737677E-05 Eh
 * total energy  :   -83.5780967 Eh     change       -0.5830934E-05 Eh
 * total energy  :   -83.5781026 Eh     change       -0.5853333E-05 Eh
 * total energy  :   -83.5781092 Eh     change       -0.6609159E-05 Eh
 * total energy  :   -83.5781114 Eh     change       -0.2226725E-05 Eh
   *** GEOMETRY OPTIMIZATION CONVERGED AFTER 44 ITERATIONS ***

 final structure:
================
42
 xtb: 6.5.1 (579679a)
C           -3.88200146376943       -1.57935596374848        3.18861236947992
O           -3.60490366395674       -1.74440770512510        1.81844491446086
C           -2.52065347539221       -1.04934342054998        1.29399055314357
O           -1.79638208537254       -0.32309462665572        2.22635548238495
C           -1.82965328070488        1.09584926403921        2.09740830564272
C           -2.19429099647029       -1.09751983584482       -0.04461885636107
N           -1.06457483447161       -0.34662871734053       -0.39602276886043
C           -0.70319024589291       -0.26817162525211       -1.63234958357884
C            0.48746454788789        0.60146051311128       -2.01836533902836
C           -0.05834989767311        1.92462633373142       -2.58349919236344
C            1.37410060689338       -0.10145336856718       -3.06233557021202
N            1.24467180138650        0.85248889292969       -0.79443415006216
C            2.47391869354713        1.51744977660317       -0.82848568788945
O            2.78825359659503        2.31066126684547       -1.75135738041950
C            3.31065270089955        1.26862207590704        0.29780379499221
N            4.51979062386182        1.79442943713396        0.54701882337036
N            4.96148788067446        1.21794535124625        1.70499752019208
C            4.04896881158131        0.39547405315845        2.10760153584640
C            4.09749620711290       -0.46470899548884        3.31709145838581
O            2.96572644467589        0.35779369522429        1.28828568083254
N           -1.39144908452618       -0.88698416967043       -2.62971068107127
C           -2.51095906341251       -1.71628589211894       -2.41562862623993
O           -3.02593562722076       -2.25052191010422       -3.43509948981872
C           -2.95077530315284       -1.84961951186859       -1.04707738589179
O           -3.95265228655878       -2.57985916110616       -0.74334183656851
H           -3.03968803817574       -1.89352982630975        3.81807784490960
H           -4.74613466823343       -2.20699027045797        3.41547098444060
H           -4.12798988301312       -0.53783092145908        3.43361572481169
H           -2.85956876398267        1.46684780897923        2.03601460411474
H           -1.27614300461261        1.41933415928709        1.20630962144803
H           -1.35526434177489        1.50826528658878        2.98953830358880
H           -0.72035692155361        1.71806060409195       -3.42360909765346
H            0.75496807206834        2.56234587752285       -2.92573572756806
H           -0.62046960373132        2.45003900061951       -1.81131847582716
H            0.82355775815842       -0.26239703891068       -3.98730144905708
H            1.71367513220333       -1.06395141818474       -2.68108833802618
H            2.24187270054348        0.51651015292007       -3.28905950952104
H            1.19102494731004        0.08948069793425       -0.12685935919967
H            5.06937811764794       -0.35901055361821        3.79342530138036
H            3.94063023870616       -1.50969779477957        3.04836086456872
H            3.32120995167910       -0.17809467298294        4.02748100750420
H           -1.09746329977990       -0.79822484772870       -3.58704419027163

          :  Hamiltonian                  GFN1-xTB          :
         :: total energy             -83.578111433119 Eh    ::
         :: gradient norm              0.000227040261 Eh/a0 ::
         :: HOMO-LUMO gap              0.029474379828 eV    ::
         :: SCC energy               -84.298721210783 Eh    ::
         :: -> Gsolv                  -0.270972086685 Eh    ::
         :: repulsion energy           0.746561695733 Eh    ::

    * Orbital Energies and Occupations

         #    Occupation            Energy/Eh            Energy/eV
      -------------------------------------------------------------
         1        2.0000           -0.7955175             -21.6471
       ...           ...                  ...                  ...
        56        2.0000           -0.4449572             -12.1079
        57        2.0000           -0.4339843             -11.8093
        58        2.0000           -0.4223364             -11.4924
        59        2.0000           -0.4035695             -10.9817
        60        2.0000           -0.4014081             -10.9229
        61        2.0000           -0.3999894             -10.8843
        62        2.0000           -0.3970768             -10.8050
        63        2.0000           -0.3916699             -10.6579
        64        2.0000           -0.3811590             -10.3719
        65        2.0000           -0.3768303             -10.2541
        66        2.0000           -0.3419435              -9.3048
        67        2.0000           -0.3396088              -9.2412
        68        1.2776           -0.2623265              -7.1383 (HOMO)
        69        0.7224           -0.2612433              -7.1088 (LUMO)
        70                         -0.2053778              -5.5886
        71                         -0.2045305              -5.5656
        72                         -0.1758387              -4.7848
        73                         -0.1340091              -3.6466
        74                         -0.1224682              -3.3325
        75                         -0.1149828              -3.1288
        76                         -0.1100319              -2.9941
        77                         -0.1032987              -2.8109
        78                         -0.0956680              -2.6033
        79                         -0.0735366              -2.0010
       ...                                ...                  ...
       134                          0.7303498              19.8738
      -------------------------------------------------------------
                  HL-Gap            0.0010832 Eh            0.0295 eV

Wiberg/Mayer (AO) data.
largest (>0.10) Wiberg bond orders for each atom

     #   Z sym  total        # sym  WBO       # sym  WBO       # sym  WBO
 ---------------------------------------------------------------------------
     1   6 C    3.918 --    27 H    0.985    26 H    0.980    28 H    0.980
                             2 O    0.950
     2   8 O    2.054 --     3 C    0.963     1 C    0.950
     3   6 C    3.558 --     6 C    1.468     2 O    0.963     4 O    0.958
     4   8 O    2.023 --     3 C    0.958     5 C    0.925
     5   6 C    3.903 --    31 H    0.986    29 H    0.983    30 H    0.977
                             4 O    0.925
     6   6 C    3.938 --     3 C    1.468    24 C    1.111     7 N    1.098
     7   7 N    2.982 --     8 C    1.579     6 C    1.098    21 N    0.112
     8   6 C    3.916 --     7 N    1.579    21 N    1.162     9 C    0.974
     9   6 C    3.954 --    11 C    0.985    10 C    0.982     8 C    0.974
                            12 N    0.952
    10   6 C    3.991 --    32 H    0.988    34 H    0.986     9 C    0.982
                            33 H    0.980
    11   6 C    3.990 --    36 H    0.987     9 C    0.985    35 H    0.983
                            37 H    0.981
    12   7 N    3.149 --    13 C    1.090     9 C    0.952    38 H    0.913
                            14 O    0.107
    13   6 C    3.749 --    14 O    1.418    15 C    1.172    12 N    1.090
    14   8 O    1.664 --    13 C    1.418    12 N    0.107
    15   6 C    3.680 --    16 N    1.379    13 C    1.172    20 O    0.960
    16   7 N    2.708 --    15 C    1.379    17 N    1.191
    17   7 N    2.982 --    18 C    1.627    16 N    1.191
    18   6 C    3.808 --    17 N    1.627    20 O    1.038    19 C    1.023
    19   6 C    3.994 --    18 C    1.023    39 H    0.986    40 H    0.973
                            41 H    0.971
    20   8 O    2.167 --    18 C    1.038    15 C    0.960
    21   7 N    3.373 --     8 C    1.162    22 C    1.027    42 H    0.908
                             7 N    0.112
    22   6 C    3.760 --    23 O    1.416    24 C    1.151    21 N    1.027
    23   8 O    1.638 --    22 C    1.416
    24   6 C    3.809 --    25 O    1.386    22 C    1.151     6 C    1.111
    25   8 O    1.580 --    24 C    1.386
    26   1 H    1.016 --     1 C    0.980
    27   1 H    1.019 --     1 C    0.985
    28   1 H    1.012 --     1 C    0.980
    29   1 H    1.014 --     5 C    0.983
    30   1 H    1.042 --     5 C    0.977
    31   1 H    1.019 --     5 C    0.986
    32   1 H    1.007 --    10 C    0.988
    33   1 H    1.024 --    10 C    0.980
    34   1 H    1.011 --    10 C    0.986
    35   1 H    1.005 --    11 C    0.983
    36   1 H    1.006 --    11 C    0.987
    37   1 H    1.015 --    11 C    0.981
    38   1 H    0.982 --    12 N    0.913
    39   1 H    1.005 --    19 C    0.986
    40   1 H    1.001 --    19 C    0.973
    41   1 H    1.001 --    19 C    0.971
    42   1 H    0.964 --    21 N    0.908
 ---------------------------------------------------------------------------

           -------------------------------------------------
          | TOTAL ENERGY              -83.578111433119 Eh   |
          | GRADIENT NORM               0.000227040261 Eh/α |
          | HOMO-LUMO GAP               0.029474379828 eV   |
           -------------------------------------------------

 * finished run on 2023/06/21 at 17:02:53.058
