   * xtb version 6.5.1 (579679a) compiled by 'ehlert@majestix' on 2022-07-11
          program call               : /lustre/hpc/kemi/ree/PhD/git/ReactivityQM/dep/xtb-6.5.1/bin/xtb --gfn 1 /lustre/hpc/kemi/ree/PhD/git/ReactivityQM/calculations/R01/reac01prodN06/conf11/R01_reac01prodN06_conf11_gfn1.xyz --opt --vfukui --chrg 1 --uhf 0 --alpb DMSO

   ID    Z sym.   atoms
    1    6 C      1, 3, 5, 6, 9, 10
    2    8 O      2, 4, 11
    3    7 N      7, 8
    4    1 H      12-20

      * Solvation model:               ALPB
        Solvent                        DMSO
        Solvent mass                       7.8130E+01 g/mol
          :  Hamiltonian                  GFN1-xTB          :
 * total energy  :   -37.5806406 Eh     change       -0.1229239E-11 Eh
 * total energy  :   -37.5916718 Eh     change       -0.1103119E-01 Eh
 * total energy  :   -37.5959649 Eh     change       -0.4293111E-02 Eh
 * total energy  :   -37.5966095 Eh     change       -0.6446651E-03 Eh
 * total energy  :   -37.5970391 Eh     change       -0.4295829E-03 Eh
 * total energy  :   -37.5971924 Eh     change       -0.1532789E-03 Eh
 * total energy  :   -37.5973477 Eh     change       -0.1552437E-03 Eh
 * total energy  :   -37.5974790 Eh     change       -0.1313458E-03 Eh
 * total energy  :   -37.5975785 Eh     change       -0.9947498E-04 Eh
 * total energy  :   -37.5976762 Eh     change       -0.9769270E-04 Eh
 * total energy  :   -37.5983052 Eh     change       -0.8877951E-05 Eh
 * total energy  :   -37.5983121 Eh     change       -0.6979732E-05 Eh
 * total energy  :   -37.5983193 Eh     change       -0.7190719E-05 Eh
 * total energy  :   -37.5981539 Eh     change        0.1654132E-03 Eh
 * total energy  :   -37.5983403 Eh     change       -0.1863573E-03 Eh
 * total energy  :   -37.5983552 Eh     change       -0.1488674E-04 Eh
 * total energy  :   -37.5983636 Eh     change       -0.8454698E-05 Eh
 * total energy  :   -37.5983744 Eh     change       -0.1076768E-04 Eh
 * total energy  :   -37.5983792 Eh     change       -0.4801547E-05 Eh
   *** GEOMETRY OPTIMIZATION CONVERGED AFTER 48 ITERATIONS ***

 final structure:
================
20
 xtb: 6.5.1 (579679a)
C           -2.61576580014451        1.55032556558070        0.09186676968162
O           -1.36818153064682        0.81624583300251        0.02569321363572
C           -1.39927671959703       -0.46698618867869       -0.07085083019585
O           -2.31678015840585       -1.22232609249783       -0.07753577641026
C            0.10026020959060       -1.04866288876325       -0.15512968003998
C            0.09451065455530       -2.37869770182271       -0.89379848660179
N            0.52628833176816       -1.08318387077974        1.19532683419278
N            1.42444934897808       -0.22105275263941        1.38226878745950
C            1.67767125280344        0.39309567347604        0.17367814026173
C            2.64868757104372        1.45618435379073       -0.03912168674617
O            0.93719349123097       -0.08983112245197       -0.75032090549832
H           -2.43210202740821        2.39790852996247        0.74840168768375
H           -2.85998038080360        1.89029933217635       -0.91426604001837
H           -3.40324754371551        0.90710836048306        0.48458155779984
H            1.09658795611577       -2.80085223414539       -0.87766932157293
H           -0.60552908839124       -3.04778539003389       -0.39741534879864
H           -0.21967084343406       -2.21188604971033       -1.92166731612560
H            2.45750662581114        2.26455469690766        0.67026222502636
H            2.60967889511159        1.82182062331698       -1.06262660317676
H            3.64770075553825        1.07372032282664        0.18837177944322

          :  Hamiltonian                  GFN1-xTB          :
         :: total energy             -37.598379188107 Eh    ::
         :: gradient norm              0.000797844209 Eh/a0 ::
         :: HOMO-LUMO gap              2.231498662301 eV    ::
         :: SCC energy               -37.939307925250 Eh    ::
         :: -> Gsolv                  -0.080667171951 Eh    ::
         :: repulsion energy           0.349785412348 Eh    ::

    * Orbital Energies and Occupations

         #    Occupation            Energy/Eh            Energy/eV
      -------------------------------------------------------------
         1        2.0000           -0.9437095             -25.6796
       ...           ...                  ...                  ...
        18        2.0000           -0.6166370             -16.7795
        19        2.0000           -0.6119392             -16.6517
        20        2.0000           -0.6011860             -16.3591
        21        2.0000           -0.6010222             -16.3546
        22        2.0000           -0.5854723             -15.9315
        23        2.0000           -0.5803248             -15.7914
        24        2.0000           -0.5720623             -15.5666
        25        2.0000           -0.5667432             -15.4219
        26        2.0000           -0.5644331             -15.3590
        27        2.0000           -0.5501927             -14.9715
        28        2.0000           -0.5393137             -14.6755
        29        2.0000           -0.5358519             -14.5813
        30        2.0000           -0.5165929             -14.0572 (HOMO)
        31                         -0.4345868             -11.8257 (LUMO)
        32                         -0.3415989              -9.2954
        33                         -0.3163118              -8.6073
        34                         -0.1810490              -4.9266
        35                         -0.1648075              -4.4846
        36                         -0.1600708              -4.3557
        37                         -0.1132757              -3.0824
        38                         -0.1095874              -2.9820
        39                         -0.1022615              -2.7827
        40                         -0.0985736              -2.6823
        41                         -0.0976425              -2.6570
       ...                                ...                  ...
        62                          0.7491061              20.3842
      -------------------------------------------------------------
                  HL-Gap            0.0820061 Eh            2.2315 eV

Wiberg/Mayer (AO) data.
largest (>0.10) Wiberg bond orders for each atom

     #   Z sym  total        # sym  WBO       # sym  WBO       # sym  WBO
 ---------------------------------------------------------------------------
     1   6 C    3.813 --    14 H    0.980    12 H    0.978    13 H    0.974
                             2 O    0.835
     2   8 O    2.267 --     3 C    1.233     1 C    0.835     4 O    0.154
     3   6 C    3.864 --     4 O    1.739     2 O    1.233     5 C    0.745
     4   8 O    2.073 --     3 C    1.739     2 O    0.154
     5   6 C    3.837 --     7 N    1.076     6 C    0.933    11 O    0.906
                             3 C    0.745
     6   6 C    3.949 --    17 H    0.976    15 H    0.975    16 H    0.973
                             5 C    0.933
     7   7 N    3.010 --     8 N    1.682     5 C    1.076
     8   7 N    3.022 --     7 N    1.682     9 C    1.176
     9   6 C    3.801 --    11 O    1.306     8 N    1.176    10 C    1.086
    10   6 C    3.962 --     9 C    1.086    19 H    0.971    18 H    0.922
                            20 H    0.911
    11   8 O    2.395 --     9 C    1.306     5 C    0.906
    12   1 H    1.002 --     1 C    0.978
    13   1 H    0.998 --     1 C    0.974
    14   1 H    0.998 --     1 C    0.980
    15   1 H    0.989 --     6 C    0.975
    16   1 H    0.995 --     6 C    0.973
    17   1 H    0.990 --     6 C    0.976
    18   1 H    0.979 --    10 C    0.922
    19   1 H    0.984 --    10 C    0.971
    20   1 H    0.978 --    10 C    0.911
 ---------------------------------------------------------------------------

           -------------------------------------------------
          | TOTAL ENERGY              -37.598379188107 Eh   |
          | GRADIENT NORM               0.000797844209 Eh/α |
          | HOMO-LUMO GAP               2.231498662301 eV   |
           -------------------------------------------------

 * finished run on 2023/06/20 at 14:56:09.311
