   * xtb version 6.5.1 (579679a) compiled by 'ehlert@majestix' on 2022-07-11
          program call               : /lustre/hpc/kemi/ree/PhD/git/ReactivityQM/dep/xtb-6.5.1/bin/xtb --gfn 1 /lustre/hpc/kemi/ree/PhD/git/ReactivityQM/calculations/R02oxygendeprot/reac01prodE06/conf06/R02oxygendeprot_reac01prodE06_conf06_gfn1.xyz --opt --vfukui --chrg -2 --uhf 0 --alpb DMSO

   ID    Z sym.   atoms
    1    6 C      1, 3, 5, 6, 8, 11-15, 17, 19, 22, 23
    2    8 O      2, 4, 7, 9, 18, 24
    3    7 N      10, 16, 20, 21, 25
    4    1 H      26-42

      * Solvation model:               ALPB
        Solvent                        DMSO
        Solvent mass                       7.8130E+01 g/mol
          :  Hamiltonian                  GFN1-xTB          :
 * total energy  :   -83.6068728 Eh     change       -0.4943956E-09 Eh
 * total energy  :   -83.6184442 Eh     change       -0.1157146E-01 Eh
 * total energy  :   -83.6225576 Eh     change       -0.4113395E-02 Eh
 * total energy  :   -83.6234360 Eh     change       -0.8783953E-03 Eh
 * total energy  :   -83.6239317 Eh     change       -0.4956326E-03 Eh
 * total energy  :   -83.6241938 Eh     change       -0.2621012E-03 Eh
 * total energy  :   -83.6244280 Eh     change       -0.2342039E-03 Eh
 * total energy  :   -83.6246441 Eh     change       -0.2161497E-03 Eh
 * total energy  :   -83.6248292 Eh     change       -0.1850672E-03 Eh
 * total energy  :   -83.6249888 Eh     change       -0.1596517E-03 Eh
 * total energy  :   -83.6255458 Eh     change       -0.1467578E-04 Eh
 * total energy  :   -83.6255538 Eh     change       -0.7972686E-05 Eh
 * total energy  :   -83.6255652 Eh     change       -0.1140659E-04 Eh
 * total energy  :   -83.6255745 Eh     change       -0.9276017E-05 Eh
 * total energy  :   -83.6255840 Eh     change       -0.9519102E-05 Eh
 * total energy  :   -83.6255931 Eh     change       -0.9167418E-05 Eh
 * total energy  :   -83.6256004 Eh     change       -0.7261768E-05 Eh
 * total energy  :   -83.6256060 Eh     change       -0.5613709E-05 Eh
 * total energy  :   -83.6256107 Eh     change       -0.4655123E-05 Eh
   *** GEOMETRY OPTIMIZATION CONVERGED AFTER 33 ITERATIONS ***

 final structure:
================
42
 xtb: 6.5.1 (579679a)
C            2.37771659198418        3.71664485862782        0.38859634710163
O            2.09298615599793        2.35140668495888        0.15338399466008
C            3.19216827241115        1.56703853654875       -0.15670133775903
O            4.30026469069929        2.09727759808352       -0.21622637654896
C            2.85250261425248        0.16829426833664       -0.35040977974221
C            3.89420950580430       -0.78345796300529       -0.57516071788042
O            5.11093154444142       -0.50765499198458       -0.80805541708733
C            3.48646950945064       -2.21334599612863       -0.44764650680672
O            4.27525977789292       -3.17109530642269       -0.43998875889252
N            2.15127221539755       -2.45107995424166       -0.21113505022943
C            1.13033138713517       -1.47177671859232       -0.55951402053143
C            0.83258646147595       -1.58177345292872       -2.08241644461790
C           -0.16160927218451       -1.76587033402657        0.27982401044363
C           -0.84559894694614       -3.07843692694261       -0.11485683754122
C            0.21153550279313       -1.78553814942844        1.77055548183609
N           -1.04442206513540       -0.63237677150479        0.01618625281118
C           -2.30280949907529       -0.49658836256554        0.52409810730720
O           -2.93923367681358       -1.40245443717059        1.08660450365113
C           -2.83837972472892        0.83370443172281        0.27780485237837
N           -2.21254627181487        1.83833667623417       -0.30932530700983
N           -3.08432156833166        2.89225888558335       -0.31496218130553
C           -4.17128229294441        2.48791685087212        0.25741007745316
C           -5.40906430760045        3.27145316822753        0.48717632593561
O           -4.10049396106835        1.20246357103513        0.66264729368762
N            1.52680561355622       -0.13430374851871       -0.23837239601041
H            1.43783042347740        4.20916585627056        0.63934400678949
H            3.08183748290997        3.83589626181976        1.22065067576523
H            2.81019122857310        4.19027189561759       -0.50074312365805
H            1.88160589716341       -3.41913201496356       -0.28785512531355
H           -0.03410202013484       -0.97252423205496       -2.33271391419928
H            0.64221349559453       -2.61437824363293       -2.36772876172923
H            1.69399389777794       -1.21823068386810       -2.64234162746471
H           -0.12308313567387       -3.89270548681993       -0.12554507359134
H           -1.29846841767059       -2.99780984035300       -1.10168975955038
H           -1.62801102734819       -3.33020661580348        0.59962863593313
H            0.87728153051063       -2.62337420365473        1.97497086389693
H           -0.68202228242362       -1.88738076681004        2.38472135161710
H            0.72192816150681       -0.85635551550014        2.03005103184611
H           -0.53951902591820        0.22690993143046       -0.21072086747022
H           -5.60985111523878        3.35904753377649        1.55500964118600
H           -5.29510327721575        4.26496424821986        0.06052025629608
H           -6.26199907253008        2.77479945955783        0.02492167434820

          :  Hamiltonian                  GFN1-xTB          :
         :: total energy             -83.625610677494 Eh    ::
         :: gradient norm              0.000442362884 Eh/a0 ::
         :: HOMO-LUMO gap              0.087351343852 eV    ::
         :: SCC energy               -84.347761915305 Eh    ::
         :: -> Gsolv                  -0.274608695659 Eh    ::
         :: repulsion energy           0.749540563797 Eh    ::

    * Orbital Energies and Occupations

         #    Occupation            Energy/Eh            Energy/eV
      -------------------------------------------------------------
         1        2.0000           -0.8192617             -22.2932
       ...           ...                  ...                  ...
        56        2.0000           -0.4441190             -12.0851
        57        2.0000           -0.4417501             -12.0206
        58        2.0000           -0.4217008             -11.4751
        59        2.0000           -0.4189905             -11.4013
        60        2.0000           -0.4133715             -11.2484
        61        2.0000           -0.4097445             -11.1497
        62        2.0000           -0.4049400             -11.0190
        63        2.0000           -0.3978568             -10.8262
        64        2.0000           -0.3924785             -10.6799
        65        2.0000           -0.3799721             -10.3396
        66        2.0000           -0.3668779              -9.9833
        67        2.0000           -0.3350930              -9.1183
        68        1.6883           -0.2762424              -7.5169 (HOMO)
        69        0.3117           -0.2730323              -7.4296 (LUMO)
        70                         -0.2385493              -6.4913
        71                         -0.2230016              -6.0682
        72                         -0.1645757              -4.4783
        73                         -0.1531078              -4.1663
        74                         -0.1298915              -3.5345
        75                         -0.1135218              -3.0891
        76                         -0.1060157              -2.8848
        77                         -0.0983074              -2.6751
        78                         -0.0868139              -2.3623
        79                         -0.0826528              -2.2491
       ...                                ...                  ...
       134                          0.7539102              20.5149
      -------------------------------------------------------------
                  HL-Gap            0.0032101 Eh            0.0874 eV

Wiberg/Mayer (AO) data.
largest (>0.10) Wiberg bond orders for each atom

     #   Z sym  total        # sym  WBO       # sym  WBO       # sym  WBO
 ---------------------------------------------------------------------------
     1   6 C    3.914 --    26 H    0.987    28 H    0.980    27 H    0.980
                             2 O    0.943
     2   8 O    2.115 --     3 C    0.990     1 C    0.943
     3   6 C    3.814 --     4 O    1.556     5 C    1.125     2 O    0.990
     4   8 O    1.830 --     3 C    1.556
     5   6 C    3.911 --    25 N    1.266     6 C    1.227     3 C    1.125
     6   6 C    3.877 --     7 O    1.417     5 C    1.227     8 C    1.008
     7   8 O    1.665 --     6 C    1.417
     8   6 C    3.860 --     9 O    1.528    10 N    1.156     6 C    1.008
     9   8 O    1.796 --     8 C    1.528    10 N    0.128
    10   7 N    3.250 --     8 C    1.156    11 C    0.929    29 H    0.916
                             9 O    0.128
    11   6 C    3.942 --    25 N    1.026    12 C    0.960    13 C    0.945
                            10 N    0.929
    12   6 C    3.977 --    31 H    0.986    30 H    0.985    32 H    0.985
                            11 C    0.960
    13   6 C    3.935 --    14 C    1.000    15 C    0.990    11 C    0.945
                            16 N    0.937
    14   6 C    3.994 --    13 C    1.000    34 H    0.984    33 H    0.983
                            35 H    0.979
    15   6 C    3.993 --    13 C    0.990    37 H    0.986    36 H    0.985
                            38 H    0.982
    16   7 N    3.269 --    17 C    1.194    13 C    0.937    39 H    0.888
                            18 O    0.145
    17   6 C    3.830 --    18 O    1.481    16 N    1.194    19 C    1.071
    18   8 O    1.758 --    17 C    1.481    16 N    0.145
    19   6 C    3.742 --    20 N    1.480    17 C    1.071    24 O    1.004
    20   7 N    2.843 --    19 C    1.480    21 N    1.185
    21   7 N    2.980 --    22 C    1.626    20 N    1.185
    22   6 C    3.837 --    21 N    1.626    24 O    1.061    23 C    1.026
    23   6 C    3.992 --    22 C    1.026    41 H    0.985    42 H    0.970
                            40 H    0.969
    24   8 O    2.228 --    22 C    1.061    19 C    1.004
    25   7 N    2.673 --     5 C    1.266    11 C    1.026
    26   1 H    1.019 --     1 C    0.987
    27   1 H    1.018 --     1 C    0.980
    28   1 H    1.018 --     1 C    0.980
    29   1 H    0.970 --    10 N    0.916
    30   1 H    1.015 --    12 C    0.985
    31   1 H    1.007 --    12 C    0.986
    32   1 H    1.011 --    12 C    0.985
    33   1 H    1.005 --    14 C    0.983
    34   1 H    1.008 --    14 C    0.984
    35   1 H    1.021 --    14 C    0.979
    36   1 H    1.013 --    15 C    0.985
    37   1 H    1.012 --    15 C    0.986
    38   1 H    1.024 --    15 C    0.982
    39   1 H    1.001 --    16 N    0.888
    40   1 H    1.000 --    23 C    0.969
    41   1 H    1.003 --    23 C    0.985
    42   1 H    1.000 --    23 C    0.970
 ---------------------------------------------------------------------------

           -------------------------------------------------
          | TOTAL ENERGY              -83.625610677494 Eh   |
          | GRADIENT NORM               0.000442362884 Eh/α |
          | HOMO-LUMO GAP               0.087351343852 eV   |
           -------------------------------------------------

 * finished run on 2023/06/21 at 17:08:00.102
