   * xtb version 6.5.1 (579679a) compiled by 'ehlert@majestix' on 2022-07-11
          program call               : /lustre/hpc/kemi/ree/PhD/git/ReactivityQM/dep/xtb-6.5.1/bin/xtb --gfn 1 /lustre/hpc/kemi/ree/PhD/git/ReactivityQM/calculations/R03/reac02prodE04/conf07/R03_reac02prodE04_conf07_gfn1.xyz --opt --vfukui --chrg -1 --uhf 0 --alpb DMSO

   ID    Z sym.   atoms
    1    6 C      1, 3, 5, 6, 8-11, 13, 15, 18, 19, 22, 23, 25
    2    8 O      2, 4, 14, 20, 24, 26
    3    7 N      7, 12, 16, 17, 21
    4    1 H      27-46

      * Solvation model:               ALPB
        Solvent                        DMSO
        Solvent mass                       7.8130E+01 g/mol
          :  Hamiltonian                  GFN1-xTB          :
 * total energy  :   -87.0242436 Eh     change       -0.2457057E-10 Eh
 * total energy  :   -87.0399862 Eh     change       -0.1574269E-01 Eh
 * total energy  :   -87.0462904 Eh     change       -0.6304139E-02 Eh
 * total energy  :   -87.0474505 Eh     change       -0.1160105E-02 Eh
 * total energy  :   -87.0480629 Eh     change       -0.6123604E-03 Eh
 * total energy  :   -87.0482801 Eh     change       -0.2172462E-03 Eh
 * total energy  :   -87.0484355 Eh     change       -0.1553927E-03 Eh
 * total energy  :   -87.0485372 Eh     change       -0.1017515E-03 Eh
 * total energy  :   -87.0486330 Eh     change       -0.9578501E-04 Eh
 * total energy  :   -87.0487342 Eh     change       -0.1011479E-03 Eh
 * total energy  :   -87.0507217 Eh     change       -0.1979297E-04 Eh
 * total energy  :   -87.0507320 Eh     change       -0.1032258E-04 Eh
 * total energy  :   -87.0507525 Eh     change       -0.2043465E-04 Eh
 * total energy  :   -87.0507606 Eh     change       -0.8116760E-05 Eh
 * total energy  :   -87.0507731 Eh     change       -0.1246656E-04 Eh
 * total energy  :   -87.0507800 Eh     change       -0.6956997E-05 Eh
 * total energy  :   -87.0507857 Eh     change       -0.5647769E-05 Eh
 * total energy  :   -87.0507911 Eh     change       -0.5452396E-05 Eh
 * total energy  :   -87.0507958 Eh     change       -0.4731980E-05 Eh
   *** GEOMETRY OPTIMIZATION CONVERGED AFTER 56 ITERATIONS ***

 final structure:
================
46
 xtb: 6.5.1 (579679a)
C           -4.80126451892076        0.86982674110812        1.71793389762354
O           -3.69913938856016        0.67825120934765        0.83353877449787
C           -3.98822347270550        0.65384655229736       -0.47993638424102
O           -5.12404247643843        0.79534140289794       -0.89217564864786
C           -2.77939685209490        0.29437346683744       -1.35991319506515
C           -3.00310417646399        0.85504462053218       -2.77177796030596
N           -1.56507570842514        0.87139359675506       -0.80528048378428
C           -0.81727485320300        0.19326477602927       -0.00773269980265
C            0.36923118476331        0.98013114134616        0.56819625481163
C            0.46117320882130        2.34893712739209       -0.12397303115641
C            0.20730792094317        1.19338065152302        2.07960423396865
N            1.59915948717810        0.23628351283905        0.25616637019623
C            2.82000578183674        0.57919833650656        0.70933235877788
O            3.06233890725785        1.43041930876625        1.55013171609010
C            3.87294085935391       -0.24490933565466        0.05644374906669
N            3.68010029550448       -1.14158335658425       -0.86467557422495
N            4.90667941218202       -1.63906706688446       -1.19316411117585
C            5.76894799711107       -1.01332702137220       -0.45266387012299
C            7.23750488082963       -1.19317954366568       -0.43345499485669
O            5.18048746655505       -0.11982025338737        0.35698155529932
N           -1.00560996194098       -1.11516016765888        0.30769500490880
C           -0.29265693660965       -1.83132490454800        1.35447624698388
C           -1.92926560127956       -1.92336314535077       -0.50146643124854
O           -1.86725465547569       -3.18416670485912       -0.40327022962704
C           -2.72826073917585       -1.20511157952646       -1.33205783936175
O           -3.63324530907116       -1.87714873212052       -2.18929772982958
H           -5.50903851274787        0.04002175556224        1.63474392928950
H           -5.31975989225267        1.80408079650066        1.48450686106633
H           -4.39548749989824        0.91381901674386        2.72690512199759
H           -3.94253235837862        0.48068502308621       -3.17705261437184
H           -3.03546201626379        1.94357877570471       -2.73940639710555
H           -2.18453900532974        0.54615313352512       -3.42009382688346
H           -0.44059653932759        2.92367576928889        0.08038441854150
H            1.32569395340683        2.89459478184731        0.25076515073946
H            0.55779435212092        2.22156107892506       -1.20109990074618
H            0.83107667598474        2.02008856176715        2.41523816610619
H           -0.83397895309768        1.43259441133089        2.29421481062641
H            0.49072066240580        0.30776866468034        2.64219503440043
H            1.56537986806924       -0.39758767045541       -0.53128307031261
H            7.73215139126042       -0.25699105774740       -0.69113309850815
H            7.56579791772322       -1.48337501516568        0.56422873466153
H            7.52002474811603       -1.96215442375793       -1.14795881164451
H           -0.69388513573344       -1.57371495769442        2.33832533884980
H           -0.43927411443374       -2.90170405371960        1.18915500685855
H            0.77584102309405       -1.62132181047200        1.33524342131135
H           -3.50198931668897       -2.82330141251412       -2.02754225364762

          :  Hamiltonian                  GFN1-xTB          :
         :: total energy             -87.050795848388 Eh    ::
         :: gradient norm              0.000757405186 Eh/a0 ::
         :: HOMO-LUMO gap              0.238848758746 eV    ::
         :: SCC energy               -87.848919378397 Eh    ::
         :: -> Gsolv                  -0.114007681599 Eh    ::
         :: repulsion energy           0.828375912349 Eh    ::

    * Orbital Energies and Occupations

         #    Occupation            Energy/Eh            Energy/eV
      -------------------------------------------------------------
         1        2.0000           -0.8574180             -23.3315
       ...           ...                  ...                  ...
        59        2.0000           -0.4759625             -12.9516
        60        2.0000           -0.4695639             -12.7775
        61        2.0000           -0.4660315             -12.6814
        62        2.0000           -0.4590595             -12.4916
        63        2.0000           -0.4543776             -12.3642
        64        2.0000           -0.4524357             -12.3114
        65        2.0000           -0.4436758             -12.0730
        66        2.0000           -0.4371168             -11.8946
        67        2.0000           -0.4336730             -11.8008
        68        2.0000           -0.3941065             -10.7242
        69        2.0000           -0.3846175             -10.4660
        70        2.0000           -0.3753898             -10.2149
        71        1.9805           -0.3110708              -8.4647 (HOMO)
        72        0.0195           -0.3022933              -8.2258 (LUMO)
        73                         -0.2516694              -6.8483
        74                         -0.2389823              -6.5030
        75                         -0.2204985              -6.0001
        76                         -0.1902798              -5.1778
        77                         -0.1402757              -3.8171
        78                         -0.1330890              -3.6215
        79                         -0.1294141              -3.5215
        80                         -0.1182821              -3.2186
        81                         -0.1078559              -2.9349
        82                         -0.1032217              -2.8088
       ...                                ...                  ...
       144                          0.7296819              19.8557
      -------------------------------------------------------------
                  HL-Gap            0.0087775 Eh            0.2388 eV

Wiberg/Mayer (AO) data.
largest (>0.10) Wiberg bond orders for each atom

     #   Z sym  total        # sym  WBO       # sym  WBO       # sym  WBO
 ---------------------------------------------------------------------------
     1   6 C    3.890 --    29 H    0.987    28 H    0.981    27 H    0.981
                             2 O    0.911
     2   8 O    2.177 --     3 C    1.083     1 C    0.911     4 O    0.119
     3   6 C    3.807 --     4 O    1.640     2 O    1.083     5 C    0.916
     4   8 O    1.904 --     3 C    1.640     2 O    0.119
     5   6 C    3.966 --     6 C    0.986     7 N    0.974    25 C    0.960
                             3 C    0.916
     6   6 C    3.996 --    31 H    0.988    32 H    0.987     5 C    0.986
                            30 H    0.985
     7   7 N    2.973 --     8 C    1.641     5 C    0.974    21 N    0.177
     8   6 C    3.951 --     7 N    1.641    21 N    1.208     9 C    0.962
     9   6 C    3.926 --    10 C    0.991    11 C    0.990     8 C    0.962
                            12 N    0.911
    10   6 C    3.994 --     9 C    0.991    35 H    0.985    34 H    0.984
                            33 H    0.984
    11   6 C    3.993 --     9 C    0.990    37 H    0.986    38 H    0.981
                            36 H    0.981
    12   7 N    3.358 --    13 C    1.262     9 C    0.911    39 H    0.899
                            14 O    0.178
    13   6 C    3.914 --    14 O    1.580    12 N    1.262    15 C    0.987
    14   8 O    1.893 --    13 C    1.580    12 N    0.178
    15   6 C    3.863 --    16 N    1.607    20 O    1.060    13 C    0.987
    16   7 N    3.005 --    15 C    1.607    17 N    1.195
    17   7 N    2.980 --    18 C    1.611    16 N    1.195
    18   6 C    3.870 --    17 N    1.611    20 O    1.081    19 C    1.030
    19   6 C    3.987 --    18 C    1.030    42 H    0.983    41 H    0.964
                            40 H    0.964
    20   8 O    2.322 --    18 C    1.081    15 C    1.060
    21   7 N    3.373 --     8 C    1.208    22 C    0.956    23 C    0.891
                             7 N    0.177
    22   6 C    3.955 --    43 H    0.982    45 H    0.980    44 H    0.971
                            21 N    0.956
    23   6 C    3.913 --    25 C    1.522    24 O    1.355    21 N    0.891
    24   8 O    1.723 --    23 C    1.355    25 C    0.167
    25   6 C    3.787 --    23 C    1.522     5 C    0.960    26 O    0.948
                            24 O    0.167
    26   8 O    1.917 --    25 C    0.948    46 H    0.855
    27   1 H    1.011 --     1 C    0.981
    28   1 H    1.012 --     1 C    0.981
    29   1 H    1.014 --     1 C    0.987
    30   1 H    1.016 --     6 C    0.985
    31   1 H    1.010 --     6 C    0.988
    32   1 H    1.012 --     6 C    0.987
    33   1 H    1.018 --    10 C    0.984
    34   1 H    1.008 --    10 C    0.984
    35   1 H    1.017 --    10 C    0.985
    36   1 H    1.015 --    11 C    0.981
    37   1 H    1.006 --    11 C    0.986
    38   1 H    1.007 --    11 C    0.981
    39   1 H    0.960 --    12 N    0.899
    40   1 H    0.997 --    19 C    0.964
    41   1 H    0.997 --    19 C    0.964
    42   1 H    0.999 --    19 C    0.983
    43   1 H    1.011 --    22 C    0.982
    44   1 H    1.023 --    22 C    0.971
    45   1 H    1.013 --    22 C    0.980
    46   1 H    0.892 --    26 O    0.855
 ---------------------------------------------------------------------------

           -------------------------------------------------
          | TOTAL ENERGY              -87.050795848388 Eh   |
          | GRADIENT NORM               0.000757405186 Eh/α |
          | HOMO-LUMO GAP               0.238848758746 eV   |
           -------------------------------------------------

 * finished run on 2023/06/20 at 15:18:07.318
