   * xtb version 6.5.1 (579679a) compiled by 'ehlert@majestix' on 2022-07-11
          program call               : /lustre/hpc/kemi/ree/PhD/git/ReactivityQM/dep/xtb-6.5.1/bin/xtb --gfn 1 /lustre/hpc/kemi/ree/PhD/git/ReactivityQM/calculations/R01/reac01prodE03/conf08/R01_reac01prodE03_conf08_gfn1.xyz --opt --vfukui --chrg -1 --uhf 0 --alpb DMSO

   ID    Z sym.   atoms
    1    6 C      1, 3, 5, 6, 9, 10
    2    8 O      2, 4, 11
    3    7 N      7, 8
    4    1 H      12-20

      * Solvation model:               ALPB
        Solvent                        DMSO
        Solvent mass                       7.8130E+01 g/mol
          :  Hamiltonian                  GFN1-xTB          :
 * total energy  :   -38.3100657 Eh     change       -0.2557243E-10 Eh
 * total energy  :   -38.3214579 Eh     change       -0.1139216E-01 Eh
 * total energy  :   -38.3250468 Eh     change       -0.3588894E-02 Eh
 * total energy  :   -38.3256209 Eh     change       -0.5741579E-03 Eh
 * total energy  :   -38.3261864 Eh     change       -0.5655003E-03 Eh
 * total energy  :   -38.3265539 Eh     change       -0.3674829E-03 Eh
 * total energy  :   -38.3271385 Eh     change       -0.5845705E-03 Eh
 * total energy  :   -38.3276549 Eh     change       -0.5164360E-03 Eh
 * total energy  :   -38.3280348 Eh     change       -0.3798454E-03 Eh
 * total energy  :   -38.3277297 Eh     change        0.3050351E-03 Eh
 * total energy  :   -38.3290507 Eh     change       -0.1072261E-04 Eh
 * total energy  :   -38.3290640 Eh     change       -0.1325747E-04 Eh
 * total energy  :   -38.3290721 Eh     change       -0.8090960E-05 Eh
 * total energy  :   -38.3290784 Eh     change       -0.6341953E-05 Eh
 * total energy  :   -38.3290871 Eh     change       -0.8740747E-05 Eh
 * total energy  :   -38.3290965 Eh     change       -0.9308878E-05 Eh
 * total energy  :   -38.3291049 Eh     change       -0.8450967E-05 Eh
 * total energy  :   -38.3291111 Eh     change       -0.6174675E-05 Eh
 * total energy  :   -38.3291138 Eh     change       -0.2760284E-05 Eh
   *** GEOMETRY OPTIMIZATION CONVERGED AFTER 32 ITERATIONS ***

 final structure:
================
20
 xtb: 6.5.1 (579679a)
C           -2.53074453995824        1.62460848724759       -0.41911195306741
O           -1.30765781641883        0.90648751096100       -0.50660656654994
C           -1.35648231834964       -0.39882352625779       -0.12902781319711
O           -2.41129312287950       -0.92729682242491        0.21493343202275
C            0.01924483287345       -1.02557992348385        0.07647596246432
C            0.01751801811481       -2.54013154166132       -0.13963593521668
N            0.15899149638158       -0.62436277093461        1.47665883386167
N            1.16530755418859        0.30777289776981        1.47975481520965
C            1.65661789772285        0.43479287970971        0.30641392334688
C            2.78639127419632        1.30372059267536       -0.12184273872644
O            1.04662786743396       -0.38340372043915       -0.65634050807636
H           -2.89226840325254        1.65738631296052        0.61390953992323
H           -2.33567800566295        2.63611058677578       -0.77285799691124
H           -3.29798029718662        1.15864463475011       -1.04516242863449
H           -0.83096368856342       -2.97556497080223        0.38493850882550
H            0.94009713676806       -2.96039804379652        0.25520395821192
H           -0.05498754478604       -2.76939458563804       -1.20138285045316
H            3.58877155914484        0.70735099930669       -0.56066969206432
H            2.46312382831603        2.02951785465021       -0.87110705871360
H            3.17536327191776        1.83856314863238        0.74276756774485

          :  Hamiltonian                  GFN1-xTB          :
         :: total energy             -38.329113841476 Eh    ::
         :: gradient norm              0.000586750193 Eh/a0 ::
         :: HOMO-LUMO gap              2.057686332356 eV    ::
         :: SCC energy               -38.635909229790 Eh    ::
         :: -> Gsolv                  -0.104099824658 Eh    ::
         :: repulsion energy           0.315674692116 Eh    ::

    * Orbital Energies and Occupations

         #    Occupation            Energy/Eh            Energy/eV
      -------------------------------------------------------------
         1        2.0000           -0.7921862             -21.5565
       ...           ...                  ...                  ...
        19        2.0000           -0.5036545             -13.7051
        20        2.0000           -0.4984805             -13.5643
        21        2.0000           -0.4935113             -13.4291
        22        2.0000           -0.4884280             -13.2908
        23        2.0000           -0.4756018             -12.9418
        24        2.0000           -0.4681631             -12.7394
        25        2.0000           -0.4608852             -12.5413
        26        2.0000           -0.4578486             -12.4587
        27        2.0000           -0.4195846             -11.4175
        28        2.0000           -0.4135052             -11.2520
        29        2.0000           -0.3890982             -10.5879
        30        2.0000           -0.3626312              -9.8677
        31        2.0000           -0.2894775              -7.8771 (HOMO)
        32                         -0.2138589              -5.8194 (LUMO)
        33                         -0.1708063              -4.6479
        34                         -0.1207318              -3.2853
        35                         -0.1131888              -3.0800
        36                         -0.0979700              -2.6659
        37                         -0.0584616              -1.5908
        38                         -0.0571979              -1.5564
        39                         -0.0469380              -1.2772
        40                         -0.0454689              -1.2373
        41                         -0.0392857              -1.0690
        42                         -0.0342484              -0.9319
       ...                                ...                  ...
        62                          0.6694988              18.2180
      -------------------------------------------------------------
                  HL-Gap            0.0756186 Eh            2.0577 eV

Wiberg/Mayer (AO) data.
largest (>0.10) Wiberg bond orders for each atom

     #   Z sym  total        # sym  WBO       # sym  WBO       # sym  WBO
 ---------------------------------------------------------------------------
     1   6 C    3.903 --    13 H    0.987    14 H    0.981    12 H    0.981
                             2 O    0.926
     2   8 O    2.152 --     3 C    1.044     1 C    0.926     4 O    0.104
     3   6 C    3.815 --     4 O    1.571     2 O    1.044     5 C    0.921
                             7 N    0.177
     4   8 O    1.855 --     3 C    1.571     2 O    0.104
     5   6 C    3.901 --     6 C    0.980     7 N    0.967    11 O    0.929
                             3 C    0.921
     6   6 C    3.996 --    17 H    0.987    16 H    0.986    15 H    0.986
                             5 C    0.980
     7   7 N    2.659 --     8 N    1.162     5 C    0.967     3 C    0.177
                             9 C    0.163
     8   7 N    3.014 --     9 C    1.688     7 N    1.162
     9   6 C    3.879 --     8 N    1.688    10 C    1.018    11 O    0.937
                             7 N    0.163
    10   6 C    3.996 --     9 C    1.018    20 H    0.987    18 H    0.976
                            19 H    0.976
    11   8 O    2.066 --     9 C    0.937     5 C    0.929
    12   1 H    1.013 --     1 C    0.981
    13   1 H    1.016 --     1 C    0.987
    14   1 H    1.016 --     1 C    0.981
    15   1 H    1.017 --     6 C    0.986
    16   1 H    1.018 --     6 C    0.986
    17   1 H    1.009 --     6 C    0.987
    18   1 H    1.007 --    10 C    0.976
    19   1 H    1.008 --    10 C    0.976
    20   1 H    1.009 --    10 C    0.987
 ---------------------------------------------------------------------------

           -------------------------------------------------
          | TOTAL ENERGY              -38.329113841476 Eh   |
          | GRADIENT NORM               0.000586750193 Eh/α |
          | HOMO-LUMO GAP               2.057686332356 eV   |
           -------------------------------------------------

 * finished run on 2023/06/20 at 14:53:21.370
