   * xtb version 6.5.1 (579679a) compiled by 'ehlert@majestix' on 2022-07-11
          program call               : /lustre/hpc/kemi/ree/PhD/git/ReactivityQM/dep/xtb-6.5.1/bin/xtb --gfn 1 /lustre/hpc/kemi/ree/PhD/git/ReactivityQM/calculations/R02methylcation/reac01prodE02/conf20/R02methylcation_reac01prodE02_conf20_gfn1.xyz --opt --vfukui --chrg -2 --uhf 0 --alpb DMSO

   ID    Z sym.   atoms
    1    6 C      1, 3, 4, 6, 8-11, 13, 15, 18, 19, 22, 24
    2    8 O      2, 5, 14, 20, 23, 25
    3    7 N      7, 12, 16, 17, 21
    4    1 H      26-42

      * Solvation model:               ALPB
        Solvent                        DMSO
        Solvent mass                       7.8130E+01 g/mol
          :  Hamiltonian                  GFN1-xTB          :
 * total energy  :   -83.5911021 Eh     change       -0.3899601E-09 Eh
 * total energy  :   -83.6052881 Eh     change       -0.1418603E-01 Eh
 * total energy  :   -83.6114143 Eh     change       -0.6126206E-02 Eh
 * total energy  :   -83.6127734 Eh     change       -0.1359079E-02 Eh
 * total energy  :   -83.6135250 Eh     change       -0.7516706E-03 Eh
 * total energy  :   -83.6138822 Eh     change       -0.3571096E-03 Eh
 * total energy  :   -83.6141139 Eh     change       -0.2317436E-03 Eh
 * total energy  :   -83.6142900 Eh     change       -0.1761117E-03 Eh
 * total energy  :   -83.6144417 Eh     change       -0.1517237E-03 Eh
 * total energy  :   -83.6145815 Eh     change       -0.1398120E-03 Eh
 * total energy  :   -83.6158846 Eh     change       -0.2427976E-04 Eh
 * total energy  :   -83.6159039 Eh     change       -0.1924921E-04 Eh
 * total energy  :   -83.6159252 Eh     change       -0.2130813E-04 Eh
 * total energy  :   -83.6159483 Eh     change       -0.2313267E-04 Eh
 * total energy  :   -83.6159666 Eh     change       -0.1833270E-04 Eh
 * total energy  :   -83.6159791 Eh     change       -0.1250275E-04 Eh
 * total energy  :   -83.6159868 Eh     change       -0.7652727E-05 Eh
 * total energy  :   -83.6159937 Eh     change       -0.6938050E-05 Eh
 * total energy  :   -83.6159970 Eh     change       -0.3280836E-05 Eh
   *** GEOMETRY OPTIMIZATION CONVERGED AFTER 40 ITERATIONS ***

 final structure:
================
42
 xtb: 6.5.1 (579679a)
C           -4.52590173343158        0.44646478059136        1.61548033727332
O           -4.18930096771997        1.45935690167375        0.72080001178922
C           -3.88423067385809        1.05820295429477       -0.77232153396265
C           -5.24318322950789        0.46472938200072       -1.27899474014612
O           -3.50383490189230        2.10873403685290       -1.42333402256466
C           -2.76918264475489       -0.05002897674860       -0.65748401726004
N           -1.73103616388135        0.32636120769110        0.14761387919917
C           -0.68205186992655       -0.41118436178855        0.27977344832262
C            0.45729331206589        0.00045656937099        1.18892439721927
C            0.19521869765412        1.40703340049959        1.73486741608198
C            0.61786560641094       -1.00681869196505        2.33678117528608
N            1.68865558601893        0.00484597284601        0.37185914665997
C            2.90765119945278        0.32088424543962        0.83295425266922
O            3.18176546470573        0.67138401812988        1.97106104806750
C            3.92681952268756        0.21193768648315       -0.24988968096079
N            3.69006020102640       -0.07133083933996       -1.49528984849586
N            4.89259600652613       -0.05088383407893       -2.13987764739951
C            5.78436026482766        0.24363587779691       -1.24593966719473
C            7.24403124447211        0.38625517647754       -1.43927602512771
O            5.23910301051342        0.42417022240740       -0.03298887415346
N           -0.55481896057366       -1.60346633419811       -0.40518874566391
C           -1.51852018541114       -2.08462875053435       -1.26238304498038
O           -1.31361050023839       -3.17059169083758       -1.83259275343427
C           -2.73623748037703       -1.23339135762887       -1.42080015064378
O           -3.64484603320738       -1.63732679974509       -2.21136978983407
H           -5.58786317223588        0.14745101877781        1.54945675737183
H           -4.35451577682795        0.81089624279757        2.63835014841389
H           -3.91435707347491       -0.46429004526375        1.48387670274246
H           -5.50148691392211       -0.47829152721817       -0.80064326164088
H           -6.02579428578408        1.19875881776009       -1.08249996516176
H           -5.17428048172066        0.31235352938749       -2.35524975361890
H            0.15945704480939        2.12550885363306        0.91588408057841
H           -0.76676165884493        1.41373127020862        2.24688822759081
H            0.97388052659777        1.69912051041038        2.43583757760772
H            1.41410113258774       -0.69638571373919        3.01066866244955
H            0.85649365258019       -1.99303754391571        1.94265728332280
H           -0.31464302666091       -1.06703459631895        2.89650593272105
H            1.62097346278436       -0.31063966468299       -0.58632369114739
H            7.55975927799764        1.39560806563227       -1.17434870918112
H            7.77533580250610       -0.31273698737222       -0.79334795674749
H            7.49676518317728        0.18651167823155       -2.47817478658277
H            0.25427053484320       -2.18232470402313       -0.26540381945904

          :  Hamiltonian                  GFN1-xTB          :
         :: total energy             -83.615997008252 Eh    ::
         :: gradient norm              0.000907527756 Eh/a0 ::
         :: HOMO-LUMO gap              0.282472118182 eV    ::
         :: SCC energy               -84.354362904625 Eh    ::
         :: -> Gsolv                  -0.311144137439 Eh    ::
         :: repulsion energy           0.764639921761 Eh    ::

    * Orbital Energies and Occupations

         #    Occupation            Energy/Eh            Energy/eV
      -------------------------------------------------------------
         1        2.0000           -0.8559114             -23.2905
       ...           ...                  ...                  ...
        56        2.0000           -0.4427741             -12.0485
        57        2.0000           -0.4380393             -11.9197
        58        2.0000           -0.4309796             -11.7276
        59        2.0000           -0.4252199             -11.5708
        60        2.0000           -0.4179309             -11.3725
        61        2.0000           -0.4108845             -11.1807
        62        2.0000           -0.4029118             -10.9638
        63        2.0000           -0.3830036             -10.4221
        64        2.0000           -0.3802686             -10.3476
        65        2.0000           -0.3486897              -9.4883
        66        2.0000           -0.3327008              -9.0532
        67        2.0000           -0.3181910              -8.6584
        68        1.9916           -0.3091564              -8.4126 (HOMO)
        69        0.0084           -0.2987757              -8.1301 (LUMO)
        70                         -0.2501543              -6.8070
        71                         -0.2184437              -5.9442
        72                         -0.2023899              -5.5073
        73                         -0.1872337              -5.0949
        74                         -0.1396270              -3.7994
        75                         -0.1100874              -2.9956
        76                         -0.1048241              -2.8524
        77                         -0.0942122              -2.5636
        78                         -0.0905920              -2.4651
        79                         -0.0888951              -2.4190
       ...                                ...                  ...
       134                          0.7437041              20.2372
      -------------------------------------------------------------
                  HL-Gap            0.0103807 Eh            0.2825 eV

Wiberg/Mayer (AO) data.
largest (>0.10) Wiberg bond orders for each atom

     #   Z sym  total        # sym  WBO       # sym  WBO       # sym  WBO
 ---------------------------------------------------------------------------
     1   6 C    3.954 --     2 O    1.004    27 H    0.980    26 H    0.977
                            28 H    0.972
     2   8 O    1.907 --     1 C    1.004     3 C    0.712
     3   6 C    3.882 --     5 O    1.265     4 C    0.943     6 C    0.908
                             2 O    0.712
     4   6 C    3.988 --    30 H    0.988    29 H    0.988    31 H    0.984
                             3 C    0.943
     5   8 O    1.513 --     3 C    1.265
     6   6 C    3.921 --    24 C    1.340     7 N    1.237     3 C    0.908
                            25 O    0.136
     7   7 N    3.036 --     8 C    1.561     6 C    1.237
     8   6 C    3.923 --     7 N    1.561    21 N    1.091     9 C    0.977
     9   6 C    3.923 --    10 C    0.996    11 C    0.985     8 C    0.977
                            12 N    0.899
    10   6 C    3.994 --     9 C    0.996    32 H    0.985    34 H    0.985
                            33 H    0.984
    11   6 C    3.992 --    37 H    0.986     9 C    0.985    36 H    0.984
                            35 H    0.982
    12   7 N    3.364 --    13 C    1.284     9 C    0.899    38 H    0.898
                            14 O    0.184
    13   6 C    3.919 --    14 O    1.573    12 N    1.284    15 C    0.982
    14   8 O    1.891 --    13 C    1.573    12 N    0.184
    15   6 C    3.866 --    16 N    1.614    20 O    1.061    13 C    0.982
    16   7 N    3.009 --    15 C    1.614    17 N    1.192
    17   7 N    2.980 --    18 C    1.614    16 N    1.192
    18   6 C    3.872 --    17 N    1.614    20 O    1.080    19 C    1.030
    19   6 C    3.988 --    18 C    1.030    41 H    0.983    40 H    0.965
                            39 H    0.964
    20   8 O    2.324 --    18 C    1.080    15 C    1.061
    21   7 N    3.414 --    22 C    1.143     8 C    1.091    42 H    0.907
                            23 O    0.127
    22   6 C    3.880 --    23 O    1.503    21 N    1.143    24 C    1.023
    23   8 O    1.795 --    22 C    1.503    21 N    0.127
    24   6 C    3.955 --    25 O    1.398     6 C    1.340    22 C    1.023
    25   8 O    1.740 --    24 C    1.398     6 C    0.136
    26   1 H    1.022 --     1 C    0.977
    27   1 H    1.027 --     1 C    0.980
    28   1 H    1.028 --     1 C    0.972
    29   1 H    1.021 --     4 C    0.988
    30   1 H    1.022 --     4 C    0.988
    31   1 H    1.040 --     4 C    0.984
    32   1 H    1.013 --    10 C    0.985
    33   1 H    1.018 --    10 C    0.984
    34   1 H    1.013 --    10 C    0.985
    35   1 H    1.011 --    11 C    0.982
    36   1 H    1.005 --    11 C    0.984
    37   1 H    1.006 --    11 C    0.986
    38   1 H    0.962 --    12 N    0.898
    39   1 H    0.998 --    19 C    0.964
    40   1 H    0.997 --    19 C    0.965
    41   1 H    0.999 --    19 C    0.983
    42   1 H    0.958 --    21 N    0.907
 ---------------------------------------------------------------------------

           -------------------------------------------------
          | TOTAL ENERGY              -83.615997008252 Eh   |
          | GRADIENT NORM               0.000907527756 Eh/α |
          | HOMO-LUMO GAP               0.282472118182 eV   |
           -------------------------------------------------

 * finished run on 2023/06/21 at 17:07:11.758
