   * xtb version 6.5.1 (579679a) compiled by 'ehlert@majestix' on 2022-07-11
          program call               : /lustre/hpc/kemi/ree/PhD/git/ReactivityQM/dep/xtb-6.5.1/bin/xtb --gfn 1 /lustre/hpc/kemi/ree/PhD/git/ReactivityQM/calculations/R01/reac02prodN12/conf11/R01_reac02prodN12_conf11_gfn1.xyz --opt --vfukui --chrg 1 --uhf 0 --alpb DMSO

   ID    Z sym.   atoms
    1    6 C      1, 3, 5, 7-10, 13, 15, 16
    2    8 O      2, 4, 14, 17
    3    7 N      6, 11, 12
    4    1 H      18-33

      * Solvation model:               ALPB
        Solvent                        DMSO
        Solvent mass                       7.8130E+01 g/mol
          :  Hamiltonian                  GFN1-xTB          :
 * total energy  :   -57.8357091 Eh     change       -0.4106937E-11 Eh
 * total energy  :   -57.8532282 Eh     change       -0.1751909E-01 Eh
 * total energy  :   -57.8588732 Eh     change       -0.5645055E-02 Eh
 * total energy  :   -57.8601646 Eh     change       -0.1291404E-02 Eh
 * total energy  :   -57.8609184 Eh     change       -0.7538041E-03 Eh
 * total energy  :   -57.8611336 Eh     change       -0.2152235E-03 Eh
 * total energy  :   -57.8612405 Eh     change       -0.1068352E-03 Eh
 * total energy  :   -57.8612919 Eh     change       -0.5139927E-04 Eh
 * total energy  :   -57.8613128 Eh     change       -0.2092998E-04 Eh
 * total energy  :   -57.8613267 Eh     change       -0.1394087E-04 Eh
 * total energy  :   -57.8613337 Eh     change       -0.6947425E-05 Eh
 * total energy  :   -57.8613379 Eh     change       -0.4174325E-05 Eh
   *** GEOMETRY OPTIMIZATION CONVERGED AFTER 12 ITERATIONS ***

 final structure:
================
33
 xtb: 6.5.1 (579679a)
C            3.81400521068475       -2.67545566227376       -0.19409129932756
O            2.56565169536735       -1.96213658638697       -0.17571490169556
C            2.63001048684089       -0.65635139738490       -0.07667502593949
O            3.66373109409753       -0.02296914490125        0.00538173930357
C            1.29118523393521        0.01639813898565       -0.07445251413504
N            0.19538667914329       -0.75473730766009       -0.15934115091530
C           -0.99187291497080       -0.21075364710914       -0.14869713527271
C           -2.20084697273427       -1.12147572094820       -0.26605084917869
C           -3.49734360799629       -0.36011340415351       -0.53392458923905
C           -2.30021688592265       -1.94781369647544        1.02513953319617
N           -1.95143366611833       -2.02684067495328       -1.37898659608986
N           -1.11724818133074        1.14210983936226       -0.05095912760123
C           -0.07218642387800        1.98364649412871        0.02537192935667
O           -0.40875842456207        3.24445472340255        0.10765549023703
C            0.54973817089462        4.31318514368212        0.21090264183633
C            1.22221655268666        1.40637022883621        0.01684660582433
O            2.28740913960380        2.19409153634650        0.09973494530054
H            4.36671374320450       -2.47180966341598        0.72484304600818
H            4.40433444106027       -2.35695338852636       -1.05516478716633
H            3.56236877311239       -3.73106826173952       -0.26785764973819
H           -3.39759798441520        0.26269393482957       -1.42157567615560
H           -4.29801460249923       -1.07905306898903       -0.70467387187880
H           -3.76579408729076        0.26352651728055        0.31707906034641
H           -3.09561355757856       -2.68364768845704        0.91582165652721
H           -1.35836200990931       -2.46363504220294        1.20755816245692
H           -2.52103287494701       -1.30082365319154        1.87225225232102
H           -1.90420669665525       -1.49521220241497       -2.23718503590941
H           -1.05561108198098       -2.48108393434940       -1.24270766831773
H           -2.03210816121950        1.57699711434884       -0.02975994389633
H            1.14428343020814        4.19741565447581        1.11765945936434
H           -0.04483746804108        5.22450632884349        0.25866348178176
H            1.19630388886100        4.32473034894472       -0.66690228588516
H            3.11974506235045        1.65180714206637        0.08967510448229

          :  Hamiltonian                  GFN1-xTB          :
         :: total energy             -57.861337870112 Eh    ::
         :: gradient norm              0.000571287480 Eh/a0 ::
         :: HOMO-LUMO gap              1.597290559309 eV    ::
         :: SCC energy               -58.432293988184 Eh    ::
         :: -> Gsolv                  -0.090931615618 Eh    ::
         :: repulsion energy           0.588991029843 Eh    ::

    * Orbital Energies and Occupations

         #    Occupation            Energy/Eh            Energy/eV
      -------------------------------------------------------------
         1        2.0000           -0.8927903             -24.2941
       ...           ...                  ...                  ...
        35        2.0000           -0.5374777             -14.6255
        36        2.0000           -0.5324117             -14.4877
        37        2.0000           -0.5302069             -14.4277
        38        2.0000           -0.5298660             -14.4184
        39        2.0000           -0.5266912             -14.3320
        40        2.0000           -0.5248836             -14.2828
        41        2.0000           -0.5158347             -14.0366
        42        2.0000           -0.5135240             -13.9737
        43        2.0000           -0.5076122             -13.8128
        44        2.0000           -0.5046843             -13.7332
        45        2.0000           -0.4817106             -13.1080
        46        2.0000           -0.4753262             -12.9343
        47        2.0000           -0.4347022             -11.8288 (HOMO)
        48                         -0.3760029             -10.2316 (LUMO)
        49                         -0.3290351              -8.9535
        50                         -0.2844528              -7.7404
        51                         -0.2013301              -5.4785
        52                         -0.1640779              -4.4648
        53                         -0.1531713              -4.1680
        54                         -0.1472179              -4.0060
        55                         -0.1368827              -3.7248
        56                         -0.1227075              -3.3390
        57                         -0.1058093              -2.8792
        58                         -0.1013437              -2.7577
       ...                                ...                  ...
       100                          0.6845130              18.6265
      -------------------------------------------------------------
                  HL-Gap            0.0586993 Eh            1.5973 eV

Wiberg/Mayer (AO) data.
largest (>0.10) Wiberg bond orders for each atom

     #   Z sym  total        # sym  WBO       # sym  WBO       # sym  WBO
 ---------------------------------------------------------------------------
     1   6 C    3.848 --    20 H    0.985    18 H    0.977    19 H    0.977
                             2 O    0.875
     2   8 O    2.245 --     3 C    1.176     1 C    0.875     4 O    0.142
     3   6 C    3.856 --     4 O    1.623     2 O    1.176     5 C    0.984
     4   8 O    1.973 --     3 C    1.623     2 O    0.142
     5   6 C    3.970 --    16 C    1.369     6 N    1.307     3 C    0.984
     6   7 N    3.048 --     7 C    1.492     5 C    1.307
     7   6 C    3.890 --     6 N    1.492    12 N    1.188     8 C    0.970
     8   6 C    3.961 --     9 C    1.002    11 N    0.984    10 C    0.974
                             7 C    0.970
     9   6 C    3.992 --     8 C    1.002    21 H    0.983    23 H    0.982
                            22 H    0.980
    10   6 C    3.990 --    26 H    0.986    25 H    0.984    24 H    0.981
                             8 C    0.974
    11   7 N    2.973 --     8 C    0.984    27 H    0.939    28 H    0.935
    12   7 N    3.537 --    13 C    1.259     7 C    1.188    29 H    0.863
    13   6 C    3.893 --    12 N    1.259    16 C    1.213    14 O    1.177
    14   8 O    2.253 --    13 C    1.177    15 C    0.859
    15   6 C    3.827 --    31 H    0.981    32 H    0.976    30 H    0.976
                            14 O    0.859
    16   6 C    3.934 --     5 C    1.369    13 C    1.213    17 O    1.135
    17   8 O    2.093 --    16 C    1.135    33 H    0.742
    18   1 H    1.002 --     1 C    0.977
    19   1 H    1.002 --     1 C    0.977
    20   1 H    1.007 --     1 C    0.985
    21   1 H    0.996 --     9 C    0.983
    22   1 H    1.000 --     9 C    0.980
    23   1 H    0.998 --     9 C    0.982
    24   1 H    1.001 --    10 C    0.981
    25   1 H    1.003 --    10 C    0.984
    26   1 H    1.000 --    10 C    0.986
    27   1 H    0.953 --    11 N    0.939
    28   1 H    0.962 --    11 N    0.935
    29   1 H    0.913 --    12 N    0.863
    30   1 H    1.005 --    15 C    0.976
    31   1 H    1.004 --    15 C    0.981
    32   1 H    1.005 --    15 C    0.976
    33   1 H    0.827 --    17 O    0.742
 ---------------------------------------------------------------------------

           -------------------------------------------------
          | TOTAL ENERGY              -57.861337870112 Eh   |
          | GRADIENT NORM               0.000571287480 Eh/α |
          | HOMO-LUMO GAP               1.597290559309 eV   |
           -------------------------------------------------

 * finished run on 2023/06/20 at 15:11:43.156
