   * xtb version 6.5.1 (579679a) compiled by 'ehlert@majestix' on 2022-07-11
          program call               : /lustre/hpc/kemi/ree/PhD/git/ReactivityQM/dep/xtb-6.5.1/bin/xtb --gfn 1 /lustre/hpc/kemi/ree/PhD/git/ReactivityQM/calculations/R03/reac02prodE07/conf08/R03_reac02prodE07_conf08_gfn1.xyz --opt --vfukui --chrg -1 --uhf 0 --alpb DMSO

   ID    Z sym.   atoms
    1    6 C      1, 3, 5, 7-10, 12, 14, 15, 18, 19, 22, 23, 25
    2    8 O      2, 4, 13, 20, 24, 26
    3    7 N      6, 11, 16, 17, 21
    4    1 H      27-46

      * Solvation model:               ALPB
        Solvent                        DMSO
        Solvent mass                       7.8130E+01 g/mol
          :  Hamiltonian                  GFN1-xTB          :
 * total energy  :   -86.9917704 Eh     change       -0.1853095E-10 Eh
 * total energy  :   -87.0032889 Eh     change       -0.1151854E-01 Eh
 * total energy  :   -87.0076628 Eh     change       -0.4373832E-02 Eh
 * total energy  :   -87.0084122 Eh     change       -0.7494430E-03 Eh
 * total energy  :   -87.0090316 Eh     change       -0.6193831E-03 Eh
 * total energy  :   -87.0093185 Eh     change       -0.2868710E-03 Eh
 * total energy  :   -87.0096220 Eh     change       -0.3034823E-03 Eh
 * total energy  :   -87.0099765 Eh     change       -0.3545370E-03 Eh
 * total energy  :   -87.0103506 Eh     change       -0.3741078E-03 Eh
 * total energy  :   -87.0107504 Eh     change       -0.3997587E-03 Eh
 * total energy  :   -87.0146568 Eh     change       -0.1114173E-04 Eh
 * total energy  :   -87.0146732 Eh     change       -0.1637066E-04 Eh
 * total energy  :   -87.0146846 Eh     change       -0.1134932E-04 Eh
 * total energy  :   -87.0146921 Eh     change       -0.7568587E-05 Eh
 * total energy  :   -87.0146994 Eh     change       -0.7254517E-05 Eh
 * total energy  :   -87.0147076 Eh     change       -0.8212740E-05 Eh
 * total energy  :   -87.0147166 Eh     change       -0.8977507E-05 Eh
 * total energy  :   -87.0147250 Eh     change       -0.8391862E-05 Eh
 * total energy  :   -87.0147282 Eh     change       -0.3214121E-05 Eh
   *** GEOMETRY OPTIMIZATION CONVERGED AFTER 68 ITERATIONS ***

 final structure:
================
46
 xtb: 6.5.1 (579679a)
C           -1.36709620076534        4.20511299008827        0.59220507272576
O           -1.40682329714166        2.79549962865746        0.40633720770993
C           -2.62245915843927        2.21889175412795        0.54632536266901
O           -3.62465585614855        2.88998541475207        0.82253263918373
C           -2.64074200260116        0.78978848453051        0.33413247271415
N           -1.45797398621753        0.14959815984654        0.06126381061983
C           -1.41963393452481       -1.11655937128163       -0.19435733156661
C           -0.01797565333134       -1.68006318776261       -0.46652521188542
C            0.23083402989999       -1.57033919357190       -1.98374332548799
C            0.20604606336446       -3.11259963971633        0.04324289974169
N            0.91322103868653       -0.82146716147274        0.28864436522741
C            2.23520211406053       -0.64315214559723       -0.19482776971209
O            2.91138648787471       -1.76944676857649       -0.63637613021488
C            4.07558553905831       -2.14989695179884        0.09461669598494
C            2.88647906385819        0.55498822672851       -0.01589281672780
N            4.17573990740516        0.85017329041633       -0.28807581066743
N            4.34094663841675        2.17175124701465        0.04977789283943
C            3.21223461032322        2.61288047136612        0.48603226875022
C            2.91211059993958        3.98136269131487        0.97778714041990
O            2.22839477164359        1.66502018485972        0.47979420973869
N           -2.57267979790928       -1.86940286546678       -0.26138400960458
C           -2.63547134917807       -3.23399557187464       -0.77445542495283
C           -3.83104577022830       -1.34360636853089        0.13504629547103
O           -4.81837892782909       -2.08912082782116        0.17458422312656
C           -3.82451311564401        0.05382621106820        0.42647007139664
O           -5.00814818983302        0.62343993614602        0.77003552666074
H           -1.99329516509549        4.70844945714427       -0.15047618032125
H           -1.71939531980679        4.47162315513329        1.59304935491757
H           -0.32894116053744        4.51198729112948        0.47068789995093
H           -0.55470190272119       -2.08628236206836       -2.53283347322332
H            1.18700208516318       -2.01776722728291       -2.24779655605652
H            0.23061204057837       -0.52139581391673       -2.27948123976341
H            1.27219455494989       -3.26498232738664        0.19902303501398
H           -0.30009769570567       -3.26025261674101        0.99620278798131
H           -0.12991217048235       -3.86207179191802       -0.66798326668586
H            0.48997934291098        0.09709455478029        0.44830756869330
H            4.44103133388918       -3.07444860375458       -0.35475372743681
H            3.83946707501463       -2.32859702818935        1.15057504673481
H            4.85302432942592       -1.37832153327668        0.02471640654145
H            2.59464099767951        3.95218657888018        2.02090209408405
H            2.10807741816975        4.43092986037657        0.39372591419432
H            3.80356581836602        4.59892716480157        0.89283238110217
H           -1.94448010931151       -3.36084149061061       -1.60254380375679
H           -3.64919780567706       -3.41291570522892       -1.13613160894227
H           -2.41829469116305       -3.95704953777338        0.01249805707210
H           -4.86186260038789        1.59105633845390        0.89629098573626

          :  Hamiltonian                  GFN1-xTB          :
         :: total energy             -87.014728178943 Eh    ::
         :: gradient norm              0.000299579588 Eh/a0 ::
         :: HOMO-LUMO gap              0.062110573910 eV    ::
         :: SCC energy               -87.793503688741 Eh    ::
         :: -> Gsolv                  -0.101662243427 Eh    ::
         :: repulsion energy           0.808513877559 Eh    ::

    * Orbital Energies and Occupations

         #    Occupation            Energy/Eh            Energy/eV
      -------------------------------------------------------------
         1        2.0000           -0.8058462             -21.9282
       ...           ...                  ...                  ...
        59        2.0000           -0.4708800             -12.8133
        60        2.0000           -0.4509636             -12.2713
        61        2.0000           -0.4488457             -12.2137
        62        2.0000           -0.4426179             -12.0442
        63        2.0000           -0.4385424             -11.9333
        64        2.0000           -0.4312953             -11.7361
        65        2.0000           -0.4246357             -11.5549
        66        2.0000           -0.4192196             -11.4075
        67        2.0000           -0.4105865             -11.1726
        68        2.0000           -0.3977166             -10.8224
        69        2.0000           -0.3945254             -10.7356
        70        2.0000           -0.3906163             -10.6292
        71        1.5375           -0.3002530              -8.1703 (HOMO)
        72        0.4625           -0.2979705              -8.1082 (LUMO)
        73                         -0.2492440              -6.7823
        74                         -0.2067069              -5.6248
        75                         -0.2064503              -5.6178
        76                         -0.1624350              -4.4201
        77                         -0.1380627              -3.7569
        78                         -0.1321570              -3.5962
        79                         -0.1233287              -3.3559
        80                         -0.1178466              -3.2068
        81                         -0.1119896              -3.0474
        82                         -0.1109061              -3.0179
       ...                                ...                  ...
       144                          0.7012056              19.0808
      -------------------------------------------------------------
                  HL-Gap            0.0022825 Eh            0.0621 eV

Wiberg/Mayer (AO) data.
largest (>0.10) Wiberg bond orders for each atom

     #   Z sym  total        # sym  WBO       # sym  WBO       # sym  WBO
 ---------------------------------------------------------------------------
     1   6 C    3.890 --    29 H    0.984    27 H    0.980    28 H    0.980
                             2 O    0.917
     2   8 O    2.143 --     3 C    1.057     1 C    0.917     4 O    0.103
     3   6 C    3.753 --     4 O    1.509     5 C    1.117     2 O    1.057
     4   8 O    1.821 --     3 C    1.509     2 O    0.103
     5   6 C    3.851 --    25 C    1.335     6 N    1.161     3 C    1.117
     6   7 N    3.041 --     7 C    1.588     5 C    1.161
     7   6 C    3.907 --     6 N    1.588    21 N    1.149     8 C    0.973
     8   6 C    3.955 --    10 C    0.993     9 C    0.976     7 C    0.973
                            11 N    0.953
     9   6 C    3.989 --    32 H    0.985    30 H    0.982    31 H    0.980
                             8 C    0.976
    10   6 C    3.992 --     8 C    0.993    34 H    0.985    35 H    0.983
                            33 H    0.979
    11   7 N    3.041 --    12 C    1.030     8 C    0.953    36 H    0.902
    12   6 C    3.574 --    15 C    1.404    11 N    1.030    13 O    0.965
    13   8 O    2.031 --    12 C    0.965    14 C    0.923
    14   6 C    3.902 --    37 H    0.986    38 H    0.983    39 H    0.977
                            13 O    0.923
    15   6 C    3.844 --    12 C    1.404    16 N    1.308    20 O    0.971
    16   7 N    2.705 --    15 C    1.308    17 N    1.166
    17   7 N    2.979 --    18 C    1.653    16 N    1.166
    18   6 C    3.823 --    17 N    1.653    19 C    1.023    20 O    1.016
    19   6 C    3.994 --    18 C    1.023    42 H    0.985    40 H    0.972
                            41 H    0.970
    20   8 O    2.186 --    18 C    1.016    15 C    0.971
    21   7 N    3.377 --     7 C    1.149    23 C    1.037    22 C    0.945
                            24 O    0.110
    22   6 C    3.941 --    43 H    0.980    45 H    0.979    44 H    0.973
                            21 N    0.945
    23   6 C    3.842 --    24 O    1.504    25 C    1.174    21 N    1.037
    24   8 O    1.787 --    23 C    1.504    21 N    0.110
    25   6 C    3.769 --     5 C    1.335    23 C    1.174    26 O    1.065
    26   8 O    2.001 --    25 C    1.065    46 H    0.790
    27   1 H    1.010 --     1 C    0.980
    28   1 H    1.011 --     1 C    0.980
    29   1 H    1.018 --     1 C    0.984
    30   1 H    1.006 --     9 C    0.982
    31   1 H    1.011 --     9 C    0.980
    32   1 H    1.008 --     9 C    0.985
    33   1 H    1.016 --    10 C    0.979
    34   1 H    1.006 --    10 C    0.985
    35   1 H    1.006 --    10 C    0.983
    36   1 H    0.986 --    11 N    0.902
    37   1 H    1.017 --    14 C    0.986
    38   1 H    1.011 --    14 C    0.983
    39   1 H    1.039 --    14 C    0.977
    40   1 H    1.002 --    19 C    0.972
    41   1 H    1.005 --    19 C    0.970
    42   1 H    1.005 --    19 C    0.985
    43   1 H    1.009 --    22 C    0.980
    44   1 H    1.013 --    22 C    0.973
    45   1 H    1.005 --    22 C    0.979
    46   1 H    0.873 --    26 O    0.790
 ---------------------------------------------------------------------------

           -------------------------------------------------
          | TOTAL ENERGY              -87.014728178943 Eh   |
          | GRADIENT NORM               0.000299579588 Eh/α |
          | HOMO-LUMO GAP               0.062110573910 eV   |
           -------------------------------------------------

 * finished run on 2023/06/20 at 15:22:44.669
