   * xtb version 6.5.1 (579679a) compiled by 'ehlert@majestix' on 2022-07-11
          program call               : /lustre/hpc/kemi/ree/PhD/git/ReactivityQM/dep/xtb-6.5.1/bin/xtb --gfn 1 /lustre/hpc/kemi/ree/PhD/git/ReactivityQM/calculations/R03/reac01prodE02/conf07/R03_reac01prodE02_conf07_gfn1.xyz --opt --vfukui --chrg -1 --uhf 0 --alpb DMSO

   ID    Z sym.   atoms
    1    6 C      1-4, 6-9
    2    9 F      5
    3    7 N      10
    4    1 H      11-21

      * Solvation model:               ALPB
        Solvent                        DMSO
        Solvent mass                       7.8130E+01 g/mol
          :  Hamiltonian                  GFN1-xTB          :
 * total energy  :   -31.4564604 Eh     change       -0.4032330E-11 Eh
 * total energy  :   -31.4617329 Eh     change       -0.5272508E-02 Eh
 * total energy  :   -31.4628114 Eh     change       -0.1078433E-02 Eh
 * total energy  :   -31.4629655 Eh     change       -0.1541684E-03 Eh
 * total energy  :   -31.4631001 Eh     change       -0.1345295E-03 Eh
 * total energy  :   -31.4631884 Eh     change       -0.8836463E-04 Eh
 * total energy  :   -31.4632843 Eh     change       -0.9588982E-04 Eh
 * total energy  :   -31.4633600 Eh     change       -0.7565919E-04 Eh
 * total energy  :   -31.4634065 Eh     change       -0.4650833E-04 Eh
 * total energy  :   -31.4634467 Eh     change       -0.4019974E-04 Eh
 * total energy  :   -31.4634709 Eh     change       -0.2421679E-04 Eh
 * total energy  :   -31.4634884 Eh     change       -0.1746995E-04 Eh
 * total energy  :   -31.4634991 Eh     change       -0.1071355E-04 Eh
 * total energy  :   -31.4635070 Eh     change       -0.7852056E-05 Eh
 * total energy  :   -31.4635144 Eh     change       -0.7474886E-05 Eh
 * total energy  :   -31.4635213 Eh     change       -0.6885116E-05 Eh
 * total energy  :   -31.4635259 Eh     change       -0.4608893E-05 Eh
   *** GEOMETRY OPTIMIZATION CONVERGED AFTER 17 ITERATIONS ***

 final structure:
================
21
 xtb: 6.5.1 (579679a)
C           -0.42841179961798       -1.91079094607931       -0.00191613633385
C           -0.48799902072417       -0.55841539386384        0.77580306559481
C           -1.91071520627091       -0.03482134712109        0.81731441863139
C           -2.27394307968060        1.01226995961161        0.03544709094462
F           -3.60499693622833        1.37011052423140        0.04064559814314
C           -1.41352714495259        1.80889390839543       -0.72695032773482
C           -0.03545092612511        1.52108319815154       -0.58284292889061
C            0.44041697322446        0.47565232005796        0.15348823435312
C            1.92851499397662        0.27342478511481        0.32759430428959
N            2.58339731091529       -0.14217727475030       -0.93672961747925
H           -1.09478572970515       -2.64057981235759        0.46133413913047
H           -0.73850844009216       -1.76279906939152       -1.03732117184120
H            0.58568740868592       -2.31219004058427        0.00722326039304
H           -0.14975456997919       -0.79135987941595        1.80574772600117
H           -2.63755881821188       -0.57012632749560        1.41731430815501
H           -1.77329998084687        2.65112450908873       -1.30189150703697
H            0.67935907166509        2.19556977220518       -1.05801768690160
H            2.41432021786597        1.21055480548341        0.63945042297365
H            2.12747900975918       -0.47627214439347        1.11221340762417
H            3.56821625314706       -0.26614897866539       -0.74886573724180
H            2.22156141319538       -1.05300156822173       -1.19904086277416

          :  Hamiltonian                  GFN1-xTB          :
         :: total energy             -31.463525919337 Eh    ::
         :: gradient norm              0.000257441268 Eh/a0 ::
         :: HOMO-LUMO gap              2.663577867941 eV    ::
         :: SCC energy               -31.834661473414 Eh    ::
         :: -> Gsolv                  -0.082237009104 Eh    ::
         :: repulsion energy           0.381452740619 Eh    ::

    * Orbital Energies and Occupations

         #    Occupation            Energy/Eh            Energy/eV
      -------------------------------------------------------------
         1        2.0000           -0.7897711             -21.4908
       ...           ...                  ...                  ...
        16        2.0000           -0.4843909             -13.1809
        17        2.0000           -0.4795035             -13.0480
        18        2.0000           -0.4715415             -12.8313
        19        2.0000           -0.4619826             -12.5712
        20        2.0000           -0.4557043             -12.4003
        21        2.0000           -0.4444868             -12.0951
        22        2.0000           -0.4360827             -11.8664
        23        2.0000           -0.4128845             -11.2352
        24        2.0000           -0.4040417             -10.9945
        25        2.0000           -0.3989133             -10.8550
        26        2.0000           -0.3733732             -10.1600
        27        2.0000           -0.3607924              -9.8177
        28        2.0000           -0.2773416              -7.5468 (HOMO)
        29                         -0.1794569              -4.8833 (LUMO)
        30                         -0.1096155              -2.9828
        31                         -0.0857173              -2.3325
        32                         -0.0798377              -2.1725
        33                         -0.0684505              -1.8626
        34                         -0.0574722              -1.5639
        35                         -0.0451537              -1.2287
        36                         -0.0420031              -1.1430
        37                         -0.0278269              -0.7572
        38                         -0.0237953              -0.6475
        39                         -0.0192279              -0.5232
       ...                                ...                  ...
        62                          0.6570291              17.8787
      -------------------------------------------------------------
                  HL-Gap            0.0978847 Eh            2.6636 eV

Wiberg/Mayer (AO) data.
largest (>0.10) Wiberg bond orders for each atom

     #   Z sym  total        # sym  WBO       # sym  WBO       # sym  WBO
 ---------------------------------------------------------------------------
     1   6 C    3.992 --    12 H    0.989    11 H    0.987    13 H    0.985
                             2 C    0.967
     2   6 C    3.992 --     3 C    1.005     8 C    0.998    14 H    0.969
                             1 C    0.967
     3   6 C    3.900 --     4 C    1.585     2 C    1.005    15 H    0.975
                             6 C    0.110
     4   6 C    3.824 --     3 C    1.585     6 C    1.301     5 F    0.852
     5   9 F    0.959 --     4 C    0.852
     6   6 C    3.872 --     4 C    1.301     7 C    1.287    16 H    0.977
                             3 C    0.110     8 C    0.105
     7   6 C    3.994 --     8 C    1.626     6 C    1.287    17 H    0.973
     8   6 C    3.931 --     7 C    1.626     9 C    1.007     2 C    0.998
                             6 C    0.105
     9   6 C    3.969 --     8 C    1.007    18 H    0.979    19 H    0.977
                            10 N    0.968
    10   7 N    2.936 --     9 C    0.968    21 H    0.960    20 H    0.959
    11   1 H    1.015 --     1 C    0.987
    12   1 H    1.023 --     1 C    0.989
    13   1 H    1.013 --     1 C    0.985
    14   1 H    1.023 --     2 C    0.969
    15   1 H    1.004 --     3 C    0.975
    16   1 H    1.005 --     6 C    0.977
    17   1 H    1.008 --     7 C    0.973
    18   1 H    1.022 --     9 C    0.979
    19   1 H    1.008 --     9 C    0.977
    20   1 H    0.972 --    10 N    0.959
    21   1 H    0.984 --    10 N    0.960
 ---------------------------------------------------------------------------

           -------------------------------------------------
          | TOTAL ENERGY              -31.463525919337 Eh   |
          | GRADIENT NORM               0.000257441268 Eh/α |
          | HOMO-LUMO GAP               2.663577867941 eV   |
           -------------------------------------------------

 * finished run on 2023/06/20 at 15:12:58.615
