   * xtb version 6.5.1 (579679a) compiled by 'ehlert@majestix' on 2022-07-11
          program call               : /lustre/hpc/kemi/ree/PhD/git/ReactivityQM/dep/xtb-6.5.1/bin/xtb --gfn 1 /lustre/hpc/kemi/ree/PhD/git/ReactivityQM/calculations/R01/reac02prodE07/conf12/R01_reac02prodE07_conf12_gfn1.xyz --opt --vfukui --chrg -1 --uhf 0 --alpb DMSO

   ID    Z sym.   atoms
    1    6 C      1, 3, 5, 6, 8, 10, 12-15
    2    8 O      2, 4, 7, 9
    3    7 N      11, 16, 17
    4    1 H      18-33

      * Solvation model:               ALPB
        Solvent                        DMSO
        Solvent mass                       7.8130E+01 g/mol
          :  Hamiltonian                  GFN1-xTB          :
 * total energy  :   -58.5054503 Eh     change       -0.1821832E-10 Eh
 * total energy  :   -58.5219003 Eh     change       -0.1645000E-01 Eh
 * total energy  :   -58.5265263 Eh     change       -0.4625998E-02 Eh
 * total energy  :   -58.5272773 Eh     change       -0.7510196E-03 Eh
 * total energy  :   -58.5278003 Eh     change       -0.5229396E-03 Eh
 * total energy  :   -58.5279819 Eh     change       -0.1816494E-03 Eh
 * total energy  :   -58.5281189 Eh     change       -0.1370185E-03 Eh
 * total energy  :   -58.5282547 Eh     change       -0.1357548E-03 Eh
 * total energy  :   -58.5284495 Eh     change       -0.1947963E-03 Eh
 * total energy  :   -58.5286803 Eh     change       -0.2308094E-03 Eh
 * total energy  :   -58.5308881 Eh     change       -0.4620052E-05 Eh
 * total energy  :   -58.5309297 Eh     change       -0.4162372E-04 Eh
 * total energy  :   -58.5309472 Eh     change       -0.1745281E-04 Eh
 * total energy  :   -58.5309631 Eh     change       -0.1594428E-04 Eh
 * total energy  :   -58.5309777 Eh     change       -0.1456878E-04 Eh
 * total energy  :   -58.5309842 Eh     change       -0.6528483E-05 Eh
 * total energy  :   -58.5309904 Eh     change       -0.6212623E-05 Eh
 * total energy  :   -58.5309974 Eh     change       -0.6981883E-05 Eh
 * total energy  :   -58.5310019 Eh     change       -0.4452538E-05 Eh
   *** GEOMETRY OPTIMIZATION CONVERGED AFTER 41 ITERATIONS ***

 final structure:
================
33
 xtb: 6.5.1 (579679a)
C            3.78419101088413       -2.77085722409248       -0.04326832248094
O            2.52655748844777       -2.12991172569949       -0.09932069765520
C            2.58112620893521       -0.73848251500631       -0.29357828566105
O            3.72250965709968       -0.19684508962093       -0.44711139043469
C            1.36974574170427       -0.08176079019636       -0.31836447848108
C            1.31645712144093        1.37856676563847       -0.45325132449280
O            2.50400822330735        2.06654289941773       -0.45391098302376
C            0.12659671455707        1.99678652179345       -0.49484197362865
O           -0.13208454879129        3.36368020623916       -0.55714688535041
C            0.59619793842705        4.18193584066251        0.34486646766042
N           -1.07929985298478        1.21731216134535       -0.55976700308442
C           -0.94501964241426       -0.11885356429621       -0.12771255768604
C           -2.26610442717326       -0.81135561279965        0.15375786471600
C           -2.02939319956247       -2.11273656591154        0.93133687200494
C           -2.96763338322708       -1.10392965887823       -1.18087474163704
N           -3.11484951118040        0.10909950477939        0.91902269539332
N            0.15443920696767       -0.75474413456997       -0.06499684608980
H            4.39522567609368       -2.38398245117015        0.78290805901757
H            3.59955594370498       -3.83503971441101        0.11745433590356
H            4.34516035063791       -2.64088749467869       -0.97828073752115
H            3.21722441427454        1.34667531431888       -0.44396975410338
H            1.63889673519835        4.30621036484024        0.02318211469899
H            0.58773842725875        3.76670884613927        1.36113996920053
H            0.10882294670445        5.15986413287211        0.35550945283648
H           -1.87630436156678        1.68404953783001       -0.13854765183702
H           -1.53809067833133       -1.89588690339666        1.87974221264966
H           -2.97716642698967       -2.60991102815444        1.13105347277608
H           -1.38880401417897       -2.78022562391966        0.35359807459909
H           -3.92488554000490       -1.59419030892088       -1.00610729202702
H           -2.34782415257958       -1.75574537653159       -1.79734581600501
H           -3.14410485086047       -0.17157342963939       -1.71797385182412
H           -2.78503573953209        0.15985723169712        1.87412328311731
H           -4.05785147626698       -0.25036811567999        0.94867671845063

          :  Hamiltonian                  GFN1-xTB          :
         :: total energy             -58.531001854144 Eh    ::
         :: gradient norm              0.000983500871 Eh/a0 ::
         :: HOMO-LUMO gap              2.217473313696 eV    ::
         :: SCC energy               -59.064625380669 Eh    ::
         :: -> Gsolv                  -0.104937620214 Eh    ::
         :: repulsion energy           0.551588607765 Eh    ::

    * Orbital Energies and Occupations

         #    Occupation            Energy/Eh            Energy/eV
      -------------------------------------------------------------
         1        2.0000           -0.7669519             -20.8698
       ...           ...                  ...                  ...
        36        2.0000           -0.4751560             -12.9297
        37        2.0000           -0.4686555             -12.7528
        38        2.0000           -0.4620301             -12.5725
        39        2.0000           -0.4577763             -12.4567
        40        2.0000           -0.4480253             -12.1914
        41        2.0000           -0.4428789             -12.0513
        42        2.0000           -0.4321304             -11.7589
        43        2.0000           -0.4088456             -11.1253
        44        2.0000           -0.3989364             -10.8556
        45        2.0000           -0.3914948             -10.6531
        46        2.0000           -0.3751223             -10.2076
        47        2.0000           -0.3681401             -10.0176
        48        2.0000           -0.2923690              -7.9558 (HOMO)
        49                         -0.2108783              -5.7383 (LUMO)
        50                         -0.1784042              -4.8546
        51                         -0.1139701              -3.1013
        52                         -0.1097847              -2.9874
        53                         -0.1077536              -2.9321
        54                         -0.1044012              -2.8409
        55                         -0.0873650              -2.3773
        56                         -0.0846384              -2.3031
        57                         -0.0626078              -1.7036
        58                         -0.0552863              -1.5044
        59                         -0.0518730              -1.4115
       ...                                ...                  ...
       100                          0.7126711              19.3928
      -------------------------------------------------------------
                  HL-Gap            0.0814906 Eh            2.2175 eV

Wiberg/Mayer (AO) data.
largest (>0.10) Wiberg bond orders for each atom

     #   Z sym  total        # sym  WBO       # sym  WBO       # sym  WBO
 ---------------------------------------------------------------------------
     1   6 C    3.920 --    19 H    0.987    18 H    0.981    20 H    0.981
                             2 O    0.951
     2   8 O    2.061 --     1 C    0.951     3 C    0.934
     3   6 C    3.873 --     5 C    1.432     4 O    1.335     2 O    0.934
     4   8 O    1.791 --     3 C    1.335    21 H    0.127     5 C    0.123
     5   6 C    3.860 --     3 C    1.432     6 C    1.063    17 N    1.057
                             4 O    0.123
     6   6 C    3.911 --     8 C    1.655     5 C    1.063     7 O    1.027
     7   8 O    1.970 --     6 C    1.027    21 H    0.748
     8   6 C    3.826 --     6 C    1.655    11 N    0.967     9 O    0.950
     9   8 O    2.038 --     8 C    0.950    10 C    0.937
    10   6 C    3.913 --    24 H    0.986    23 H    0.982    22 H    0.980
                             9 O    0.937
    11   7 N    3.192 --    12 C    1.042     8 C    0.967    25 H    0.914
                            17 N    0.110
    12   6 C    3.945 --    17 N    1.727    11 N    1.042    13 C    0.975
    13   6 C    3.964 --    14 C    0.992    15 C    0.987    12 C    0.975
                            16 N    0.975
    14   6 C    3.996 --    13 C    0.992    27 H    0.988    26 H    0.985
                            28 H    0.983
    15   6 C    3.994 --    30 H    0.987    13 C    0.987    31 H    0.986
                            29 H    0.986
    16   7 N    2.972 --    13 C    0.975    33 H    0.948    32 H    0.948
    17   7 N    3.027 --    12 C    1.727     5 C    1.057    11 N    0.110
    18   1 H    1.020 --     1 C    0.981
    19   1 H    1.020 --     1 C    0.987
    20   1 H    1.021 --     1 C    0.981
    21   1 H    0.889 --     7 O    0.748     4 O    0.127
    22   1 H    1.027 --    10 C    0.980
    23   1 H    1.013 --    10 C    0.982
    24   1 H    1.019 --    10 C    0.986
    25   1 H    0.984 --    11 N    0.914
    26   1 H    1.012 --    14 C    0.985
    27   1 H    1.006 --    14 C    0.988
    28   1 H    1.018 --    14 C    0.983
    29   1 H    1.003 --    15 C    0.986
    30   1 H    1.008 --    15 C    0.987
    31   1 H    1.011 --    15 C    0.986
    32   1 H    0.964 --    16 N    0.948
    33   1 H    0.963 --    16 N    0.948
 ---------------------------------------------------------------------------

           -------------------------------------------------
          | TOTAL ENERGY              -58.531001854144 Eh   |
          | GRADIENT NORM               0.000983500871 Eh/α |
          | HOMO-LUMO GAP               2.217473313696 eV   |
           -------------------------------------------------

 * finished run on 2023/06/20 at 15:01:58.277
