   * xtb version 6.5.1 (579679a) compiled by 'ehlert@majestix' on 2022-07-11
          program call               : /lustre/hpc/kemi/ree/PhD/git/ReactivityQM/dep/xtb-6.5.1/bin/xtb --gfn 1 /lustre/hpc/kemi/ree/PhD/git/ReactivityQM/calculations/R02oxygendeprot/reac01prodN14/conf17/R02oxygendeprot_reac01prodN14_conf17_gfn1.xyz --opt --vfukui --chrg 0 --uhf 0 --alpb DMSO

   ID    Z sym.   atoms
    1    6 C      1, 3, 5, 6, 8, 9, 12-15, 17, 19, 22, 23
    2    8 O      2, 4, 7, 10, 18, 24
    3    7 N      11, 16, 20, 21, 25
    4    1 H      26-42

      * Solvation model:               ALPB
        Solvent                        DMSO
        Solvent mass                       7.8130E+01 g/mol
          :  Hamiltonian                  GFN1-xTB          :
 * total energy  :   -82.8992792 Eh     change       -0.7389644E-11 Eh
 * total energy  :   -82.9154397 Eh     change       -0.1616057E-01 Eh
 * total energy  :   -82.9251740 Eh     change       -0.9734229E-02 Eh
 * total energy  :   -82.9275705 Eh     change       -0.2396518E-02 Eh
 * total energy  :   -82.9299249 Eh     change       -0.2354446E-02 Eh
 * total energy  :   -82.9314222 Eh     change       -0.1497264E-02 Eh
 * total energy  :   -82.9329526 Eh     change       -0.1530405E-02 Eh
 * total energy  :   -82.9342099 Eh     change       -0.1257309E-02 Eh
 * total energy  :   -82.9352541 Eh     change       -0.1044148E-02 Eh
 * total energy  :   -82.9361159 Eh     change       -0.8617960E-03 Eh
 * total energy  :   -82.9745836 Eh     change       -0.9330965E-05 Eh
 * total energy  :   -82.9745857 Eh     change       -0.2113609E-05 Eh
 * total energy  :   -82.9746006 Eh     change       -0.1485935E-04 Eh
 * total energy  :   -82.9746082 Eh     change       -0.7611715E-05 Eh
 * total energy  :   -82.9746194 Eh     change       -0.1125636E-04 Eh
 * total energy  :   -82.9746273 Eh     change       -0.7879441E-05 Eh
 * total energy  :   -82.9746411 Eh     change       -0.1379639E-04 Eh
 * total energy  :   -82.9746479 Eh     change       -0.6769113E-05 Eh
 * total energy  :   -82.9746529 Eh     change       -0.4980903E-05 Eh
   *** GEOMETRY OPTIMIZATION CONVERGED AFTER 75 ITERATIONS ***

 final structure:
================
42
 xtb: 6.5.1 (579679a)
C           -5.06968333622356        1.10248398529683       -2.95957221586290
O           -4.02363541013278        0.88316993897307       -2.00668351379584
C           -4.38578802545545        0.33185992250048       -0.85350296319911
O           -5.51681632138116        0.00049548192793       -0.58430190714313
C           -3.22612233645669        0.16848428396400        0.06495891218382
C           -3.41933875270710       -0.28013230410647        1.28910415482021
O           -3.64860080437536       -0.66986918506812        2.35376165480967
C           -0.80548296320409       -1.68045186523106        1.48839623844439
C           -1.39353026412069       -2.45198538171354        0.34042500093096
O           -0.40597653197113       -2.21542273901436        2.50090338193687
N           -0.73619655266875       -0.30148961379842        1.38400232709264
C           -0.88621031878227        0.44389118288708        0.19989305287492
C            0.33664300390566        1.20300061146175       -0.28612959161941
C            0.31810872146232        1.32348037467461       -1.81360174155421
C            0.32519633282358        2.59138510657299        0.36453480438612
N            1.55027391826301        0.51970013605939        0.15420560413490
C            1.83433492475103       -0.75078608341520       -0.20207896661633
O            1.08470829657599       -1.48198357229501       -0.82992988127835
C            3.16479599835407       -1.19644821493726        0.27572160158691
N            3.70640475220062       -2.36774410936268        0.15006109426046
N            4.93045399205200       -2.30093111428857        0.74437417790239
C            5.06139599924120       -1.09264836852996        1.19664285427586
C            6.21409938015859       -0.51123475279983        1.91738590103775
O            3.97856967759830       -0.34259461898098        0.93429094695086
N           -1.98408160130768        0.63537090792583       -0.40958055236103
H           -5.84702868866099        1.73374144492175       -2.52340669268566
H           -5.50484258440594        0.14826545482189       -3.26508941054213
H           -4.61083979128308        1.60020527645861       -3.81099722955333
H           -1.43193571006115       -1.86868356682933       -0.57374921646915
H           -2.39663065611633       -2.77788782581492        0.61282734417158
H           -0.78047077953246       -3.33769157026455        0.18349756053422
H           -0.08350984943433        0.09771939973512        2.04484247494592
H            1.20288816922438        1.86104823701305       -2.14817791448209
H            0.30251888540896        0.33556879169065       -2.27140608083953
H           -0.57362395070117        1.86843772813572       -2.11874253109882
H           -0.58410456971573        3.11961667307405        0.08215838709451
H            1.18747569726170        3.16437712856175        0.02918050253029
H            0.36023623158015        2.50064821661540        1.44849559428811
H            2.26016579568674        1.07104366377882        0.60468545715349
H            6.99054074397670       -1.26293385553155        2.03745277056345
H            6.60871258238673        0.33764495689015        1.35949499231766
H            5.89692769577744       -0.15071816195874        2.89565361787078

          :  Hamiltonian                  GFN1-xTB          :
         :: total energy             -82.974652868155 Eh    ::
         :: gradient norm              0.000636312939 Eh/a0 ::
         :: HOMO-LUMO gap              2.781548793127 eV    ::
         :: SCC energy               -83.805918007585 Eh    ::
         :: -> Gsolv                  -0.059194645394 Eh    ::
         :: repulsion energy           0.858991839999 Eh    ::

    * Orbital Energies and Occupations

         #    Occupation            Energy/Eh            Energy/eV
      -------------------------------------------------------------
         1        2.0000           -0.8724037             -23.7393
       ...           ...                  ...                  ...
        55        2.0000           -0.5057995             -13.7635
        56        2.0000           -0.5039053             -13.7120
        57        2.0000           -0.5007896             -13.6272
        58        2.0000           -0.4887508             -13.2996
        59        2.0000           -0.4816393             -13.1061
        60        2.0000           -0.4744950             -12.9117
        61        2.0000           -0.4673219             -12.7165
        62        2.0000           -0.4664667             -12.6932
        63        2.0000           -0.4630663             -12.6007
        64        2.0000           -0.4564644             -12.4210
        65        2.0000           -0.4531171             -12.3299
        66        2.0000           -0.4495418             -12.2327
        67        2.0000           -0.4315569             -11.7433 (HOMO)
        68                         -0.3293368              -8.9617 (LUMO)
        69                         -0.3130460              -8.5184
        70                         -0.3054372              -8.3114
        71                         -0.2840736              -7.7300
        72                         -0.2571549              -6.9975
        73                         -0.2558616              -6.9623
        74                         -0.2006966              -5.4612
        75                         -0.1787737              -4.8647
        76                         -0.1417639              -3.8576
        77                         -0.1400675              -3.8114
        78                         -0.1353490              -3.6830
       ...                                ...                  ...
       134                          1.2016193              32.6977
      -------------------------------------------------------------
                  HL-Gap            0.1022200 Eh            2.7815 eV

Wiberg/Mayer (AO) data.
largest (>0.10) Wiberg bond orders for each atom

     #   Z sym  total        # sym  WBO       # sym  WBO       # sym  WBO
 ---------------------------------------------------------------------------
     1   6 C    3.864 --    28 H    0.985    26 H    0.980    27 H    0.980
                             2 O    0.890
     2   8 O    2.206 --     3 C    1.120     1 C    0.890     4 O    0.130
     3   6 C    3.868 --     4 O    1.641     2 O    1.120     5 C    0.985
     4   8 O    1.916 --     3 C    1.641     2 O    0.130
     5   6 C    3.903 --     6 C    1.576    25 N    1.030     3 C    0.985
                             7 O    0.167
     6   6 C    3.801 --     7 O    1.988     5 C    1.576
     7   8 O    2.288 --     6 C    1.988     5 C    0.167
     8   6 C    3.867 --    10 O    1.662    11 N    1.133     9 C    0.999
     9   6 C    3.991 --     8 C    0.999    29 H    0.981    31 H    0.968
                            30 H    0.959
    10   8 O    1.922 --     8 C    1.662    11 N    0.126
    11   7 N    3.316 --     8 C    1.133    12 C    1.017    32 H    0.888
                            10 O    0.126
    12   6 C    3.933 --    25 N    1.747    11 N    1.017    13 C    0.968
    13   6 C    3.937 --    14 C    0.985    15 C    0.980    12 C    0.968
                            16 N    0.931
    14   6 C    3.987 --    33 H    0.985    13 C    0.985    35 H    0.983
                            34 H    0.981
    15   6 C    3.988 --    38 H    0.984    36 H    0.984    37 H    0.981
                            13 C    0.980
    16   7 N    3.348 --    17 C    1.255    13 C    0.931    39 H    0.891
                            18 O    0.173
    17   6 C    3.916 --    18 O    1.578    16 N    1.255    19 C    0.996
    18   8 O    1.898 --    17 C    1.578    16 N    0.173
    19   6 C    3.873 --    20 N    1.621    24 O    1.047    17 C    0.996
    20   7 N    3.001 --    19 C    1.621    21 N    1.200
    21   7 N    2.981 --    22 C    1.609    20 N    1.200
    22   6 C    3.868 --    21 N    1.609    24 O    1.073    23 C    1.032
    23   6 C    3.986 --    22 C    1.032    40 H    0.982    42 H    0.963
                            41 H    0.962
    24   8 O    2.317 --    22 C    1.073    19 C    1.047
    25   7 N    3.053 --    12 C    1.747     5 C    1.030
    26   1 H    1.006 --     1 C    0.980
    27   1 H    1.006 --     1 C    0.980
    28   1 H    1.009 --     1 C    0.985
    29   1 H    1.013 --     9 C    0.981
    30   1 H    1.002 --     9 C    0.959
    31   1 H    1.006 --     9 C    0.968
    32   1 H    0.942 --    11 N    0.888
    33   1 H    1.000 --    14 C    0.985
    34   1 H    1.010 --    14 C    0.981
    35   1 H    1.010 --    14 C    0.983
    36   1 H    1.002 --    15 C    0.984
    37   1 H    0.996 --    15 C    0.981
    38   1 H    0.997 --    15 C    0.984
    39   1 H    0.933 --    16 N    0.891
    40   1 H    0.998 --    23 C    0.982
    41   1 H    0.996 --    23 C    0.962
    42   1 H    0.996 --    23 C    0.963
 ---------------------------------------------------------------------------

           -------------------------------------------------
          | TOTAL ENERGY              -82.974652868155 Eh   |
          | GRADIENT NORM               0.000636312939 Eh/α |
          | HOMO-LUMO GAP               2.781548793127 eV   |
           -------------------------------------------------

 * finished run on 2023/06/21 at 17:33:08.733
