                         Program Version 5.0.1 -  RELEASE  -
|  1> # ORCA input file
|  2> ! SP r2SCAN-3c CPCM
|  3>
|  4> %maxcore 1875.0
|  5> %pal nprocs 4 end
|  6> %cpcm smd true SMDsolvent "DMSO" end
|  7>
|  8> *xyz 1 1
|  9> C      -6.028681    0.828366    2.081584
| 10> O      -5.066017    0.581182    1.042852
| 11> C      -3.879682    0.166868    1.421669
| 12> O      -3.529948   -0.021152    2.563604
| 13> C      -2.930058   -0.065766    0.290414
| 14> C      -3.106601    0.072164   -1.050172
| 15> O      -4.241245    0.451960   -1.615002
| 16> C      -1.992152   -0.219555   -1.955543
| 17> O      -2.101293   -0.138000   -3.160103
| 18> N      -0.782271   -0.605326   -1.358393
| 19> C       0.270429   -0.853186   -2.350588
| 20> C      -0.627581   -0.701023   -0.027386
| 21> C       0.635379   -1.218511    0.646579
| 22> C       0.582495   -1.064285    2.173188
| 23> C       0.845987   -2.693935    0.288140
| 24> N       1.761899   -0.421507    0.169117
| 25> C       1.596178    0.926144    0.111523
| 26> O       0.492091    1.446983    0.174029
| 27> C       2.848454    1.669780   -0.079270
| 28> N       3.019114    2.952514   -0.175813
| 29> N       4.352899    3.160183   -0.317015
| 30> C       4.921400    1.991973   -0.298033
| 31> C       6.360330    1.679207   -0.421925
| 32> O       4.022898    1.006590   -0.149597
| 33> N      -1.686672   -0.476182    0.729904
| 34> H      -6.209602   -0.091306    2.641064
| 35> H      -5.652021    1.599342    2.756467
| 36> H      -6.936872    1.161277    1.584208
| 37> H      -4.154361    0.458247   -2.586885
| 38> H      -1.614734   -0.564970    1.741025
| 39> H       1.228130   -0.993882   -1.867613
| 40> H      -0.005560   -1.737751   -2.923458
| 41> H       0.308337    0.007553   -3.019041
| 42> H       0.362627   -0.033613    2.449590
| 43> H       1.559284   -1.328328    2.574186
| 44> H      -0.157648   -1.733632    2.608583
| 45> H       0.005340   -3.279080    0.656728
| 46> H       1.757268   -3.046041    0.767464
| 47> H       0.935032   -2.840175   -0.784585
| 48> H       2.684701   -0.811138    0.275977
| 49> H       6.940308    2.599042   -0.412034
| 50> H       6.670762    1.034855    0.399489
| 51> H       6.541653    1.144113   -1.354119
| 52> **                         ****END OF INPUT****

CARTESIAN COORDINATES (ANGSTROEM)
---------------------------------
  C     -6.028681    0.828366    2.081584
  O     -5.066017    0.581182    1.042852
  C     -3.879682    0.166868    1.421669
  O     -3.529948   -0.021152    2.563604
  C     -2.930058   -0.065766    0.290414
  C     -3.106601    0.072164   -1.050172
  O     -4.241245    0.451960   -1.615002
  C     -1.992152   -0.219555   -1.955543
  O     -2.101293   -0.138000   -3.160103
  N     -0.782271   -0.605326   -1.358393
  C      0.270429   -0.853186   -2.350588
  C     -0.627581   -0.701023   -0.027386
  C      0.635379   -1.218511    0.646579
  C      0.582495   -1.064285    2.173188
  C      0.845987   -2.693935    0.288140
  N      1.761899   -0.421507    0.169117
  C      1.596178    0.926144    0.111523
  O      0.492091    1.446983    0.174029
  C      2.848454    1.669780   -0.079270
  N      3.019114    2.952514   -0.175813
  N      4.352899    3.160183   -0.317015
  C      4.921400    1.991973   -0.298033
  C      6.360330    1.679207   -0.421925
  O      4.022898    1.006590   -0.149597
  N     -1.686672   -0.476182    0.729904
  H     -6.209602   -0.091306    2.641064
  H     -5.652021    1.599342    2.756467
  H     -6.936872    1.161277    1.584208
  H     -4.154361    0.458247   -2.586885
  H     -1.614734   -0.564970    1.741025
  H      1.228130   -0.993882   -1.867613
  H     -0.005560   -1.737751   -2.923458
  H      0.308337    0.007553   -3.019041
  H      0.362627   -0.033613    2.449590
  H      1.559284   -1.328328    2.574186
  H     -0.157648   -1.733632    2.608583
  H      0.005340   -3.279080    0.656728
  H      1.757268   -3.046041    0.767464
  H      0.935032   -2.840175   -0.784585
  H      2.684701   -0.811138    0.275977
  H      6.940308    2.599042   -0.412034
  H      6.670762    1.034855    0.399489
  H      6.541653    1.144113   -1.354119

 Total Charge           Charge          ....    1
 Multiplicity           Mult            ....    1
 Number of Electrons    NEL             ....  184
 Basis Dimension        Dim             ....  620

ORBITAL ENERGIES
----------------

  NO   OCC          E(Eh)            E(eV)
   0   2.0000     -19.074388      -519.0405
   1   2.0000     -19.027562      -517.7663
   2   2.0000     -19.026087      -517.7261
   3   2.0000     -18.972358      -516.2641
   4   2.0000     -18.966873      -516.1148
   5   2.0000     -18.960477      -515.9408
   6   2.0000     -14.277203      -388.5024
   7   2.0000     -14.270838      -388.3292
   8   2.0000     -14.219991      -386.9456
   9   2.0000     -14.215205      -386.8154
  10   2.0000     -14.204442      -386.5225
  11   2.0000     -10.193906      -277.3903
  12   2.0000     -10.192271      -277.3458
  13   2.0000     -10.183012      -277.0939
  14   2.0000     -10.176082      -276.9053
  15   2.0000     -10.156988      -276.3857
  16   2.0000     -10.155416      -276.3429
  17   2.0000     -10.153304      -276.2855
  18   2.0000     -10.136114      -275.8177
  19   2.0000     -10.134418      -275.7715
  20   2.0000     -10.088073      -274.5104
  21   2.0000     -10.079429      -274.2752
  22   2.0000     -10.048745      -273.4402
  23   2.0000     -10.041174      -273.2342
  24   2.0000     -10.040488      -273.2156
  25   2.0000      -1.164581       -31.6899
  26   2.0000      -1.106970       -30.1222
  27   2.0000      -1.091079       -29.6898
  28   2.0000      -1.061419       -28.8827
  29   2.0000      -1.049854       -28.5680
  30   2.0000      -1.029343       -28.0099
  31   2.0000      -1.013761       -27.5858
  32   2.0000      -0.985589       -26.8192
  33   2.0000      -0.950858       -25.8742
  34   2.0000      -0.934974       -25.4419
  35   2.0000      -0.843037       -22.9402
  36   2.0000      -0.823210       -22.4007
  37   2.0000      -0.778411       -21.1817
  38   2.0000      -0.748838       -20.3769
  39   2.0000      -0.721823       -19.6418
  40   2.0000      -0.720281       -19.5999
  41   2.0000      -0.692356       -18.8400
  42   2.0000      -0.682086       -18.5605
  43   2.0000      -0.675416       -18.3790
  44   2.0000      -0.661572       -18.0023
  45   2.0000      -0.612766       -16.6742
  46   2.0000      -0.609979       -16.5984
  47   2.0000      -0.601508       -16.3679
  48   2.0000      -0.592969       -16.1355
  49   2.0000      -0.583457       -15.8767
  50   2.0000      -0.565624       -15.3914
  51   2.0000      -0.547103       -14.8874
  52   2.0000      -0.522682       -14.2229
  53   2.0000      -0.511362       -13.9149
  54   2.0000      -0.504179       -13.7194
  55   2.0000      -0.501374       -13.6431
  56   2.0000      -0.482595       -13.1321
  57   2.0000      -0.473396       -12.8817
  58   2.0000      -0.468814       -12.7571
  59   2.0000      -0.468666       -12.7530
  60   2.0000      -0.461660       -12.5624
  61   2.0000      -0.453297       -12.3348
  62   2.0000      -0.442117       -12.0306
  63   2.0000      -0.433519       -11.7967
  64   2.0000      -0.430998       -11.7280
  65   2.0000      -0.423914       -11.5353
  66   2.0000      -0.414539       -11.2802
  67   2.0000      -0.410433       -11.1685
  68   2.0000      -0.407028       -11.0758
  69   2.0000      -0.398219       -10.8361
  70   2.0000      -0.393194       -10.6993
  71   2.0000      -0.385909       -10.5011
  72   2.0000      -0.384784       -10.4705
  73   2.0000      -0.378993       -10.3129
  74   2.0000      -0.376813       -10.2536
  75   2.0000      -0.373182       -10.1548
  76   2.0000      -0.371986       -10.1222
  77   2.0000      -0.369625       -10.0580
  78   2.0000      -0.358592        -9.7578
  79   2.0000      -0.352892        -9.6027
  80   2.0000      -0.344730        -9.3806
  81   2.0000      -0.337308        -9.1786
  82   2.0000      -0.322980        -8.7887
  83   2.0000      -0.312890        -8.5142
  84   2.0000      -0.298668        -8.1272
  85   2.0000      -0.293436        -7.9848
  86   2.0000      -0.278583        -7.5806
  87   2.0000      -0.276676        -7.5287
  88   2.0000      -0.273189        -7.4339
  89   2.0000      -0.269157        -7.3241
  90   2.0000      -0.263436        -7.1685
  91   2.0000      -0.243913        -6.6372
  92   0.0000      -0.119421        -3.2496
  93   0.0000      -0.103904        -2.8274
  94   0.0000      -0.089003        -2.4219
  95   0.0000      -0.027920        -0.7597
  96   0.0000      -0.014583        -0.3968

MULLIKEN ATOMIC CHARGES
-----------------------
   0 C :   -0.303865
   1 O :   -0.165735
   2 C :    0.177050
   3 O :   -0.437132
   4 C :    0.146012
   5 C :    0.074494
   6 O :   -0.340684
   7 C :    0.284534
   8 O :   -0.443694
   9 N :    0.395598
  10 C :   -0.453236
  11 C :   -0.181874
  12 C :   -0.037971
  13 C :   -0.595080
  14 C :   -0.438645
  15 N :   -0.214092
  16 C :   -0.035715
  17 O :   -0.400493
  18 C :    0.392820
  19 N :   -0.143664
  20 N :   -0.283388
  21 C :    0.413855
  22 C :   -0.628539
  23 O :   -0.051812
  24 N :    0.159624
  25 H :    0.184907
  26 H :    0.185042
  27 H :    0.186513
  28 H :    0.377660
  29 H :    0.343918
  30 H :    0.231476
  31 H :    0.215010
  32 H :    0.212364
  33 H :    0.208091
  34 H :    0.208905
  35 H :    0.204067
  36 H :    0.210218
  37 H :    0.202701
  38 H :    0.193664
  39 H :    0.332131
  40 H :    0.207190
  41 H :    0.201377
  42 H :    0.206397
Sum of atomic charges:    1.0000000

LOEWDIN ATOMIC CHARGES
----------------------
   0 C :   -0.023808
   1 O :   -0.546376
   2 C :    0.409432
   3 O :   -0.409559
   4 C :    0.248936
   5 C :    0.301141
   6 O :   -0.401192
   7 C :    0.403632
   8 O :   -0.421619
   9 N :   -0.594634
  10 C :   -0.057034
  11 C :    0.450456
  12 C :    0.110975
  13 C :   -0.331414
  14 C :   -0.324997
  15 N :   -0.591892
  16 C :    0.397539
  17 O :   -0.423983
  18 C :    0.413042
  19 N :   -0.321629
  20 N :   -0.350358
  21 C :    0.387557
  22 C :   -0.314740
  23 O :   -0.384797
  24 N :   -0.473365
  25 H :    0.188227
  26 H :    0.188323
  27 H :    0.192001
  28 H :    0.320155
  29 H :    0.327989
  30 H :    0.217960
  31 H :    0.209988
  32 H :    0.214611
  33 H :    0.183732
  34 H :    0.189421
  35 H :    0.179453
  36 H :    0.184565
  37 H :    0.184397
  38 H :    0.179858
  39 H :    0.307642
  40 H :    0.192714
  41 H :    0.192674
  42 H :    0.194976

  Mayer bond orders larger than 0.100000
B(  0-C ,  1-O ) :   0.8171 B(  0-C , 25-H ) :   0.9506 B(  0-C , 26-H ) :   0.9504
B(  0-C , 27-H ) :   0.9594 B(  1-O ,  2-C ) :   1.2481 B(  2-C ,  3-O ) :   1.8313
B(  2-C ,  4-C ) :   1.0054 B(  4-C ,  5-C ) :   1.3838 B(  4-C , 24-N ) :   1.0456
B(  5-C ,  6-O ) :   1.1032 B(  5-C ,  7-C ) :   0.9200 B(  6-O , 28-H ) :   0.8138
B(  7-C ,  8-O ) :   1.8299 B(  7-C ,  9-N ) :   1.0246 B(  9-N , 10-C ) :   0.8169
B(  9-N , 11-C ) :   1.3443 B(  9-N , 24-N ) :   0.1055 B( 10-C , 30-H ) :   0.9191
B( 10-C , 31-H ) :   0.9252 B( 10-C , 32-H ) :   0.9235 B( 11-C , 12-C ) :   0.7674
B( 11-C , 17-O ) :   0.2099 B( 11-C , 24-N ) :   1.3655 B( 12-C , 13-C ) :   0.9330
B( 12-C , 14-C ) :   1.0122 B( 12-C , 15-N ) :   0.7107 B( 13-C , 33-H ) :   0.9450
B( 13-C , 34-H ) :   0.9474 B( 13-C , 35-H ) :   0.9549 B( 14-C , 36-H ) :   0.9628
B( 14-C , 37-H ) :   0.9555 B( 14-C , 38-H ) :   0.9141 B( 15-N , 16-C ) :   1.1606
B( 15-N , 39-H ) :   0.8954 B( 16-C , 17-O ) :   1.7005 B( 16-C , 18-C ) :   0.8587
B( 16-C , 20-N ) :   0.1355 B( 18-C , 19-N ) :   1.7436 B( 18-C , 21-C ) :   0.1438
B( 18-C , 23-O ) :   1.0939 B( 19-N , 20-N ) :   1.2589 B( 20-N , 21-C ) :   1.5840
B( 21-C , 22-C ) :   0.8200 B( 21-C , 23-O ) :   1.0672 B( 22-C , 40-H ) :   0.9878
B( 22-C , 41-H ) :   0.9492 B( 22-C , 42-H ) :   0.9350 B( 24-N , 29-H ) :   0.8568

Dispersion correction           -0.019894888
FINAL SINGLE POINT ENERGY     -1269.103375216332

DIPOLE MOMENT
-------------
                                X             Y             Z
Electronic contribution:     -6.50356       8.82555      -5.36443
Nuclear contribution   :      7.50928     -13.43256       5.92244
                        -----------------------------------------
Total Dipole Moment    :      1.00571      -4.60700       0.55801
                        -----------------------------------------
Magnitude (a.u.)       :      4.74840
Magnitude (Debye)      :     12.06947

Rotational constants in cm-1:     0.014142     0.003802     0.003658
Rotational constants in MHz :   423.969136   113.979226   109.657879

                             ****ORCA TERMINATED NORMALLY****
TOTAL RUN TIME: 0 days 0 hours 2 minutes 29 seconds 525 msec
