   * xtb version 6.5.1 (579679a) compiled by 'ehlert@majestix' on 2022-07-11
          program call               : /lustre/hpc/kemi/ree/PhD/git/ReactivityQM/dep/xtb-6.5.1/bin/xtb --gfn 1 /lustre/hpc/kemi/ree/PhD/git/ReactivityQM/calculations/R02/reac01prodN18/conf16/R02_reac01prodN18_conf16_gfn1.xyz --opt --vfukui --chrg 1 --uhf 0 --alpb DMSO

   ID    Z sym.   atoms
    1    6 C      1, 3, 5, 6, 8, 11-15, 17, 19, 22, 23
    2    8 O      2, 4, 7, 9, 18, 24
    3    7 N      10, 16, 20, 21, 25
    4    1 H      26-43

      * Solvation model:               ALPB
        Solvent                        DMSO
        Solvent mass                       7.8130E+01 g/mol
          :  Hamiltonian                  GFN1-xTB          :
 * total energy  :   -83.1037406 Eh     change       -0.4517631E-10 Eh
 * total energy  :   -83.1193449 Eh     change       -0.1560434E-01 Eh
 * total energy  :   -83.1267193 Eh     change       -0.7374316E-02 Eh
 * total energy  :   -83.1286549 Eh     change       -0.1935648E-02 Eh
 * total energy  :   -83.1300163 Eh     change       -0.1361405E-02 Eh
 * total energy  :   -83.1310137 Eh     change       -0.9974275E-03 Eh
 * total energy  :   -83.1319003 Eh     change       -0.8865886E-03 Eh
 * total energy  :   -83.1326124 Eh     change       -0.7120720E-03 Eh
 * total energy  :   -83.1330560 Eh     change       -0.4435588E-03 Eh
 * total energy  :   -83.1333955 Eh     change       -0.3395676E-03 Eh
 * total energy  :   -83.1869390 Eh     change       -0.1286961E-04 Eh
 * total energy  :   -83.1869482 Eh     change       -0.9200165E-05 Eh
 * total energy  :   -83.1869626 Eh     change       -0.1440383E-04 Eh
 * total energy  :   -83.1869717 Eh     change       -0.9115106E-05 Eh
 * total energy  :   -83.1869788 Eh     change       -0.7011630E-05 Eh
 * total energy  :   -83.1869851 Eh     change       -0.6362610E-05 Eh
 * total energy  :   -83.1869900 Eh     change       -0.4901433E-05 Eh
 * total energy  :   -83.1869955 Eh     change       -0.5520756E-05 Eh
 * total energy  :   -83.1869979 Eh     change       -0.2364941E-05 Eh
   *** GEOMETRY OPTIMIZATION CONVERGED AFTER 211 ITERATIONS ***

 final structure:
================
43
 xtb: 6.5.1 (579679a)
C           -6.02868121114845        0.82836639038320        2.08158429917946
O           -5.06601707449279        0.58118228142388        1.04285202257442
C           -3.87968179666328        0.16686843102145        1.42166860488116
O           -3.52994790202916       -0.02115154269011        2.56360358123678
C           -2.93005759559126       -0.06576612939576        0.29041439141095
C           -3.10660132766174        0.07216362610693       -1.05017232514844
O           -4.24124452509183        0.45196037232191       -1.61500242984209
C           -1.99215193295973       -0.21955521329633       -1.95554281043185
O           -2.10129288921586       -0.13799981011140       -3.16010307270154
N           -0.78227092417678       -0.60532553767229       -1.35839265425240
C            0.27042943610418       -0.85318568605138       -2.35058839354926
C           -0.62758131298212       -0.70102308858729       -0.02738588234112
C            0.63537895364029       -1.21851092647256        0.64657856959557
C            0.58249549996242       -1.06428540158285        2.17318792872191
C            0.84598718150085       -2.69393497390932        0.28813970474552
N            1.76189910352415       -0.42150731029545        0.16911659341569
C            1.59617775552358        0.92614430116085        0.11152340151154
O            0.49209059710019        1.44698301796305        0.17402901840491
C            2.84845369239549        1.66978022516179       -0.07927019912086
N            3.01911440997093        2.95251428207855       -0.17581283061991
N            4.35289907957819        3.16018334303541       -0.31701501260275
C            4.92140017954461        1.99197307310624       -0.29803301627724
C            6.36032988341268        1.67920731776965       -0.42192524019112
O            4.02289753634036        1.00658991610805       -0.14959744927593
N           -1.68667206508303       -0.47618207362111        0.72990378641825
H           -6.20960192389658       -0.09130563590363        2.64106366355991
H           -5.65202128795292        1.59934175756723        2.75646698787242
H           -6.93687172366075        1.16127660864034        1.58420801300400
H           -4.15436067003994        0.45824698977242       -2.58688460385770
H           -1.61473397219098       -0.56497004036106        1.74102505676467
H            1.22812960319738       -0.99388202576531       -1.86761251031507
H           -0.00555954669130       -1.73775067093755       -2.92345754335031
H            0.30833746524257        0.00755334488297       -3.01904074032425
H            0.36262688588655       -0.03361259553115        2.44959039316334
H            1.55928361481939       -1.32832813744281        2.57418556101179
H           -0.15764777949089       -1.73363234873564        2.60858341020178
H            0.00534049827544       -3.27907972452432        0.65672768594840
H            1.75726820748984       -3.04604054802380        0.76746434947159
H            0.93503188748714       -2.84017537672600       -0.78458544789736
H            2.68470132535208       -0.81113817930367        0.27597666295279
H            6.94030824460847        2.59904154778345       -0.41203351509851
H            6.67076223158053        1.03485463047504        0.39948940808028
H            6.54165318847439        1.14411252024065       -1.35411941694229

          :  Hamiltonian                  GFN1-xTB          :
         :: total energy             -83.186997900535 Eh    ::
         :: gradient norm              0.000783538818 Eh/a0 ::
         :: HOMO-LUMO gap              2.699636284329 eV    ::
         :: SCC energy               -83.990019296732 Eh    ::
         :: -> Gsolv                  -0.113643507109 Eh    ::
         :: repulsion energy           0.830790963754 Eh    ::

    * Orbital Energies and Occupations

         #    Occupation            Energy/Eh            Energy/eV
      -------------------------------------------------------------
         1        2.0000           -0.8903287             -24.2271
       ...           ...                  ...                  ...
        55        2.0000           -0.5338925             -14.5280
        56        2.0000           -0.5328756             -14.5003
        57        2.0000           -0.5239150             -14.2565
        58        2.0000           -0.5227409             -14.2245
        59        2.0000           -0.5182684             -14.1028
        60        2.0000           -0.5179808             -14.0950
        61        2.0000           -0.4995974             -13.5947
        62        2.0000           -0.4972417             -13.5306
        63        2.0000           -0.4892267             -13.3125
        64        2.0000           -0.4828790             -13.1398
        65        2.0000           -0.4767401             -12.9728
        66        2.0000           -0.4658257             -12.6758
        67        2.0000           -0.4641332             -12.6297 (HOMO)
        68                         -0.3649234              -9.9301 (LUMO)
        69                         -0.3493766              -9.5070
        70                         -0.3333609              -9.0712
        71                         -0.2786095              -7.5814
        72                         -0.2675204              -7.2796
        73                         -0.2179982              -5.9320
        74                         -0.2062041              -5.6111
        75                         -0.1633484              -4.4449
        76                         -0.1558194              -4.2401
        77                         -0.1503843              -4.0922
        78                         -0.1480422              -4.0284
       ...                                ...                  ...
       136                          0.7159540              19.4821
      -------------------------------------------------------------
                  HL-Gap            0.0992098 Eh            2.6996 eV

Wiberg/Mayer (AO) data.
largest (>0.10) Wiberg bond orders for each atom

     #   Z sym  total        # sym  WBO       # sym  WBO       # sym  WBO
 ---------------------------------------------------------------------------
     1   6 C    3.848 --    28 H    0.985    27 H    0.978    26 H    0.978
                             2 O    0.875
     2   8 O    2.235 --     3 C    1.163     1 C    0.875     4 O    0.143
     3   6 C    3.869 --     4 O    1.647     2 O    1.163     5 C    0.987
     4   8 O    1.948 --     3 C    1.647     2 O    0.143
     5   6 C    3.921 --     6 C    1.519    25 N    1.091     3 C    0.987
     6   6 C    3.927 --     5 C    1.519     7 O    1.145     8 C    1.044
     7   8 O    2.118 --     6 C    1.145    29 H    0.790
     8   6 C    3.905 --     9 O    1.642    10 N    1.072     6 C    1.044
     9   8 O    1.965 --     8 C    1.642    10 N    0.118
    10   7 N    3.540 --    12 C    1.288     8 C    1.072    11 C    0.910
                             9 O    0.118
    11   6 C    3.893 --    31 H    0.975    32 H    0.971    33 H    0.970
                            10 N    0.910
    12   6 C    3.898 --    25 N    1.366    10 N    1.288    13 C    0.974
    13   6 C    3.933 --    14 C    0.988    15 C    0.975    12 C    0.974
                            16 N    0.937
    14   6 C    3.983 --    13 C    0.988    34 H    0.978    36 H    0.978
                            35 H    0.977
    15   6 C    3.980 --    37 H    0.982    39 H    0.979    38 H    0.977
                            13 C    0.975
    16   7 N    3.324 --    17 C    1.221    13 C    0.937    40 H    0.881
                            18 O    0.158
    17   6 C    3.908 --    18 O    1.576    16 N    1.221    19 C    1.016
    18   8 O    1.926 --    17 C    1.576    16 N    0.158
    19   6 C    3.879 --    20 N    1.604    24 O    1.046    17 C    1.016
    20   7 N    3.008 --    19 C    1.604    21 N    1.216
    21   7 N    2.983 --    22 C    1.592    20 N    1.216
    22   6 C    3.863 --    21 N    1.592    24 O    1.078    23 C    1.034
    23   6 C    3.984 --    22 C    1.034    41 H    0.981    42 H    0.964
                            43 H    0.957
    24   8 O    2.321 --    22 C    1.078    19 C    1.046
    25   7 N    3.536 --    12 C    1.366     5 C    1.091    30 H    0.853
    26   1 H    1.002 --     1 C    0.978
    27   1 H    1.002 --     1 C    0.978
    28   1 H    1.007 --     1 C    0.985
    29   1 H    0.825 --     7 O    0.790
    30   1 H    0.931 --    25 N    0.853
    31   1 H    1.004 --    11 C    0.975
    32   1 H    0.996 --    11 C    0.971
    33   1 H    0.998 --    11 C    0.970
    34   1 H    0.995 --    14 C    0.978
    35   1 H    0.994 --    14 C    0.977
    36   1 H    0.994 --    14 C    0.978
    37   1 H    0.996 --    15 C    0.982
    38   1 H    0.991 --    15 C    0.977
    39   1 H    0.996 --    15 C    0.979
    40   1 H    0.921 --    16 N    0.881
    41   1 H    0.997 --    23 C    0.981
    42   1 H    0.995 --    23 C    0.964
    43   1 H    0.995 --    23 C    0.957
 ---------------------------------------------------------------------------

           -------------------------------------------------
          | TOTAL ENERGY              -83.186997900535 Eh   |
          | GRADIENT NORM               0.000783538818 Eh/α |
          | HOMO-LUMO GAP               2.699636284329 eV   |
           -------------------------------------------------

 * finished run on 2023/06/20 at 15:46:10.549
