   * xtb version 6.5.1 (579679a) compiled by 'ehlert@majestix' on 2022-07-11
          program call               : /lustre/hpc/kemi/ree/PhD/git/ReactivityQM/dep/xtb-6.5.1/bin/xtb --gfn 1 /lustre/hpc/kemi/ree/PhD/git/ReactivityQM/calculations/R01/reac02prodN07/conf14/R01_reac02prodN07_conf14_gfn1.xyz --opt --vfukui --chrg 1 --uhf 0 --alpb DMSO

   ID    Z sym.   atoms
    1    6 C      1, 3, 5, 6, 8, 11-15
    2    8 O      2, 4, 7, 9
    3    7 N      10, 16, 17
    4    1 H      18-33

      * Solvation model:               ALPB
        Solvent                        DMSO
        Solvent mass                       7.8130E+01 g/mol
          :  Hamiltonian                  GFN1-xTB          :
 * total energy  :   -57.7919578 Eh     change       -0.4683116E-09 Eh
 * total energy  :   -57.8077376 Eh     change       -0.1577986E-01 Eh
 * total energy  :   -57.8141031 Eh     change       -0.6365443E-02 Eh
 * total energy  :   -57.8154582 Eh     change       -0.1355152E-02 Eh
 * total energy  :   -57.8169064 Eh     change       -0.1448127E-02 Eh
 * total energy  :   -57.8179823 Eh     change       -0.1075967E-02 Eh
 * total energy  :   -57.8195496 Eh     change       -0.1567268E-02 Eh
 * total energy  :   -57.8226344 Eh     change       -0.3084782E-02 Eh
 * total energy  :   -57.8264589 Eh     change       -0.3824480E-02 Eh
 * total energy  :   -57.8315513 Eh     change       -0.5092482E-02 Eh
 * total energy  :   -57.8694042 Eh     change       -0.7700323E-05 Eh
 * total energy  :   -57.8694261 Eh     change       -0.2184992E-04 Eh
 * total energy  :   -57.8694329 Eh     change       -0.6766127E-05 Eh
 * total energy  :   -57.8694542 Eh     change       -0.2133205E-04 Eh
 * total energy  :   -57.8694636 Eh     change       -0.9377469E-05 Eh
 * total energy  :   -57.8694796 Eh     change       -0.1607006E-04 Eh
 * total energy  :   -57.8694872 Eh     change       -0.7558822E-05 Eh
 * total energy  :   -57.8694922 Eh     change       -0.5015777E-05 Eh
 * total energy  :   -57.8694946 Eh     change       -0.2386414E-05 Eh
   *** GEOMETRY OPTIMIZATION CONVERGED AFTER 104 ITERATIONS ***

 final structure:
================
33
 xtb: 6.5.1 (579679a)
C            4.40319423572662        0.83109821862677       -0.66090972955031
O            3.54831695644432       -0.23987925726839       -0.24463332866386
C            2.24263236013874       -0.02590331447328       -0.33560599455608
O            1.76961861428369        1.01315061815327       -0.74852206085174
C            1.41269131019791       -1.18065135278138        0.11065949343116
C            1.89032929642759       -2.36889423990913        0.59153492485351
O            3.18562000348720       -2.65895072012679        0.74615624648213
C            0.96323925196728       -3.43269247256390        0.97651170392901
O            1.33430338604182       -4.51114579365813        1.41280777654186
N           -0.35967235348496       -3.11259432889860        0.79595997258572
C           -0.77356020872353       -1.90152573946518        0.32074312888209
C           -2.24368064999937       -1.69412926025160        0.18715367515771
C           -2.16647427967119        2.50181088469014       -0.45681726994163
C           -0.79813723533532        2.19375263345742       -0.01906655463671
C           -3.29398980591832        2.36971606612326        0.48995997755667
N           -2.39314690973746        2.87645763326023       -1.67200682803086
N            0.05553778253146       -0.96860069284700       -0.00599816197168
H            4.22923694359512        1.05883535003667       -1.71500920320464
H            5.42574526194089        0.49098666651202       -0.50806903047610
H            4.20293609377912        1.72197284646309       -0.06160901630437
H            3.26579355707697       -3.56221841835599        1.10706738365084
H           -1.04254515292206       -3.81183143793960        1.04119434595780
H           -2.72488391522729       -1.76239971734371        1.16267697042241
H           -2.67829289803860       -2.45715167639741       -0.45843165921647
H           -2.43453389447932       -0.71217225285682       -0.23823697489130
H           -0.64162946046857        1.10865571849177       -0.12282946383489
H           -0.04624183622091        2.68541664701478       -0.63305556807181
H           -0.65617334975595        2.43439142069871        1.03283883957879
H           -3.16635488752239        1.48232388908879        1.10917706049480
H           -3.28126267920482        3.23393442630917        1.15905031530358
H           -4.25431062296099        2.33742901560764       -0.02005572965189
H           -1.64921311177103        2.99772226121715       -2.34075956556239
H           -3.32509280218001        3.06308337936593       -2.00187367542458

          :  Hamiltonian                  GFN1-xTB          :
         :: total energy             -57.869494594582 Eh    ::
         :: gradient norm              0.000329901899 Eh/a0 ::
         :: HOMO-LUMO gap              2.318027172763 eV    ::
         :: SCC energy               -58.485759293819 Eh    ::
         :: -> Gsolv                  -0.116268386239 Eh    ::
         :: repulsion energy           0.633142109717 Eh    ::

    * Orbital Energies and Occupations

         #    Occupation            Energy/Eh            Energy/eV
      -------------------------------------------------------------
         1        2.0000           -0.8675884             -23.6083
       ...           ...                  ...                  ...
        35        2.0000           -0.5528568             -15.0440
        36        2.0000           -0.5463107             -14.8659
        37        2.0000           -0.5412120             -14.7271
        38        2.0000           -0.5393523             -14.6765
        39        2.0000           -0.5356078             -14.5746
        40        2.0000           -0.5267546             -14.3337
        41        2.0000           -0.5189620             -14.1217
        42        2.0000           -0.5029948             -13.6872
        43        2.0000           -0.4943548             -13.4521
        44        2.0000           -0.4936284             -13.4323
        45        2.0000           -0.4692627             -12.7693
        46        2.0000           -0.4590116             -12.4903
        47        2.0000           -0.4377294             -11.9112 (HOMO)
        48                         -0.3525435              -9.5932 (LUMO)
        49                         -0.3307529              -9.0002
        50                         -0.2886375              -7.8542
        51                         -0.2474070              -6.7323
        52                         -0.1747771              -4.7559
        53                         -0.1706972              -4.6449
        54                         -0.1647233              -4.4824
        55                         -0.1518548              -4.1322
        56                         -0.1466551              -3.9907
        57                         -0.1413605              -3.8466
        58                         -0.1202007              -3.2708
       ...                                ...                  ...
       100                          0.7192774              19.5725
      -------------------------------------------------------------
                  HL-Gap            0.0851859 Eh            2.3180 eV

Wiberg/Mayer (AO) data.
largest (>0.10) Wiberg bond orders for each atom

     #   Z sym  total        # sym  WBO       # sym  WBO       # sym  WBO
 ---------------------------------------------------------------------------
     1   6 C    3.867 --    19 H    0.986    20 H    0.979    18 H    0.979
                             2 O    0.893
     2   8 O    2.214 --     3 C    1.130     1 C    0.893     4 O    0.133
     3   6 C    3.850 --     4 O    1.632     2 O    1.130     5 C    1.004
     4   8 O    1.929 --     3 C    1.632     2 O    0.133
     5   6 C    3.963 --     6 C    1.509    17 N    1.166     3 C    1.004
     6   6 C    3.921 --     5 C    1.509     7 O    1.111     8 C    1.058
     7   8 O    2.089 --     6 C    1.111    21 H    0.804
     8   6 C    3.911 --     9 O    1.582    10 N    1.140     6 C    1.058
     9   8 O    1.905 --     8 C    1.582    10 N    0.134
    10   7 N    3.463 --    11 C    1.166     8 C    1.140    22 H    0.878
                             9 O    0.134
    11   6 C    3.929 --    17 N    1.582    10 N    1.166    12 C    1.026
    12   6 C    3.989 --    11 C    1.026    25 H    0.983    24 H    0.965
                            23 H    0.964
    13   6 C    3.857 --    16 N    1.621    14 C    1.080    15 C    1.064
    14   6 C    3.978 --    13 C    1.080    27 H    0.966    28 H    0.964
                            26 H    0.893
    15   6 C    3.983 --    13 C    1.064    31 H    0.975    29 H    0.958
                            30 H    0.930
    16   7 N    3.503 --    13 C    1.621    33 H    0.875    32 H    0.874
    17   7 N    3.059 --    11 C    1.582     5 C    1.166
    18   1 H    1.006 --     1 C    0.979
    19   1 H    1.010 --     1 C    0.986
    20   1 H    1.007 --     1 C    0.979
    21   1 H    0.844 --     7 O    0.804
    22   1 H    0.915 --    10 N    0.878
    23   1 H    0.995 --    12 C    0.964
    24   1 H    0.994 --    12 C    0.965
    25   1 H    1.005 --    12 C    0.983
    26   1 H    1.030 --    14 C    0.893
    27   1 H    1.004 --    14 C    0.966
    28   1 H    0.994 --    14 C    0.964
    29   1 H    0.994 --    15 C    0.958
    30   1 H    0.988 --    15 C    0.930
    31   1 H    0.990 --    15 C    0.975
    32   1 H    0.904 --    16 N    0.874
    33   1 H    0.905 --    16 N    0.875
 ---------------------------------------------------------------------------

           -------------------------------------------------
          | TOTAL ENERGY              -57.869494594582 Eh   |
          | GRADIENT NORM               0.000329901899 Eh/α |
          | HOMO-LUMO GAP               2.318027172763 eV   |
           -------------------------------------------------

 * finished run on 2023/06/20 at 15:07:55.555
