   * xtb version 6.5.1 (579679a) compiled by 'ehlert@majestix' on 2022-07-11
          program call               : /lustre/hpc/kemi/ree/PhD/git/ReactivityQM/dep/xtb-6.5.1/bin/xtb --gfn 1 /lustre/hpc/kemi/ree/PhD/git/ReactivityQM/calculations/RaltegravirCLI/reac02prodN12/conf16/RaltegravirCLI_reac02prodN12_conf16_gfn1.xyz --opt --vfukui --chrg 1 --uhf 0 --alpb DMSO

   ID    Z sym.   atoms
    1    6 C      1, 3, 5, 6, 8, 9, 12-16, 18, 19, 21-24
    2    7 N      2, 11, 20, 25
    3    8 O      4, 7, 10
    4    9 F      17
    5    1 H      26-47

      * Solvation model:               ALPB
        Solvent                        DMSO
        Solvent mass                       7.8130E+01 g/mol
          :  Hamiltonian                  GFN1-xTB          :
 * total energy  :   -79.4660270 Eh     change       -0.1026024E-10 Eh
 * total energy  :   -79.4776770 Eh     change       -0.1165007E-01 Eh
 * total energy  :   -79.4827285 Eh     change       -0.5051501E-02 Eh
 * total energy  :   -79.4838296 Eh     change       -0.1101038E-02 Eh
 * total energy  :   -79.4846702 Eh     change       -0.8406373E-03 Eh
 * total energy  :   -79.4851447 Eh     change       -0.4745203E-03 Eh
 * total energy  :   -79.4855437 Eh     change       -0.3990024E-03 Eh
 * total energy  :   -79.4858439 Eh     change       -0.3001747E-03 Eh
 * total energy  :   -79.4860194 Eh     change       -0.1754517E-03 Eh
 * total energy  :   -79.4861097 Eh     change       -0.9028963E-04 Eh
 * total energy  :   -79.4907368 Eh     change       -0.2998477E-04 Eh
 * total energy  :   -79.4907601 Eh     change       -0.2331991E-04 Eh
 * total energy  :   -79.4907760 Eh     change       -0.1584532E-04 Eh
 * total energy  :   -79.4907875 Eh     change       -0.1152164E-04 Eh
 * total energy  :   -79.4907924 Eh     change       -0.4858059E-05 Eh
 * total energy  :   -79.4908020 Eh     change       -0.9676783E-05 Eh
 * total energy  :   -79.4908090 Eh     change       -0.6955519E-05 Eh
 * total energy  :   -79.4908142 Eh     change       -0.5262469E-05 Eh
 * total energy  :   -79.4908170 Eh     change       -0.2783589E-05 Eh
   *** GEOMETRY OPTIMIZATION CONVERGED AFTER 91 ITERATIONS ***

 final structure:
================
47
 xtb: 6.5.1 (579679a)
C           -4.34385477791565       -0.91337955318688       -0.18515551211810
N           -2.90820932850742       -0.95303249697373       -0.47611718241570
C           -2.45618657610329       -2.21486968362509       -1.00367028582246
O           -3.24071758636755       -3.03967512710399       -1.36591104515859
C           -0.96423808934579       -2.44456122800814       -0.94962841960830
C           -0.69977871316013       -3.05185139586208        0.46765369207556
O           -0.55504171225537       -3.31712626479309       -1.94749233931765
C           -0.20508760790867       -1.16076483485882       -0.96852147251909
C            1.28976943846001       -1.15634619813944       -1.18553272482471
O            1.97622026843356       -2.14341589068225       -0.99687878952195
N            1.73984291358842        0.03801114057154       -1.58939668430911
C            3.17041546420847        0.28117353126071       -1.76912002659772
C            3.79027232696539        0.63725784543841       -0.43513458301425
C            4.32847176901817       -0.36281565271548        0.37143249239458
C            4.87618146574281       -0.04981105610313        1.60708132777802
C            4.86610484808903        1.27298500935314        2.01339612945415
F            5.39171993512890        1.58313436223939        3.20682112076054
C            4.33124887050548        2.28797139559775        1.24011398723290
C            3.78702298354882        1.95794115029025        0.00686071917082
N           -0.75826560835750       -0.04294368101680       -0.63479047438754
C           -2.08528309973329        0.07463376958762       -0.35107213676816
C           -2.48558203051960        1.44577678279804        0.14519891030740
C           -1.37462459220714        2.46716123172294       -0.14172238390900
C           -2.69506250904382        1.32493682223565        1.66678725805684
N           -3.72498734711398        1.86795015832088       -0.48177659147113
H           -4.69613409661677        0.11364185276740       -0.25657840448821
H           -4.85733917606845       -1.55051471682367       -0.90363873965818
H           -4.49542680762581       -1.29856927733272        0.82253801465305
H           -1.31391345513615       -3.94313290403484        0.57470904044375
H            0.35387200315323       -3.31971896217771        0.52025935649034
H           -0.94729653071942       -2.33543352301907        1.24624693607169
H           -1.19074646532487       -4.03970255287649       -2.05292801521702
H            1.11138725982474        0.82417395462113       -1.60443088865898
H            3.28003285187040        1.09571126053870       -2.48662803627746
H            3.61657388144142       -0.63201216186866       -2.17286289514931
H            4.31369056085900       -1.39235250629970        0.03286262794540
H            5.29848686627303       -0.81482743694790        2.24568864112773
H            4.33509869804960        3.30949480283325        1.59682839343198
H            3.35657538050527        2.73393467593616       -0.61390875205845
H           -1.70779681643904        3.44949672633619        0.18768386007823
H           -0.46248319738395        2.20161691359760        0.38926227545508
H           -1.16492437947473        2.50353209979736       -1.20865835383100
H           -3.53173765120141        0.66635951847681        1.88839072269194
H           -2.90726919724641        2.31472021204027        2.06683478270960
H           -1.79564101532967        0.93470493119138        2.14017602466880
H           -4.08807808913226        2.67675215842306        0.00179038907759
H           -3.55728432942434        2.11378479848426       -1.44680196496794

          :  Hamiltonian                  GFN1-xTB          :
         :: total energy             -79.490817028479 Eh    ::
         :: gradient norm              0.000670402739 Eh/a0 ::
         :: HOMO-LUMO gap              0.762717590048 eV    ::
         :: SCC energy               -80.383155473012 Eh    ::
         :: -> Gsolv                  -0.109126184048 Eh    ::
         :: repulsion energy           0.923732581933 Eh    ::

    * Orbital Energies and Occupations

         #    Occupation            Energy/Eh            Energy/eV
      -------------------------------------------------------------
         1        2.0000           -0.8870823             -24.1387
       ...           ...                  ...                  ...
        55        2.0000           -0.5227032             -14.2235
        56        2.0000           -0.5206275             -14.1670
        57        2.0000           -0.5184195             -14.1069
        58        2.0000           -0.5157314             -14.0338
        59        2.0000           -0.5114064             -13.9161
        60        2.0000           -0.5098566             -13.8739
        61        2.0000           -0.4946589             -13.4604
        62        2.0000           -0.4812609             -13.0958
        63        2.0000           -0.4754564             -12.9378
        64        2.0000           -0.4677614             -12.7284
        65        2.0000           -0.4593976             -12.5008
        66        2.0000           -0.4463735             -12.1464
        67        2.0000           -0.4419841             -12.0270 (HOMO)
        68        0.0000           -0.4139547             -11.2643 (LUMO)
        69                         -0.3432268              -9.3397
        70                         -0.2998727              -8.1600
        71                         -0.2813333              -7.6555
        72                         -0.2763191              -7.5190
        73                         -0.2480546              -6.7499
        74                         -0.1620607              -4.4099
        75                         -0.1547539              -4.2111
        76                         -0.1506225              -4.0986
        77                         -0.1458330              -3.9683
        78                         -0.1428621              -3.8875
       ...                                ...                  ...
       144                          0.6976693              18.9845
      -------------------------------------------------------------
                  HL-Gap            0.0280294 Eh            0.7627 eV

Wiberg/Mayer (AO) data.
largest (>0.10) Wiberg bond orders for each atom

     #   Z sym  total        # sym  WBO       # sym  WBO       # sym  WBO
 ---------------------------------------------------------------------------
     1   6 C    3.877 --    27 H    0.969    28 H    0.962    26 H    0.951
                             2 N    0.906
     2   7 N    3.569 --    21 C    1.429     3 C    0.975     1 C    0.906
     3   6 C    3.854 --     4 O    1.781     2 N    0.975     5 C    0.954
     4   8 O    2.039 --     3 C    1.781
     5   6 C    3.940 --     8 C    0.998     7 O    0.997     3 C    0.954
                             6 C    0.868
     6   6 C    3.964 --    31 H    0.985    29 H    0.973    30 H    0.972
                             5 C    0.868
     7   8 O    1.920 --     5 C    0.997    32 H    0.824
     8   6 C    3.897 --    20 N    1.620     5 C    0.998     9 C    0.960
     9   6 C    3.921 --    10 O    1.593    11 N    1.293     8 C    0.960
    10   8 O    1.930 --     9 C    1.593    11 N    0.199
    11   7 N    3.405 --     9 C    1.293    12 C    0.925    33 H    0.891
                            10 O    0.199
    12   6 C    3.927 --    13 C    0.987    34 H    0.974    35 H    0.970
                            11 N    0.925
    13   6 C    3.983 --    19 C    1.419    14 C    1.417    12 C    0.987
    14   6 C    3.992 --    15 C    1.445    13 C    1.417    36 H    0.969
                            18 C    0.110
    15   6 C    3.991 --    14 C    1.445    16 C    1.398    37 H    0.969
                            19 C    0.110
    16   6 C    3.860 --    18 C    1.399    15 C    1.398    17 F    0.931
    17   9 F    1.060 --    16 C    0.931
    18   6 C    3.990 --    19 C    1.444    16 C    1.399    38 H    0.968
                            14 C    0.110
    19   6 C    3.993 --    18 C    1.444    13 C    1.419    39 H    0.971
                            15 C    0.110
    20   7 N    3.058 --     8 C    1.620    21 C    1.197
    21   6 C    3.874 --     2 N    1.429    20 N    1.197    22 C    0.992
    22   6 C    3.956 --    21 C    0.992    25 N    0.989    23 C    0.982
                            24 C    0.947
    23   6 C    3.988 --    42 H    0.983    41 H    0.983    22 C    0.982
                            40 H    0.982
    24   6 C    3.982 --    45 H    0.984    43 H    0.982    44 H    0.974
                            22 C    0.947
    25   7 N    3.018 --    22 C    0.989    47 H    0.928    46 H    0.924
    26   1 H    1.018 --     1 C    0.951
    27   1 H    0.998 --     1 C    0.969
    28   1 H    0.994 --     1 C    0.962
    29   1 H    0.994 --     6 C    0.973
    30   1 H    1.005 --     6 C    0.972
    31   1 H    0.995 --     6 C    0.985
    32   1 H    0.844 --     7 O    0.824
    33   1 H    0.944 --    11 N    0.891
    34   1 H    1.000 --    12 C    0.974
    35   1 H    1.003 --    12 C    0.970
    36   1 H    1.007 --    14 C    0.969
    37   1 H    0.997 --    15 C    0.969
    38   1 H    0.996 --    18 C    0.968
    39   1 H    0.998 --    19 C    0.971
    40   1 H    0.998 --    23 C    0.982
    41   1 H    1.007 --    23 C    0.983
    42   1 H    1.002 --    23 C    0.983
    43   1 H    0.998 --    24 C    0.982
    44   1 H    0.993 --    24 C    0.974
    45   1 H    0.998 --    24 C    0.984
    46   1 H    0.939 --    25 N    0.924
    47   1 H    0.943 --    25 N    0.928
 ---------------------------------------------------------------------------

           -------------------------------------------------
          | TOTAL ENERGY              -79.490817028479 Eh   |
          | GRADIENT NORM               0.000670402739 Eh/α |
          | HOMO-LUMO GAP               0.762717590048 eV   |
           -------------------------------------------------

 * finished run on 2023/06/20 at 15:33:19.026
