   * xtb version 6.5.1 (579679a) compiled by 'ehlert@majestix' on 2022-07-11
          program call               : /lustre/hpc/kemi/ree/PhD/git/ReactivityQM/dep/xtb-6.5.1/bin/xtb --gfn 1 /lustre/hpc/kemi/ree/PhD/git/ReactivityQM/calculations/R02deprot/reac01prodE14/conf06/R02deprot_reac01prodE14_conf06_gfn1.xyz --opt --vfukui --chrg -2 --uhf 0 --alpb DMSO

   ID    Z sym.   atoms
    1    6 C      1, 3, 5, 7-10, 12, 14, 17, 18, 21, 23, 24
    2    8 O      2, 4, 13, 19, 22, 25
    3    7 N      6, 11, 15, 16, 20
    4    1 H      26-42

      * Solvation model:               ALPB
        Solvent                        DMSO
        Solvent mass                       7.8130E+01 g/mol
          :  Hamiltonian                  GFN1-xTB          :
 * total energy  :   -83.5947189 Eh     change       -0.4116885E-10 Eh
 * total energy  :   -83.6172473 Eh     change       -0.2252836E-01 Eh
 * total energy  :   -83.6274877 Eh     change       -0.1024042E-01 Eh
 * total energy  :   -83.6295632 Eh     change       -0.2075541E-02 Eh
 * total energy  :   -83.6311524 Eh     change       -0.1589140E-02 Eh
 * total energy  :   -83.6317524 Eh     change       -0.5999787E-03 Eh
 * total energy  :   -83.6321346 Eh     change       -0.3822908E-03 Eh
 * total energy  :   -83.6323898 Eh     change       -0.2551280E-03 Eh
 * total energy  :   -83.6325788 Eh     change       -0.1890240E-03 Eh
 * total energy  :   -83.6327325 Eh     change       -0.1537175E-03 Eh
 * total energy  :   -83.6351723 Eh     change       -0.2204310E-04 Eh
 * total energy  :   -83.6351959 Eh     change       -0.2359249E-04 Eh
 * total energy  :   -83.6352142 Eh     change       -0.1824771E-04 Eh
 * total energy  :   -83.6352251 Eh     change       -0.1092003E-04 Eh
 * total energy  :   -83.6352328 Eh     change       -0.7707913E-05 Eh
 * total energy  :   -83.6352412 Eh     change       -0.8413159E-05 Eh
 * total energy  :   -83.6352505 Eh     change       -0.9274015E-05 Eh
 * total energy  :   -83.6352588 Eh     change       -0.8291621E-05 Eh
 * total energy  :   -83.6352623 Eh     change       -0.3545473E-05 Eh
   *** GEOMETRY OPTIMIZATION CONVERGED AFTER 94 ITERATIONS ***

 final structure:
================
42
 xtb: 6.5.1 (579679a)
C           -6.27366689542765        0.77249035147918        1.28228952514985
O           -5.15158689899385        0.47727653885817        0.48358262711940
C           -3.93807060887616        0.32700684837375        1.19837500419188
O           -3.97754525922750        0.45473703853561        2.44423411317458
C           -2.82787253130396        0.05324424142779        0.39928642476072
N           -1.60113937498001       -0.00364997928365        1.04186919682048
C           -0.52232351423025       -0.21788385263720        0.36212873397856
C            0.79296708492050       -0.19724340818443        1.14390665177331
C            0.83946631877983       -1.38746011033245        2.11584987585114
C            0.90525061488255        1.12486731517231        1.91645730405971
N            1.87492903921131       -0.30741662812086        0.16879956743825
C            3.18239215235270       -0.27358571255103        0.43797696885355
O            3.68741914901789       -0.16115473742408        1.55543512695757
C            3.99181742084416       -0.37894028802826       -0.80260847417887
N            3.53296141292975       -0.49747296526534       -2.01778899239694
N            4.61829015868736       -0.53903544885192       -2.84720286368093
C            5.66542931784742       -0.44242099918347       -2.09189833587329
C            7.08372015220972       -0.42867636512801       -2.51679340985416
O            5.34574487033080       -0.33896539864742       -0.79023938757593
N           -0.41581580442686       -0.53112548371681       -0.97141552701784
C           -1.52217239052514       -0.56897639836988       -1.69686168160417
O           -1.56321154204160       -0.98998797982707       -2.87821337361934
C           -2.87310812853412       -0.05514186746381       -1.10928182803703
C           -3.15473296062365        1.31685536984580       -1.77289017031683
O           -3.87989844260441       -0.98482881592270       -1.54574170943310
H           -6.14303960518624        1.71564825425071        1.83070367401924
H           -6.47229970020787       -0.02275089079559        2.01409174781436
H           -7.13550232414187        0.86667991098439        0.61825225908291
H            0.83533827130568       -2.32523193218322        1.56021601494829
H            1.73441124884004       -1.34949135527476        2.73606973010952
H           -0.04125037348913       -1.35293153383174        2.75749038671148
H            1.78445102878278        1.13370704333631        2.55911480411358
H            0.96794175551060        1.96046588383189        1.21931121900389
H            0.01175929619383        1.24601598990184        2.52993290628049
H            1.55241642651351       -0.43669014524151       -0.79536815108790
H            7.53236928166482        0.53926351369438       -2.29350100919879
H            7.14600391224912       -0.61475760286224       -3.58592083986401
H            7.64512966608554       -1.19164120508770       -1.97918514635486
H           -4.14933917232333        1.66885417511174       -1.50095974957159
H           -2.41592239890073        2.04757343919913       -1.44379885615728
H           -3.10074573978720        1.21904320678542       -2.85778052350124
H           -3.57096291332431       -1.32626801657582       -2.40296683288308

          :  Hamiltonian                  GFN1-xTB          :
         :: total energy             -83.635262338962 Eh    ::
         :: gradient norm              0.000227745901 Eh/a0 ::
         :: HOMO-LUMO gap              0.150520990818 eV    ::
         :: SCC energy               -84.367708616892 Eh    ::
         :: -> Gsolv                  -0.279796290830 Eh    ::
         :: repulsion energy           0.758129938336 Eh    ::

    * Orbital Energies and Occupations

         #    Occupation            Energy/Eh            Energy/eV
      -------------------------------------------------------------
         1        2.0000           -0.8415083             -22.8986
       ...           ...                  ...                  ...
        56        2.0000           -0.4377890             -11.9128
        57        2.0000           -0.4354481             -11.8491
        58        2.0000           -0.4275301             -11.6337
        59        2.0000           -0.4233700             -11.5205
        60        2.0000           -0.4209474             -11.4546
        61        2.0000           -0.4147709             -11.2865
        62        2.0000           -0.4089748             -11.1288
        63        2.0000           -0.3978220             -10.8253
        64        2.0000           -0.3812179             -10.3735
        65        2.0000           -0.3619831              -9.8501
        66        2.0000           -0.3539345              -9.6310
        67        2.0000           -0.3307420              -8.9999
        68        1.8968           -0.2892562              -7.8711 (HOMO)
        69        0.1032           -0.2837247              -7.7205 (LUMO)
        70                         -0.2389440              -6.5020
        71                         -0.2014279              -5.4811
        72                         -0.1695895              -4.6148
        73                         -0.1370576              -3.7295
        74                         -0.1358566              -3.6968
        75                         -0.1125407              -3.0624
        76                         -0.1031695              -2.8074
        77                         -0.0959372              -2.6106
        78                         -0.0931044              -2.5335
        79                         -0.0758223              -2.0632
       ...                                ...                  ...
       134                          0.7257251              19.7480
      -------------------------------------------------------------
                  HL-Gap            0.0055315 Eh            0.1505 eV

Wiberg/Mayer (AO) data.
largest (>0.10) Wiberg bond orders for each atom

     #   Z sym  total        # sym  WBO       # sym  WBO       # sym  WBO
 ---------------------------------------------------------------------------
     1   6 C    3.926 --    28 H    0.987    26 H    0.980    27 H    0.980
                             2 O    0.958
     2   8 O    2.065 --     1 C    0.958     3 C    0.917
     3   6 C    3.850 --     4 O    1.428     5 C    1.371     2 O    0.917
     4   8 O    1.724 --     3 C    1.428     5 C    0.119
     5   6 C    3.812 --     3 C    1.371     6 N    1.149    23 C    0.983
                             4 O    0.119
     6   7 N    3.009 --     7 C    1.576     5 C    1.149
     7   6 C    3.926 --     6 N    1.576    20 N    1.165     8 C    0.962
     8   6 C    3.920 --    10 C    0.987     9 C    0.982     7 C    0.962
                            11 N    0.920
     9   6 C    3.994 --    29 H    0.987    31 H    0.986    30 H    0.985
                             8 C    0.982
    10   6 C    3.994 --     8 C    0.987    33 H    0.987    32 H    0.985
                            34 H    0.984
    11   7 N    3.370 --    12 C    1.299     8 C    0.920    35 H    0.867
                            13 O    0.182
    12   6 C    3.899 --    13 O    1.525    11 N    1.299    14 C    0.998
    13   8 O    1.832 --    12 C    1.525    11 N    0.182
    14   6 C    3.820 --    15 N    1.583    19 O    1.042    12 C    0.998
    15   7 N    2.955 --    14 C    1.583    16 N    1.186
    16   7 N    2.980 --    17 C    1.622    15 N    1.186
    17   6 C    3.864 --    16 N    1.622    19 O    1.074    18 C    1.028
    18   6 C    3.990 --    17 C    1.028    37 H    0.984    38 H    0.969
                            36 H    0.965
    19   8 O    2.292 --    17 C    1.074    14 C    1.042
    20   7 N    2.961 --    21 C    1.391     7 C    1.165    22 O    0.136
    21   6 C    3.902 --    22 O    1.461    20 N    1.391    23 C    0.910
    22   8 O    1.771 --    21 C    1.461    20 N    0.136
    23   6 C    3.898 --     5 C    0.983    24 C    0.965    25 O    0.923
                            21 C    0.910
    24   6 C    3.990 --    40 H    0.988    41 H    0.987    39 H    0.985
                            23 C    0.965
    25   8 O    1.872 --    23 C    0.923    42 H    0.862
    26   1 H    1.023 --     1 C    0.980
    27   1 H    1.023 --     1 C    0.980
    28   1 H    1.021 --     1 C    0.987
    29   1 H    1.009 --     9 C    0.987
    30   1 H    1.013 --     9 C    0.985
    31   1 H    1.018 --     9 C    0.986
    32   1 H    1.015 --    10 C    0.985
    33   1 H    1.010 --    10 C    0.987
    34   1 H    1.024 --    10 C    0.984
    35   1 H    0.995 --    11 N    0.867
    36   1 H    0.999 --    18 C    0.965
    37   1 H    1.001 --    18 C    0.984
    38   1 H    0.999 --    18 C    0.969
    39   1 H    1.024 --    24 C    0.985
    40   1 H    1.015 --    24 C    0.988
    41   1 H    1.016 --    24 C    0.987
    42   1 H    0.914 --    25 O    0.862
 ---------------------------------------------------------------------------

           -------------------------------------------------
          | TOTAL ENERGY              -83.635262338962 Eh   |
          | GRADIENT NORM               0.000227745901 Eh/α |
          | HOMO-LUMO GAP               0.150520990818 eV   |
           -------------------------------------------------

 * finished run on 2023/06/20 at 18:04:47.978
