   * xtb version 6.5.1 (579679a) compiled by 'ehlert@majestix' on 2022-07-11
          program call               : /lustre/hpc/kemi/ree/PhD/git/ReactivityQM/dep/xtb-6.5.1/bin/xtb --gfn 1 /lustre/hpc/kemi/ree/PhD/git/ReactivityQM/calculations/R01/reac02prodE08/conf14/R01_reac02prodE08_conf14_gfn1.xyz --opt --vfukui --chrg -1 --uhf 0 --alpb DMSO

   ID    Z sym.   atoms
    1    6 C      1, 3, 5, 7-10, 13, 15, 16
    2    8 O      2, 4, 14, 17
    3    7 N      6, 11, 12
    4    1 H      18-33

      * Solvation model:               ALPB
        Solvent                        DMSO
        Solvent mass                       7.8130E+01 g/mol
          :  Hamiltonian                  GFN1-xTB          :
 * total energy  :   -58.5593126 Eh     change       -0.6124878E-11 Eh
 * total energy  :   -58.5688785 Eh     change       -0.9565861E-02 Eh
 * total energy  :   -58.5715560 Eh     change       -0.2677570E-02 Eh
 * total energy  :   -58.5717949 Eh     change       -0.2388703E-03 Eh
 * total energy  :   -58.5719518 Eh     change       -0.1568996E-03 Eh
 * total energy  :   -58.5719967 Eh     change       -0.4489053E-04 Eh
 * total energy  :   -58.5720439 Eh     change       -0.4721581E-04 Eh
 * total energy  :   -58.5720757 Eh     change       -0.3181118E-04 Eh
 * total energy  :   -58.5721079 Eh     change       -0.3213455E-04 Eh
 * total energy  :   -58.5721251 Eh     change       -0.1727956E-04 Eh
 * total energy  :   -58.5723124 Eh     change       -0.2464075E-04 Eh
 * total energy  :   -58.5723328 Eh     change       -0.2044698E-04 Eh
 * total energy  :   -58.5723537 Eh     change       -0.2083006E-04 Eh
 * total energy  :   -58.5723672 Eh     change       -0.1357030E-04 Eh
 * total energy  :   -58.5723883 Eh     change       -0.2107002E-04 Eh
 * total energy  :   -58.5724044 Eh     change       -0.1609107E-04 Eh
 * total energy  :   -58.5724131 Eh     change       -0.8717256E-05 Eh
 * total energy  :   -58.5724188 Eh     change       -0.5730484E-05 Eh
 * total energy  :   -58.5724225 Eh     change       -0.3686318E-05 Eh
   *** GEOMETRY OPTIMIZATION CONVERGED AFTER 24 ITERATIONS ***

 final structure:
================
33
 xtb: 6.5.1 (579679a)
C            3.37228131662553        1.79789436396282        2.19188227860026
O            2.20037310896114        1.30340492977983        1.57207869081925
C            2.36345241545877        0.10737563269052        0.87498571995008
O            3.49016174102039       -0.43832232158721        0.86336814499720
C            1.21092602270687       -0.37406653561017        0.24975344976448
N            0.03990293192265        0.33362115472035        0.32348315280283
C           -1.04036300561456       -0.09514856523257       -0.21176501660217
C           -2.32121930220227        0.71027440077443       -0.17893919025510
C           -2.03928133040660        2.08011750953840        0.44559167052884
C           -3.40598112826491       -0.02555278031994        0.63120680784804
N           -2.78212166260503        0.92436160746200       -1.55735019941259
N           -1.09815463891137       -1.35724051193220       -0.84846456659848
C           -0.05645634317845       -2.21656343595487       -0.92956307869978
O           -0.22429366113232       -3.37067927618941       -1.31596529760311
C            1.32657205727114       -1.63486212396054       -0.59639058477585
C            2.01682216197138       -1.32869617766656       -1.95021448761496
O            2.06830871777171       -2.64660608838243        0.07536869673230
H            4.15416147000528        2.00791286685721        1.45174839133700
H            3.76874840840153        1.08235763397436        2.92249497465806
H            3.10193968193738        2.72332972625538        2.70287994863376
H           -2.95508477889414        2.66738173648988        0.49164988394260
H           -1.64424504583560        1.95897218776385        1.45441712480243
H           -1.30503142344675        2.61716867737733       -0.15595898506133
H           -3.06186242867197       -0.20336169022466        1.65023820095912
H           -3.64350238822760       -0.98173988304407        0.16747373500817
H           -4.31485157706627        0.57350152659857        0.66504719623150
H           -3.00500365594813        0.03215695538546       -1.97986416824800
H           -3.64143641833701        1.45545016045009       -1.52999134335332
H           -2.00058646701414       -1.72402991692622       -1.09997993360663
H            3.02189934022347       -0.95393562561550       -1.76228341284670
H            1.45056775487702       -0.57636981845078       -2.49682719848059
H            2.08104771454698       -2.23870277189704       -2.54623287798234
H            2.87230941205236       -2.20940254708586        0.42612227352675

          :  Hamiltonian                  GFN1-xTB          :
         :: total energy             -58.572422515484 Eh    ::
         :: gradient norm              0.000548007147 Eh/a0 ::
         :: HOMO-LUMO gap              2.313707902162 eV    ::
         :: SCC energy               -59.114015718242 Eh    ::
         :: -> Gsolv                  -0.108220135342 Eh    ::
         :: repulsion energy           0.560552365431 Eh    ::

    * Orbital Energies and Occupations

         #    Occupation            Energy/Eh            Energy/eV
      -------------------------------------------------------------
         1        2.0000           -0.7817867             -21.2735
       ...           ...                  ...                  ...
        36        2.0000           -0.4803840             -13.0719
        37        2.0000           -0.4722038             -12.8493
        38        2.0000           -0.4706103             -12.8060
        39        2.0000           -0.4659923             -12.6803
        40        2.0000           -0.4608752             -12.5411
        41        2.0000           -0.4433011             -12.0628
        42        2.0000           -0.4375948             -11.9076
        43        2.0000           -0.4238232             -11.5328
        44        2.0000           -0.4204254             -11.4404
        45        2.0000           -0.4027745             -10.9601
        46        2.0000           -0.3949483             -10.7471
        47        2.0000           -0.3821142             -10.3979
        48        2.0000           -0.3265637              -8.8862 (HOMO)
        49                         -0.2415365              -6.5725 (LUMO)
        50                         -0.1969343              -5.3589
        51                         -0.1396431              -3.7999
        52                         -0.1156485              -3.1470
        53                         -0.1128593              -3.0711
        54                         -0.1088662              -2.9624
        55                         -0.0966916              -2.6311
        56                         -0.0912862              -2.4840
        57                         -0.0818254              -2.2266
        58                         -0.0518795              -1.4117
        59                         -0.0512927              -1.3957
       ...                                ...                  ...
       100                          0.6786105              18.4659
      -------------------------------------------------------------
                  HL-Gap            0.0850272 Eh            2.3137 eV

Wiberg/Mayer (AO) data.
largest (>0.10) Wiberg bond orders for each atom

     #   Z sym  total        # sym  WBO       # sym  WBO       # sym  WBO
 ---------------------------------------------------------------------------
     1   6 C    3.913 --    20 H    0.987    18 H    0.981    19 H    0.981
                             2 O    0.943
     2   8 O    2.084 --     3 C    0.961     1 C    0.943
     3   6 C    3.868 --     4 O    1.426     5 C    1.344     2 O    0.961
     4   8 O    1.803 --     3 C    1.426     5 C    0.114
     5   6 C    3.858 --     3 C    1.344     6 N    1.185    15 C    0.965
                             4 O    0.114
     6   7 N    3.052 --     7 C    1.641     5 C    1.185
     7   6 C    3.908 --     6 N    1.641    12 N    0.992     8 C    0.983
     8   6 C    3.967 --     9 C    1.001     7 C    0.983    10 C    0.980
                            11 N    0.973
     9   6 C    3.997 --     8 C    1.001    21 H    0.987    22 H    0.986
                            23 H    0.986
    10   6 C    3.992 --    24 H    0.985    26 H    0.985    25 H    0.983
                             8 C    0.980
    11   7 N    2.945 --     8 C    0.973    28 H    0.949    27 H    0.949
    12   7 N    3.387 --    13 C    1.230     7 C    0.992    29 H    0.904
                            14 O    0.141
    13   6 C    3.884 --    14 O    1.582    12 N    1.230    15 C    0.939
    14   8 O    1.857 --    13 C    1.582    12 N    0.141
    15   6 C    3.916 --     5 C    0.965    16 C    0.959    17 O    0.949
                            13 C    0.939
    16   6 C    3.996 --    31 H    0.988    32 H    0.987    30 H    0.984
                            15 C    0.959
    17   8 O    1.880 --    15 C    0.949    33 H    0.833
    18   1 H    1.018 --     1 C    0.981
    19   1 H    1.019 --     1 C    0.981
    20   1 H    1.019 --     1 C    0.987
    21   1 H    1.004 --     9 C    0.987
    22   1 H    1.016 --     9 C    0.986
    23   1 H    1.017 --     9 C    0.986
    24   1 H    1.006 --    10 C    0.985
    25   1 H    1.005 --    10 C    0.983
    26   1 H    1.004 --    10 C    0.985
    27   1 H    0.966 --    11 N    0.949
    28   1 H    0.964 --    11 N    0.949
    29   1 H    0.953 --    12 N    0.904
    30   1 H    1.015 --    16 C    0.984
    31   1 H    1.011 --    16 C    0.988
    32   1 H    1.011 --    16 C    0.987
    33   1 H    0.903 --    17 O    0.833
 ---------------------------------------------------------------------------

           -------------------------------------------------
          | TOTAL ENERGY              -58.572422515484 Eh   |
          | GRADIENT NORM               0.000548007147 Eh/α |
          | HOMO-LUMO GAP               2.313707902162 eV   |
           -------------------------------------------------

 * finished run on 2023/06/20 at 15:02:09.116
