   * xtb version 6.5.1 (579679a) compiled by 'ehlert@majestix' on 2022-07-11
          program call               : /lustre/hpc/kemi/ree/PhD/git/ReactivityQM/dep/xtb-6.5.1/bin/xtb --gfn 1 /lustre/hpc/kemi/ree/PhD/git/ReactivityQM/calculations/R02methylcation/reac01prodE04/conf09/R02methylcation_reac01prodE04_conf09_gfn1.xyz --opt --vfukui --chrg -2 --uhf 0 --alpb DMSO

   ID    Z sym.   atoms
    1    6 C      1, 3, 5, 6, 8-11, 13, 15, 18, 19, 22, 24
    2    8 O      2, 4, 14, 20, 23, 25
    3    7 N      7, 12, 16, 17, 21
    4    1 H      26-42

      * Solvation model:               ALPB
        Solvent                        DMSO
        Solvent mass                       7.8130E+01 g/mol
          :  Hamiltonian                  GFN1-xTB          :
 * total energy  :   -83.5801368 Eh     change       -0.5613288E-11 Eh
 * total energy  :   -83.6013714 Eh     change       -0.2123455E-01 Eh
 * total energy  :   -83.6086107 Eh     change       -0.7239372E-02 Eh
 * total energy  :   -83.6102870 Eh     change       -0.1676288E-02 Eh
 * total energy  :   -83.6112583 Eh     change       -0.9712637E-03 Eh
 * total energy  :   -83.6116413 Eh     change       -0.3829749E-03 Eh
 * total energy  :   -83.6118893 Eh     change       -0.2479918E-03 Eh
 * total energy  :   -83.6121431 Eh     change       -0.2538698E-03 Eh
 * total energy  :   -83.6124292 Eh     change       -0.2861101E-03 Eh
 * total energy  :   -83.6127171 Eh     change       -0.2878690E-03 Eh
 * total energy  :   -83.6150316 Eh     change       -0.1313595E-04 Eh
 * total energy  :   -83.6150486 Eh     change       -0.1701162E-04 Eh
 * total energy  :   -83.6150712 Eh     change       -0.2260802E-04 Eh
 * total energy  :   -83.6150782 Eh     change       -0.6964107E-05 Eh
 * total energy  :   -83.6150951 Eh     change       -0.1695754E-04 Eh
 * total energy  :   -83.6151038 Eh     change       -0.8610163E-05 Eh
 * total energy  :   -83.6151112 Eh     change       -0.7417825E-05 Eh
 * total energy  :   -83.6151164 Eh     change       -0.5242005E-05 Eh
 * total energy  :   -83.6151190 Eh     change       -0.2546042E-05 Eh
   *** GEOMETRY OPTIMIZATION CONVERGED AFTER 43 ITERATIONS ***

 final structure:
================
42
 xtb: 6.5.1 (579679a)
C           -2.82187779014298        2.11502457516697        2.52421787303802
O           -2.38896751236214        1.25947780360138        1.47491202190239
C           -2.92641854998547        1.50619911068832        0.25201055419660
O           -3.71148104650956        2.42960677835954        0.07964474224902
C           -2.56993110790655        0.46818321675837       -0.79632402182699
C           -2.65321808954322        1.08984063569676       -2.19360131548078
N           -1.24046472428856       -0.08010622861367       -0.58450046460426
C           -1.11188889180388       -1.03417483886696        0.26419501807158
C            0.28552372446490       -1.53849401956792        0.61496982448048
C            0.55886051271817       -1.23295736198706        2.09905530187255
C            0.39737407668020       -3.04638766199731        0.34378962695473
N            1.22083029748690       -0.82321631516096       -0.24104996143526
C            2.59185156516103       -0.86260635165607       -0.06463512237645
O            3.17328723281230       -1.74078121658067        0.60746132633922
C            3.24690192845289        0.18863249974757       -0.78992196430981
N            2.65030755518864        1.14426103294559       -1.50490349060425
N            3.64778475110603        1.94317660581970       -1.99346598838369
C            4.76966027600089        1.46043830381458       -1.57034886511017
C            6.12962386580768        1.99118684673575       -1.83655344772290
O            4.61637521022668        0.35354690325066       -0.80510637398217
N           -2.16072424304284       -1.60745568432667        0.90989194967603
C           -3.49839229823065       -1.56030639311875        0.37247731547142
O           -4.28485207098664       -2.47354731460363        0.76568480740899
C           -3.73111481457199       -0.54680309814518       -0.57693648024480
O           -4.80858068180901       -0.38411190388090       -1.24920869603012
H           -2.57528450312996        3.15731042975586        2.29867402527883
H           -2.30101484665052        1.80288028983086        3.42808783797085
H           -3.90338113239945        2.03285877577712        2.67275722233437
H           -1.88743375866671        1.85579998588122       -2.31418923098524
H           -2.50295141273032        0.31861796171094       -2.94866221689458
H           -3.63523005973655        1.53955006560544       -2.33902581014167
H            1.53966073278929       -1.60606324608380        2.38879829692106
H           -0.19360618710219       -1.71320611648283        2.72195539567802
H            0.52290267387039       -0.15709577924053        2.26914584256886
H            1.39796855364721       -3.39458646560053        0.59561645523144
H           -0.32276455454671       -3.59696736360895        0.94655066470188
H            0.20800569689613       -3.25045811574384       -0.70996788778677
H            0.84394335837684        0.02539695873560       -0.66086147589930
H            6.73550960979896        1.24568011473242       -2.35200177593899
H            6.05693723002796        2.88366689124318       -2.45346660269142
H            6.62943134188331        2.24024073579703       -0.90042285045420
H           -1.99315791725344       -2.40224904638739        1.50468194055382

          :  Hamiltonian                  GFN1-xTB          :
         :: total energy             -83.615118961752 Eh    ::
         :: gradient norm              0.000560516024 Eh/a0 ::
         :: HOMO-LUMO gap              0.042793589906 eV    ::
         :: SCC energy               -84.342484441244 Eh    ::
         :: -> Gsolv                  -0.271617900302 Eh    ::
         :: repulsion energy           0.754421957682 Eh    ::

    * Orbital Energies and Occupations

         #    Occupation            Energy/Eh            Energy/eV
      -------------------------------------------------------------
         1        2.0000           -0.8053162             -21.9138
       ...           ...                  ...                  ...
        56        2.0000           -0.4461227             -12.1396
        57        2.0000           -0.4431421             -12.0585
        58        2.0000           -0.4331342             -11.7862
        59        2.0000           -0.4245265             -11.5520
        60        2.0000           -0.4109636             -11.1829
        61        2.0000           -0.4076783             -11.0935
        62        2.0000           -0.4044211             -11.0049
        63        2.0000           -0.3996479             -10.8750
        64        2.0000           -0.3893761             -10.5955
        65        2.0000           -0.3807417             -10.3605
        66        2.0000           -0.3753875             -10.2148
        67        2.0000           -0.3445953              -9.3769
        68        1.3917           -0.2688616              -7.3161 (HOMO)
        69        0.6083           -0.2672889              -7.2733 (LUMO)
        70                         -0.2223017              -6.0491
        71                         -0.2133142              -5.8046
        72                         -0.2032680              -5.5312
        73                         -0.1421998              -3.8695
        74                         -0.1261738              -3.4334
        75                         -0.1222920              -3.3277
        76                         -0.1137541              -3.0954
        77                         -0.1048999              -2.8545
        78                         -0.0982588              -2.6738
        79                         -0.0883654              -2.4045
       ...                                ...                  ...
       134                          0.7150564              19.4577
      -------------------------------------------------------------
                  HL-Gap            0.0015726 Eh            0.0428 eV

Wiberg/Mayer (AO) data.
largest (>0.10) Wiberg bond orders for each atom

     #   Z sym  total        # sym  WBO       # sym  WBO       # sym  WBO
 ---------------------------------------------------------------------------
     1   6 C    3.898 --    27 H    0.987    26 H    0.981    28 H    0.981
                             2 O    0.922
     2   8 O    2.148 --     3 C    1.047     1 C    0.922     4 O    0.107
     3   6 C    3.782 --     4 O    1.592     2 O    1.047     5 C    0.949
     4   8 O    1.859 --     3 C    1.592     2 O    0.107
     5   6 C    3.957 --     6 C    0.991     7 N    0.978     3 C    0.949
                            24 C    0.873
     6   6 C    3.991 --     5 C    0.991    29 H    0.989    30 H    0.988
                            31 H    0.984
     7   7 N    2.963 --     8 C    1.649     5 C    0.978    21 N    0.149
     8   6 C    3.933 --     7 N    1.649    21 N    1.180     9 C    0.970
     9   6 C    3.952 --    11 C    0.987    10 C    0.979     8 C    0.970
                            12 N    0.950
    10   6 C    3.991 --    34 H    0.987    33 H    0.986    32 H    0.981
                             9 C    0.979
    11   6 C    3.992 --     9 C    0.987    37 H    0.987    36 H    0.985
                            35 H    0.981
    12   7 N    3.185 --    13 C    1.128     9 C    0.950    38 H    0.895
                            14 O    0.122
    13   6 C    3.772 --    14 O    1.447    15 C    1.130    12 N    1.128
    14   8 O    1.701 --    13 C    1.447    12 N    0.122
    15   6 C    3.692 --    16 N    1.411    13 C    1.130    20 O    0.982
    16   7 N    2.759 --    15 C    1.411    17 N    1.185
    17   7 N    2.980 --    18 C    1.628    16 N    1.185
    18   6 C    3.822 --    17 N    1.628    20 O    1.051    19 C    1.024
    19   6 C    3.994 --    18 C    1.024    40 H    0.986    41 H    0.971
                            39 H    0.971
    20   8 O    2.190 --    18 C    1.051    15 C    0.982
    21   7 N    3.317 --     8 C    1.180    22 C    0.944    42 H    0.914
                             7 N    0.149
    22   6 C    3.746 --    23 O    1.379    24 C    1.264    21 N    0.944
    23   8 O    1.596 --    22 C    1.379
    24   6 C    3.743 --    25 O    1.361    22 C    1.264     5 C    0.873
    25   8 O    1.571 --    24 C    1.361
    26   1 H    1.014 --     1 C    0.981
    27   1 H    1.016 --     1 C    0.987
    28   1 H    1.013 --     1 C    0.981
    29   1 H    1.011 --     6 C    0.989
    30   1 H    1.013 --     6 C    0.988
    31   1 H    1.027 --     6 C    0.984
    32   1 H    1.016 --    10 C    0.981
    33   1 H    1.006 --    10 C    0.986
    34   1 H    1.007 --    10 C    0.987
    35   1 H    1.020 --    11 C    0.981
    36   1 H    1.005 --    11 C    0.985
    37   1 H    1.009 --    11 C    0.987
    38   1 H    0.997 --    12 N    0.895
    39   1 H    1.001 --    19 C    0.971
    40   1 H    1.004 --    19 C    0.986
    41   1 H    1.001 --    19 C    0.971
    42   1 H    0.969 --    21 N    0.914
 ---------------------------------------------------------------------------

           -------------------------------------------------
          | TOTAL ENERGY              -83.615118961752 Eh   |
          | GRADIENT NORM               0.000560516024 Eh/α |
          | HOMO-LUMO GAP               0.042793589906 eV   |
           -------------------------------------------------

 * finished run on 2023/06/21 at 17:10:43.541
