   * xtb version 6.5.1 (579679a) compiled by 'ehlert@majestix' on 2022-07-11
          program call               : /lustre/hpc/kemi/ree/PhD/git/ReactivityQM/dep/xtb-6.5.1/bin/xtb --gfn 1 /lustre/hpc/kemi/ree/PhD/git/ReactivityQM/calculations/R02/reac01prodE10/conf01/R02_reac01prodE10_conf01_gfn1.xyz --opt --vfukui --chrg -1 --uhf 0 --alpb DMSO

   ID    Z sym.   atoms
    1    6 C      1, 3, 5, 7-10, 12, 14, 17-19, 22, 24
    2    8 O      2, 4, 13, 20, 23, 25
    3    7 N      6, 11, 15, 16, 21
    4    1 H      26-43

      * Solvation model:               ALPB
        Solvent                        DMSO
        Solvent mass                       7.8130E+01 g/mol
          :  Hamiltonian                  GFN1-xTB          :
 * total energy  :   -83.8094295 Eh     change        0.6962608E-09 Eh
 * total energy  :   -83.8227667 Eh     change       -0.1333719E-01 Eh
 * total energy  :   -83.8279066 Eh     change       -0.5139826E-02 Eh
 * total energy  :   -83.8285991 Eh     change       -0.6925523E-03 Eh
 * total energy  :   -83.8291298 Eh     change       -0.5306466E-03 Eh
 * total energy  :   -83.8292615 Eh     change       -0.1317239E-03 Eh
 * total energy  :   -83.8293668 Eh     change       -0.1053571E-03 Eh
 * total energy  :   -83.8294105 Eh     change       -0.4370428E-04 Eh
 * total energy  :   -83.8294409 Eh     change       -0.3034312E-04 Eh
 * total energy  :   -83.8294593 Eh     change       -0.1839204E-04 Eh
 * total energy  :   -83.8294971 Eh     change       -0.1458288E-04 Eh
 * total energy  :   -83.8295104 Eh     change       -0.1321761E-04 Eh
 * total energy  :   -83.8295199 Eh     change       -0.9497641E-05 Eh
 * total energy  :   -83.8295385 Eh     change       -0.1859645E-04 Eh
 * total energy  :   -83.8295489 Eh     change       -0.1044972E-04 Eh
 * total energy  :   -83.8295576 Eh     change       -0.8693443E-05 Eh
 * total energy  :   -83.8295665 Eh     change       -0.8929795E-05 Eh
 * total energy  :   -83.8295743 Eh     change       -0.7756888E-05 Eh
 * total energy  :   -83.8295790 Eh     change       -0.4755853E-05 Eh
   *** GEOMETRY OPTIMIZATION CONVERGED AFTER 21 ITERATIONS ***

 final structure:
================
43
 xtb: 6.5.1 (579679a)
C            6.28420716591451        0.91360125141872       -1.60037886129251
O            5.01831645132828        0.57927387326379       -1.05088656341796
C            4.82922309173960        0.94383012703375        0.25406501254487
O            5.72732536702105        1.53773916185317        0.87905728482674
C            3.55667652238550        0.57958474019795        0.80045442015787
N            2.65471229760652       -0.07950512025990       -0.02111688314970
C            1.51163561443682       -0.42312485629677        0.46001223735345
C            0.53049811904586       -1.20895556516683       -0.39340886534560
C            0.74411480905545       -0.86796474815091       -1.87541429725614
C            0.81491042970833       -2.69777103213533       -0.12820030055843
N           -0.81695494100593       -0.85278301877204        0.05709929788754
C           -1.94286826976468       -1.40570228589422       -0.63988201780843
O           -1.87218006377379       -2.48160400022324       -1.28577112530374
C           -3.09089669041095       -0.63968448553129       -0.44472139269481
N           -3.20311796687700        0.55365401873802        0.24097102056719
N           -4.48965262620185        0.88133869499688        0.10214540855044
C           -4.98166860182447        2.09652691104381        0.70803761753395
C           -5.17243075798639        0.00774799454092       -0.60050194009406
C           -6.61444998023944        0.03469502590483       -0.93753690860436
O           -4.36301731136048       -0.99248965119013       -0.98864209464207
N            1.15419457019675       -0.18940081202810        1.75849935766231
C            1.97013859766547        0.48209601944814        2.68754407096847
O            1.54596252318091        0.65885223449249        3.84069972879236
C            3.22560787064982        0.87072010970669        2.14106321694542
O            4.09861447152439        1.52822773712780        2.95802799037320
H            6.44434626072531        1.99650014635432       -1.57945439147867
H            7.09081957919426        0.42770152993477       -1.04159868102962
H            6.28725845090201        0.56131844784605       -2.63147425006070
H            1.78386959835003       -1.05223135165342       -2.14507062461910
H            0.09755026701234       -1.48133527992036       -2.50102607420102
H            0.51896169421590        0.18348265642096       -2.05225071929179
H            0.20991338645962       -3.32986834683547       -0.77513224672236
H            0.58998645374907       -2.93583669858275        0.91100148792206
H            1.86835392846089       -2.90365228655969       -0.31838555900431
H           -0.92130278595873        0.15286793009262        0.14649814501203
H           -5.49006432348887        2.69761144225588       -0.04367030137922
H           -5.68034975396928        1.84988846711550        1.50656479210336
H           -4.13057733387198        2.64035081147528        1.11081190344089
H           -7.22331449991506       -0.12816180629646       -0.04641594411756
H           -6.89222117079381        0.99994466341460       -1.36044141536973
H           -6.82833535981564       -0.75053651116454       -1.65941143997268
H            0.24063394012178       -0.47692713997892        2.07635958240475
H            4.91557197662001        1.71998400195772        2.43443032236582

          :  Hamiltonian                  GFN1-xTB          :
         :: total energy             -83.829579039602 Eh    ::
         :: gradient norm              0.000594656015 Eh/a0 ::
         :: HOMO-LUMO gap              0.035629940211 eV    ::
         :: SCC energy               -84.582438532788 Eh    ::
         :: -> Gsolv                  -0.125040632868 Eh    ::
         :: repulsion energy           0.778406377886 Eh    ::

    * Orbital Energies and Occupations

         #    Occupation            Energy/Eh            Energy/eV
      -------------------------------------------------------------
         1        2.0000           -0.8408982             -22.8820
       ...           ...                  ...                  ...
        56        2.0000           -0.4722185             -12.8497
        57        2.0000           -0.4661586             -12.6848
        58        2.0000           -0.4638005             -12.6207
        59        2.0000           -0.4480167             -12.1912
        60        2.0000           -0.4404050             -11.9840
        61        2.0000           -0.4367823             -11.8855
        62        2.0000           -0.4215899             -11.4720
        63        2.0000           -0.4141293             -11.2690
        64        2.0000           -0.4067687             -11.0687
        65        2.0000           -0.4030877             -10.9686
        66        2.0000           -0.3901562             -10.6167
        67        2.0000           -0.3826773             -10.4132
        68        1.3315           -0.2915477              -7.9334 (HOMO)
        69        0.6685           -0.2902383              -7.8978 (LUMO)
        70                         -0.2624611              -7.1419
        71                         -0.2367373              -6.4419
        72                         -0.1948716              -5.3027
        73                         -0.1539316              -4.1887
        74                         -0.1479408              -4.0257
        75                         -0.1394931              -3.7958
        76                         -0.1206130              -3.2820
        77                         -0.1112883              -3.0283
        78                         -0.1027886              -2.7970
        79                         -0.0997545              -2.7145
       ...                                ...                  ...
       136                          0.7051532              19.1882
      -------------------------------------------------------------
                  HL-Gap            0.0013094 Eh            0.0356 eV

Wiberg/Mayer (AO) data.
largest (>0.10) Wiberg bond orders for each atom

     #   Z sym  total        # sym  WBO       # sym  WBO       # sym  WBO
 ---------------------------------------------------------------------------
     1   6 C    3.898 --    28 H    0.987    27 H    0.980    26 H    0.980
                             2 O    0.927
     2   8 O    2.108 --     3 C    1.020     1 C    0.927
     3   6 C    3.726 --     4 O    1.470     5 C    1.167     2 O    1.020
     4   8 O    1.784 --     3 C    1.470
     5   6 C    3.822 --    24 C    1.296     3 C    1.167     6 N    1.135
     6   7 N    2.994 --     7 C    1.610     5 C    1.135
     7   6 C    3.912 --     6 N    1.610    21 N    1.154     8 C    0.976
     8   6 C    3.957 --     9 C    0.988    10 C    0.980     7 C    0.976
                            11 N    0.956
     9   6 C    3.993 --     8 C    0.988    31 H    0.987    29 H    0.984
                            30 H    0.984
    10   6 C    3.991 --    34 H    0.988    33 H    0.987     8 C    0.980
                            32 H    0.977
    11   7 N    3.084 --    12 C    0.998     8 C    0.956    35 H    0.928
    12   6 C    3.802 --    13 O    1.403    14 C    1.304    11 N    0.998
    13   8 O    1.659 --    12 C    1.403
    14   6 C    3.558 --    12 C    1.304    15 N    1.189    20 O    0.886
    15   7 N    2.679 --    14 C    1.189    16 N    1.159    18 C    0.194
    16   7 N    3.639 --    18 C    1.409    15 N    1.159    17 C    0.939
    17   6 C    3.935 --    38 H    0.983    36 H    0.979    37 H    0.978
                            16 N    0.939
    18   6 C    3.791 --    16 N    1.409    20 O    1.085    19 C    1.029
                            15 N    0.194
    19   6 C    3.987 --    18 C    1.029    41 H    0.980    40 H    0.969
                            39 H    0.963
    20   8 O    2.129 --    18 C    1.085    14 C    0.886
    21   7 N    3.329 --     7 C    1.154    22 C    1.037    42 H    0.896
    22   6 C    3.825 --    23 O    1.483    24 C    1.199    21 N    1.037
    23   8 O    1.736 --    22 C    1.483
    24   6 C    3.726 --     5 C    1.296    22 C    1.199    25 O    1.051
    25   8 O    1.978 --    24 C    1.051    43 H    0.789
    26   1 H    1.013 --     1 C    0.980
    27   1 H    1.013 --     1 C    0.980
    28   1 H    1.016 --     1 C    0.987
    29   1 H    1.018 --     9 C    0.984
    30   1 H    1.015 --     9 C    0.984
    31   1 H    1.007 --     9 C    0.987
    32   1 H    1.025 --    10 C    0.977
    33   1 H    1.009 --    10 C    0.987
    34   1 H    1.008 --    10 C    0.988
    35   1 H    0.975 --    11 N    0.928
    36   1 H    0.999 --    17 C    0.979
    37   1 H    0.999 --    17 C    0.978
    38   1 H    1.005 --    17 C    0.983
    39   1 H    0.995 --    19 C    0.963
    40   1 H    0.996 --    19 C    0.969
    41   1 H    0.997 --    19 C    0.980
    42   1 H    0.957 --    21 N    0.896
    43   1 H    0.879 --    25 O    0.789
 ---------------------------------------------------------------------------

           -------------------------------------------------
          | TOTAL ENERGY              -83.829579039602 Eh   |
          | GRADIENT NORM               0.000594656015 Eh/α |
          | HOMO-LUMO GAP               0.035629940211 eV   |
           -------------------------------------------------

 * finished run on 2023/06/20 at 15:10:39.834
