   * xtb version 6.5.1 (579679a) compiled by 'ehlert@majestix' on 2022-07-11
          program call               : /lustre/hpc/kemi/ree/PhD/git/ReactivityQM/dep/xtb-6.5.1/bin/xtb --gfn 1 /lustre/hpc/kemi/ree/PhD/git/ReactivityQM/calculations/R02/reac01prodE08/conf14/R02_reac01prodE08_conf14_gfn1.xyz --opt --vfukui --chrg -1 --uhf 0 --alpb DMSO

   ID    Z sym.   atoms
    1    6 C      1, 3, 5, 7-10, 12, 14, 15, 18, 19, 22, 24
    2    8 O      2, 4, 13, 20, 23, 25
    3    7 N      6, 11, 16, 17, 21
    4    1 H      26-43

      * Solvation model:               ALPB
        Solvent                        DMSO
        Solvent mass                       7.8130E+01 g/mol
          :  Hamiltonian                  GFN1-xTB          :
 * total energy  :   -83.8489120 Eh     change       -0.5788650E-09 Eh
 * total energy  :   -83.8596893 Eh     change       -0.1077728E-01 Eh
 * total energy  :   -83.8637313 Eh     change       -0.4042040E-02 Eh
 * total energy  :   -83.8642708 Eh     change       -0.5394783E-03 Eh
 * total energy  :   -83.8645704 Eh     change       -0.2996074E-03 Eh
 * total energy  :   -83.8646974 Eh     change       -0.1269767E-03 Eh
 * total energy  :   -83.8648333 Eh     change       -0.1358723E-03 Eh
 * total energy  :   -83.8649507 Eh     change       -0.1174229E-03 Eh
 * total energy  :   -83.8650628 Eh     change       -0.1120822E-03 Eh
 * total energy  :   -83.8651686 Eh     change       -0.1058051E-03 Eh
 * total energy  :   -83.8660517 Eh     change       -0.3092454E-04 Eh
 * total energy  :   -83.8660668 Eh     change       -0.1505427E-04 Eh
 * total energy  :   -83.8660923 Eh     change       -0.2554577E-04 Eh
 * total energy  :   -83.8661311 Eh     change       -0.3884955E-04 Eh
 * total energy  :   -83.8661564 Eh     change       -0.2520335E-04 Eh
 * total energy  :   -83.8661737 Eh     change       -0.1731075E-04 Eh
 * total energy  :   -83.8661835 Eh     change       -0.9876054E-05 Eh
 * total energy  :   -83.8661895 Eh     change       -0.5969039E-05 Eh
 * total energy  :   -83.8661930 Eh     change       -0.3508726E-05 Eh
   *** GEOMETRY OPTIMIZATION CONVERGED AFTER 44 ITERATIONS ***

 final structure:
================
43
 xtb: 6.5.1 (579679a)
C            6.29082165995823        1.82593420080940        0.05033286284712
O            5.15158562804030        1.23772266996156        0.66954168687535
C            4.17702015525983        0.81338570616354       -0.16558713258989
O            4.27523075836336        0.92906085599594       -1.37874196044467
C            3.02413499469881        0.21951164884123        0.51715057266483
N            2.04257744072606       -0.23642527004787       -0.33820141405103
C            0.97665046423596       -0.78823054267778        0.12329977233743
C           -0.08840085881665       -1.29916034010311       -0.82857984217648
C           -0.26705732325012       -2.81364896804278       -0.63433396069058
C            0.32443466829897       -0.98421679263800       -2.27042998750267
N           -1.33370520566469       -0.60070322392466       -0.49205348364331
C           -2.50464271311869       -0.82576088292697       -1.12764031700789
O           -2.62230434452411       -1.52500163910044       -2.12714668206289
C           -3.70010770685186       -0.02427509319089       -0.56398031889867
C           -4.94200449189709       -0.92691224603077       -0.50461116790100
N           -3.90525103626718        1.11714560125930       -1.45333250359368
N           -3.76597891285721        2.22137017836030       -0.68658475948066
C           -3.49835672424134        1.88781837745040        0.52691233234325
C           -3.30516868744366        2.78575748187808        1.69782541728807
O           -3.40467310831810        0.51675829316731        0.71705233121369
N            0.75096340471707       -0.94156004014666        1.46950721195422
C            1.66617943174438       -0.52485450545850        2.42523688612141
O            1.45830057217238       -0.68048878164956        3.63133235659672
C            2.84971074650196        0.08825859361365        1.88878110380050
O            3.75865735385003        0.50716741994004        2.80228567106113
H            6.75155137185391        1.12472123936325       -0.65189979943434
H            6.99241181313915        2.06969972542268        0.84640619316178
H            6.00758960299338        2.73509182631604       -0.48858983315118
H           -0.63096383771935       -3.02543370717709        0.36900354474252
H            0.68751623135132       -3.31714319908859       -0.77850510115576
H           -0.98541260174138       -3.19888775742368       -1.35632189031317
H           -0.40148221406749       -1.39212499476910       -2.97092774421043
H            1.29796805311712       -1.42994762700347       -2.46978434964181
H            0.39712185733132        0.09390025306913       -2.41184185311220
H           -1.38085993164932       -0.16175896746462        0.41606077596736
H           -5.81383730354825       -0.32446949143351       -0.25925641054577
H           -4.80638892859913       -1.69096015955776        0.25803781572887
H           -5.08773045707115       -1.40022231945489       -1.47374525985401
H           -2.40266007081966        3.38986574707334        1.58487112749904
H           -4.15331804538397        3.46424148809820        1.80108729985078
H           -3.21744829710441        2.19042419762693        2.60383726323023
H           -0.07444651715994       -1.40684258243777        1.81037518141082
H            3.41177810976541        0.30119462734010        3.68800036477376

          :  Hamiltonian                  GFN1-xTB          :
         :: total energy             -83.866193016499 Eh    ::
         :: gradient norm              0.000389953277 Eh/a0 ::
         :: HOMO-LUMO gap              0.084626409859 eV    ::
         :: SCC energy               -84.623206562043 Eh    ::
         :: -> Gsolv                  -0.113406651468 Eh    ::
         :: repulsion energy           0.783710513192 Eh    ::

    * Orbital Energies and Occupations

         #    Occupation            Energy/Eh            Energy/eV
      -------------------------------------------------------------
         1        2.0000           -0.8149930             -22.1771
       ...           ...                  ...                  ...
        56        2.0000           -0.4787596             -13.0277
        57        2.0000           -0.4755784             -12.9411
        58        2.0000           -0.4622383             -12.5781
        59        2.0000           -0.4600277             -12.5180
        60        2.0000           -0.4382833             -11.9263
        61        2.0000           -0.4359178             -11.8619
        62        2.0000           -0.4286888             -11.6652
        63        2.0000           -0.4271720             -11.6239
        64        2.0000           -0.4241805             -11.5425
        65        2.0000           -0.4122385             -11.2176
        66        2.0000           -0.4078162             -11.0972
        67        2.0000           -0.3837623             -10.4427
        68        1.6742           -0.3093886              -8.4189 (HOMO)
        69        0.3258           -0.3062786              -8.3343 (LUMO)
        70                         -0.2608587              -7.0983
        71                         -0.2299208              -6.2565
        72                         -0.2163929              -5.8883
        73                         -0.1942384              -5.2855
        74                         -0.1336521              -3.6369
        75                         -0.1294225              -3.5218
        76                         -0.1214060              -3.3036
        77                         -0.1195339              -3.2527
        78                         -0.1109090              -3.0180
        79                         -0.1013937              -2.7591
       ...                                ...                  ...
       136                          0.7091236              19.2962
      -------------------------------------------------------------
                  HL-Gap            0.0031100 Eh            0.0846 eV

Wiberg/Mayer (AO) data.
largest (>0.10) Wiberg bond orders for each atom

     #   Z sym  total        # sym  WBO       # sym  WBO       # sym  WBO
 ---------------------------------------------------------------------------
     1   6 C    3.889 --    27 H    0.987    28 H    0.980    26 H    0.980
                             2 O    0.915
     2   8 O    2.150 --     3 C    1.060     1 C    0.915     4 O    0.116
     3   6 C    3.782 --     4 O    1.588     5 C    1.067     2 O    1.060
     4   8 O    1.823 --     3 C    1.588     2 O    0.116
     5   6 C    3.858 --    24 C    1.392     6 N    1.158     3 C    1.067
     6   7 N    3.020 --     7 C    1.613     5 C    1.158
     7   6 C    3.903 --     6 N    1.613    21 N    1.138     8 C    0.978
     8   6 C    3.945 --    10 C    0.997     9 C    0.980     7 C    0.978
                            11 N    0.926
     9   6 C    3.990 --    30 H    0.986    29 H    0.983     8 C    0.980
                            31 H    0.980
    10   6 C    3.993 --     8 C    0.997    33 H    0.986    34 H    0.985
                            32 H    0.982
    11   7 N    3.313 --    12 C    1.248     8 C    0.926    35 H    0.897
                            13 O    0.154
    12   6 C    3.855 --    13 O    1.585    11 N    1.248    14 C    0.910
    13   8 O    1.883 --    12 C    1.585    11 N    0.154
    14   6 C    3.889 --    16 N    0.989    15 C    0.967    20 O    0.915
                            12 C    0.910
    15   6 C    3.970 --    37 H    0.987    36 H    0.986    38 H    0.985
                            14 C    0.967
    16   7 N    2.454 --    17 N    1.224    14 C    0.989    18 C    0.108
    17   7 N    2.998 --    18 C    1.619    16 N    1.224
    18   6 C    3.750 --    17 N    1.619    19 C    1.021    20 O    0.967
                            16 N    0.108
    19   6 C    3.993 --    18 C    1.021    41 H    0.986    40 H    0.975
                            39 H    0.972
    20   8 O    2.083 --    18 C    0.967    14 C    0.915
    21   7 N    3.371 --     7 C    1.138    22 C    1.088    42 H    0.891
                            23 O    0.113
    22   6 C    3.855 --    23 O    1.517    24 C    1.137    21 N    1.088
    23   8 O    1.816 --    22 C    1.517    21 N    0.113
    24   6 C    3.788 --     5 C    1.392    22 C    1.137    25 O    1.065
    25   8 O    2.021 --    24 C    1.065    43 H    0.821
    26   1 H    1.011 --     1 C    0.980
    27   1 H    1.014 --     1 C    0.987
    28   1 H    1.010 --     1 C    0.980
    29   1 H    1.002 --     9 C    0.983
    30   1 H    1.003 --     9 C    0.986
    31   1 H    1.011 --     9 C    0.980
    32   1 H    1.016 --    10 C    0.982
    33   1 H    1.012 --    10 C    0.986
    34   1 H    1.011 --    10 C    0.985
    35   1 H    0.955 --    11 N    0.897
    36   1 H    1.011 --    15 C    0.986
    37   1 H    1.006 --    15 C    0.987
    38   1 H    1.014 --    15 C    0.985
    39   1 H    1.002 --    19 C    0.972
    40   1 H    1.003 --    19 C    0.975
    41   1 H    1.004 --    19 C    0.986
    42   1 H    0.935 --    21 N    0.891
    43   1 H    0.862 --    25 O    0.821
 ---------------------------------------------------------------------------

           -------------------------------------------------
          | TOTAL ENERGY              -83.866193016499 Eh   |
          | GRADIENT NORM               0.000389953277 Eh/α |
          | HOMO-LUMO GAP               0.084626409859 eV   |
           -------------------------------------------------

 * finished run on 2023/06/20 at 15:06:43.067
