   * xtb version 6.5.1 (579679a) compiled by 'ehlert@majestix' on 2022-07-11
          program call               : /lustre/hpc/kemi/ree/PhD/git/ReactivityQM/dep/xtb-6.5.1/bin/xtb --gfn 1 /lustre/hpc/kemi/ree/PhD/git/ReactivityQM/calculations/R01/reac01prodN05/conf15/R01_reac01prodN05_conf15_gfn1.xyz --opt --vfukui --chrg 1 --uhf 0 --alpb DMSO

   ID    Z sym.   atoms
    1    6 C      1, 3, 4, 6, 9, 10
    2    8 O      2, 5, 11
    3    7 N      7, 8
    4    1 H      12-20

      * Solvation model:               ALPB
        Solvent                        DMSO
        Solvent mass                       7.8130E+01 g/mol
          :  Hamiltonian                  GFN1-xTB          :
 * total energy  :   -37.4550773 Eh     change       -0.5118252E-09 Eh
 * total energy  :   -37.4695197 Eh     change       -0.1444236E-01 Eh
 * total energy  :   -37.4774827 Eh     change       -0.7962947E-02 Eh
 * total energy  :   -37.4799539 Eh     change       -0.2471208E-02 Eh
 * total energy  :   -37.4818210 Eh     change       -0.1867167E-02 Eh
 * total energy  :   -37.4830329 Eh     change       -0.1211838E-02 Eh
 * total energy  :   -37.4858499 Eh     change       -0.2817003E-02 Eh
 * total energy  :   -37.4925792 Eh     change       -0.6729304E-02 Eh
 * total energy  :   -37.5102527 Eh     change       -0.1767357E-01 Eh
 * total energy  :   -37.5411705 Eh     change       -0.3091779E-01 Eh
 * total energy  :   -37.6285324 Eh     change       -0.2783525E-04 Eh
 * total energy  :   -37.6285500 Eh     change       -0.1764824E-04 Eh
 * total energy  :   -37.6285874 Eh     change       -0.3738430E-04 Eh
 * total energy  :   -37.6286074 Eh     change       -0.2003270E-04 Eh
 * total energy  :   -37.6286219 Eh     change       -0.1447866E-04 Eh
 * total energy  :   -37.6286530 Eh     change       -0.3102563E-04 Eh
 * total energy  :   -37.6286758 Eh     change       -0.2283139E-04 Eh
 * total energy  :   -37.6286833 Eh     change       -0.7554933E-05 Eh
 * total energy  :   -37.6286875 Eh     change       -0.4119105E-05 Eh
   *** GEOMETRY OPTIMIZATION CONVERGED AFTER 77 ITERATIONS ***

 final structure:
================
20
 xtb: 6.5.1 (579679a)
C           -3.33814341964337        1.48823787445267       -0.45313123435418
O           -2.84276103576218        0.22695828883344        0.04824580885956
C           -1.61120616748196       -0.07228696275652        0.02084723136296
C           -1.19436028718491       -1.37791626127044        0.55343021120313
O           -0.79841574740917        0.81271592852197       -0.48287345978352
C            0.54364035532938        0.72673329288420       -0.62308915630054
N            1.27567036411189        1.64997000440404       -1.13840941510875
N            2.54965808280413        1.16789607613756       -1.09511684091389
C            2.50328614946005       -0.00933163961908       -0.55980833115817
C            3.61578956521504       -0.94401778722217       -0.30278020613467
O            1.23149913234631       -0.35339358299594       -0.23143602635103
H           -4.40313808022517        1.49257241250794       -0.23476197788488
H           -2.82309324059293        2.30281524156038        0.05489904876897
H           -3.15308498316330        1.53774302901543       -1.52605494892271
H           -2.06503549398134       -1.93047757895516        0.89988856049934
H           -0.48772927439228       -1.22838829991398        1.37168761899126
H           -0.66865194576773       -1.93859310040774       -0.22122600202816
H            4.56152331658391       -0.45769845551156       -0.53224598113069
H            3.50209850226543       -1.83319163563593       -0.92420026558662
H            3.60245420748946       -1.26034484403037        0.73983736597317

          :  Hamiltonian                  GFN1-xTB          :
         :: total energy             -37.628687456529 Eh    ::
         :: gradient norm              0.000848193334 Eh/a0 ::
         :: HOMO-LUMO gap              2.884570570180 eV    ::
         :: SCC energy               -37.975542579440 Eh    ::
         :: -> Gsolv                  -0.083941391694 Eh    ::
         :: repulsion energy           0.354868093944 Eh    ::

    * Orbital Energies and Occupations

         #    Occupation            Energy/Eh            Energy/eV
      -------------------------------------------------------------
         1        2.0000           -0.9498972             -25.8480
       ...           ...                  ...                  ...
        18        2.0000           -0.6239215             -16.9778
        19        2.0000           -0.5973166             -16.2538
        20        2.0000           -0.5938578             -16.1597
        21        2.0000           -0.5802194             -15.7886
        22        2.0000           -0.5685154             -15.4701
        23        2.0000           -0.5650444             -15.3756
        24        2.0000           -0.5614722             -15.2784
        25        2.0000           -0.5573954             -15.1675
        26        2.0000           -0.5504800             -14.9793
        27        2.0000           -0.5410060             -14.7215
        28        2.0000           -0.5163895             -14.0517
        29        2.0000           -0.4914635             -13.3734
        30        2.0000           -0.4848176             -13.1926 (HOMO)
        31                         -0.3788115             -10.3080 (LUMO)
        32                         -0.2948171              -8.0224
        33                         -0.2789226              -7.5899
        34                         -0.1798736              -4.8946
        35                         -0.1663468              -4.5265
        36                         -0.1544094              -4.2017
        37                         -0.1111371              -3.0242
        38                         -0.1087163              -2.9583
        39                         -0.1046090              -2.8466
        40                         -0.1036213              -2.8197
        41                         -0.0856697              -2.3312
       ...                                ...                  ...
        62                          0.5658922              15.3987
      -------------------------------------------------------------
                  HL-Gap            0.1060060 Eh            2.8846 eV

Wiberg/Mayer (AO) data.
largest (>0.10) Wiberg bond orders for each atom

     #   Z sym  total        # sym  WBO       # sym  WBO       # sym  WBO
 ---------------------------------------------------------------------------
     1   6 C    3.802 --    12 H    0.980    13 H    0.971    14 H    0.968
                             2 O    0.833
     2   8 O    2.349 --     3 C    1.343     1 C    0.833
     3   6 C    3.764 --     2 O    1.343     5 O    1.181     4 C    1.048
     4   6 C    3.958 --     3 C    1.048    15 H    0.972    17 H    0.928
                            16 H    0.927
     5   8 O    2.362 --     3 C    1.181     6 C    0.966
     6   6 C    3.814 --     7 N    1.608    11 O    1.063     5 O    0.966
     7   7 N    3.007 --     6 C    1.608     8 N    1.181
     8   7 N    2.983 --     9 C    1.630     7 N    1.181
     9   6 C    3.839 --     8 N    1.630    10 C    1.037    11 O    1.026
    10   6 C    3.978 --     9 C    1.037    18 H    0.979    20 H    0.960
                            19 H    0.954
    11   8 O    2.308 --     6 C    1.063     9 C    1.026
    12   1 H    0.998 --     1 C    0.980
    13   1 H    0.994 --     1 C    0.971
    14   1 H    0.993 --     1 C    0.968
    15   1 H    0.986 --     4 C    0.972
    16   1 H    0.987 --     4 C    0.927
    17   1 H    0.987 --     4 C    0.928
    18   1 H    0.994 --    10 C    0.979
    19   1 H    0.992 --    10 C    0.954
    20   1 H    0.992 --    10 C    0.960
 ---------------------------------------------------------------------------

           -------------------------------------------------
          | TOTAL ENERGY              -37.628687456529 Eh   |
          | GRADIENT NORM               0.000848193334 Eh/α |
          | HOMO-LUMO GAP               2.884570570180 eV   |
           -------------------------------------------------

 * finished run on 2023/06/20 at 14:56:03.327
