   * xtb version 6.5.1 (579679a) compiled by 'ehlert@majestix' on 2022-07-11
          program call               : /lustre/hpc/kemi/ree/PhD/git/ReactivityQM/dep/xtb-6.5.1/bin/xtb --gfn 1 /lustre/hpc/kemi/ree/PhD/git/ReactivityQM/calculations/RaltegravirCLI/reac02prodE10/conf15/RaltegravirCLI_reac02prodE10_conf15_gfn1.xyz --opt --vfukui --chrg -1 --uhf 0 --alpb DMSO

   ID    Z sym.   atoms
    1    6 C      1, 3, 5, 6, 8, 9, 12-16, 18, 19, 21-24
    2    7 N      2, 11, 20, 25
    3    8 O      4, 7, 10
    4    9 F      17
    5    1 H      26-47

      * Solvation model:               ALPB
        Solvent                        DMSO
        Solvent mass                       7.8130E+01 g/mol
          :  Hamiltonian                  GFN1-xTB          :
 * total energy  :   -80.2128539 Eh     change       -0.1564615E-10 Eh
 * total energy  :   -80.2231409 Eh     change       -0.1028698E-01 Eh
 * total energy  :   -80.2258001 Eh     change       -0.2659173E-02 Eh
 * total energy  :   -80.2261591 Eh     change       -0.3589692E-03 Eh
 * total energy  :   -80.2264351 Eh     change       -0.2760869E-03 Eh
 * total energy  :   -80.2265377 Eh     change       -0.1025734E-03 Eh
 * total energy  :   -80.2266483 Eh     change       -0.1105524E-03 Eh
 * total energy  :   -80.2267094 Eh     change       -0.6114298E-04 Eh
 * total energy  :   -80.2267501 Eh     change       -0.4064954E-04 Eh
 * total energy  :   -80.2267819 Eh     change       -0.3182177E-04 Eh
 * total energy  :   -80.2283523 Eh     change       -0.2449163E-04 Eh
 * total energy  :   -80.2283736 Eh     change       -0.2126810E-04 Eh
 * total energy  :   -80.2283813 Eh     change       -0.7737368E-05 Eh
 * total energy  :   -80.2283933 Eh     change       -0.1205212E-04 Eh
 * total energy  :   -80.2283996 Eh     change       -0.6251521E-05 Eh
 * total energy  :   -80.2284056 Eh     change       -0.5971611E-05 Eh
 * total energy  :   -80.2284114 Eh     change       -0.5849164E-05 Eh
 * total energy  :   -80.2284195 Eh     change       -0.8080025E-05 Eh
 * total energy  :   -80.2284237 Eh     change       -0.4176955E-05 Eh
   *** GEOMETRY OPTIMIZATION CONVERGED AFTER 44 ITERATIONS ***

 final structure:
================
47
 xtb: 6.5.1 (579679a)
C           -3.89942076632148        0.30965202152672       -1.65373174123834
N           -2.54454171038719        0.64080722674929       -1.21334383321435
C           -1.87144429206493        1.49087838589461       -2.01953994485196
O           -2.38563858804637        1.92804433295344       -3.05980106855745
C           -0.43417551988405        1.91544319458743       -1.67114489445660
C           -0.39824556675444        3.45841951764791       -1.64757512746414
O            0.38666419476719        1.45031641371526       -2.76134611461627
C            0.02803748467857        1.31062696156161       -0.36665575426425
C            1.29104968991788        1.61827932697348        0.18430864938327
O            2.14694085596435        2.39573359986992       -0.29341296990407
N            1.54098070011508        1.02065443933558        1.44937108718161
C            2.93863107807169        0.81268591206373        1.80403108011297
C            3.53235019801665       -0.32604157752031        1.00060408763791
C            3.45603047825721       -1.63356620509589        1.47610366334635
C            3.95309440401658       -2.69332433244337        0.72880605967130
C            4.52210609621564       -2.41503543069751       -0.49973598665086
F            5.00998586177168       -3.43656477336733       -1.23248020559180
C            4.61570714623764       -1.13125036552886       -1.00566589954309
C            4.11217975117931       -0.08606765117378       -0.24448530611562
N           -0.75432368570015        0.41618663715741        0.29700658707296
C           -1.94609593769056        0.07737077798477       -0.04802807375981
C           -2.65328814380696       -0.98188732363480        0.78494515828433
C           -1.80821742384943       -1.27186540438344        2.03841744901520
C           -2.81706023906508       -2.28952750942978       -0.00674409586420
N           -3.98272057225103       -0.51719801955616        1.20602386523181
H           -4.50213597985401       -0.01847880857092       -0.81118225805512
H           -3.86932467840234       -0.47261212823387       -2.41602532386468
H           -4.35415694210932        1.20144261649085       -2.08975963315617
H           -0.97276215059315        3.82604782744699       -0.79799229714500
H            0.63237886158710        3.79873457540842       -1.56090129168129
H           -0.82841074284053        3.85436746432112       -2.56722848453890
H           -0.04300179165131        1.70047878254946       -3.58987222272505
H            0.97343648683410        0.19249320544706        1.60833370581934
H            2.99008781012622        0.58624775897476        2.87333088653693
H            3.48750322108310        1.74176079873036        1.61456540039538
H            3.00859959283781       -1.83149563344267        2.44348121907347
H            3.90429498268401       -3.71139954005283        1.09163934504643
H            5.07455815892756       -0.95964284335038       -1.97105726392269
H            4.16903316237355        0.92970733242857       -0.62237497067573
H           -1.64642576100926       -0.35473346224926        2.60374245007941
H           -2.32680011671102       -1.98928831172003        2.67259401963603
H           -0.83816982808158       -1.68223219307652        1.75832890599347
H           -3.22840090156618       -3.06495936075999        0.63896462128742
H           -3.48845732148387       -2.15932329011675       -0.85330579970804
H           -1.84675093321021       -2.62199697915231       -0.37597492547458
H           -3.87865833575326        0.24230381025684        1.86653648809406
H           -4.45501928657783       -1.27019277652781        1.68534675814229

          :  Hamiltonian                  GFN1-xTB          :
         :: total energy             -80.228423671441 Eh    ::
         :: gradient norm              0.000426722586 Eh/a0 ::
         :: HOMO-LUMO gap              1.664178532845 eV    ::
         :: SCC energy               -81.084959080483 Eh    ::
         :: -> Gsolv                  -0.109322914318 Eh    ::
         :: repulsion energy           0.887936046408 Eh    ::

    * Orbital Energies and Occupations

         #    Occupation            Energy/Eh            Energy/eV
      -------------------------------------------------------------
         1        2.0000           -0.8527826             -23.2054
       ...           ...                  ...                  ...
        56        2.0000           -0.4604844             -12.5304
        57        2.0000           -0.4581600             -12.4672
        58        2.0000           -0.4554155             -12.3925
        59        2.0000           -0.4429189             -12.0524
        60        2.0000           -0.4372622             -11.8985
        61        2.0000           -0.4235467             -11.5253
        62        2.0000           -0.4120878             -11.2135
        63        2.0000           -0.4080634             -11.1040
        64        2.0000           -0.3987979             -10.8518
        65        2.0000           -0.3935809             -10.7099
        66        2.0000           -0.3843903             -10.4598
        67        2.0000           -0.3727155             -10.1421
        68        2.0000           -0.3204429              -8.7197 (HOMO)
        69                         -0.2592855              -7.0555 (LUMO)
        70                         -0.2512457              -6.8367
        71                         -0.2374616              -6.4617
        72                         -0.1947016              -5.2981
        73                         -0.1387742              -3.7762
        74                         -0.1298711              -3.5340
        75                         -0.1179594              -3.2098
        76                         -0.1093845              -2.9765
        77                         -0.1039930              -2.8298
        78                         -0.0995046              -2.7077
        79                         -0.0914093              -2.4874
       ...                                ...                  ...
       144                          0.6866604              18.6850
      -------------------------------------------------------------
                  HL-Gap            0.0611574 Eh            1.6642 eV

Wiberg/Mayer (AO) data.
largest (>0.10) Wiberg bond orders for each atom

     #   Z sym  total        # sym  WBO       # sym  WBO       # sym  WBO
 ---------------------------------------------------------------------------
     1   6 C    3.948 --    27 H    0.981    28 H    0.980    26 H    0.973
                             2 N    0.944
     2   7 N    3.445 --     3 C    1.264    21 C    0.982     1 C    0.944
                             4 O    0.147
     3   6 C    3.891 --     4 O    1.529     2 N    1.264     5 C    0.935
     4   8 O    1.844 --     3 C    1.529     2 N    0.147
     5   6 C    3.907 --     8 C    0.980     6 C    0.975     3 C    0.935
                             7 O    0.916
     6   6 C    3.995 --    29 H    0.988    31 H    0.986    30 H    0.981
                             5 C    0.975
     7   8 O    1.881 --     5 C    0.916    32 H    0.868
     8   6 C    3.860 --     9 C    1.292    20 N    1.216     5 C    0.980
                            21 C    0.116    10 O    0.102
     9   6 C    3.911 --    10 O    1.447     8 C    1.292    11 N    1.038
    10   8 O    1.788 --     9 C    1.447     8 C    0.102
    11   7 N    3.145 --     9 C    1.038    12 C    0.965    33 H    0.924
    12   6 C    3.974 --    13 C    0.995    34 H    0.979    35 H    0.973
                            11 N    0.965
    13   6 C    3.986 --    14 C    1.418    19 C    1.412    12 C    0.995
    14   6 C    3.994 --    15 C    1.440    13 C    1.418    36 H    0.972
                            18 C    0.109
    15   6 C    3.992 --    14 C    1.440    16 C    1.404    37 H    0.971
                            19 C    0.111
    16   6 C    3.855 --    15 C    1.404    18 C    1.401    17 F    0.913
    17   9 F    1.037 --    16 C    0.913
    18   6 C    3.992 --    19 C    1.445    16 C    1.401    38 H    0.971
                            14 C    0.109
    19   6 C    3.992 --    18 C    1.445    13 C    1.412    39 H    0.968
                            15 C    0.111
    20   7 N    3.083 --    21 C    1.598     8 C    1.216
    21   6 C    3.896 --    20 N    1.598     2 N    0.982    22 C    0.982
                             8 C    0.116
    22   6 C    3.964 --    23 C    0.992    24 C    0.989    21 C    0.982
                            25 N    0.970
    23   6 C    3.996 --    22 C    0.992    41 H    0.986    40 H    0.985
                            42 H    0.984
    24   6 C    3.992 --    22 C    0.989    45 H    0.986    43 H    0.985
                            44 H    0.982
    25   7 N    2.991 --    22 C    0.970    47 H    0.948    46 H    0.946
    26   1 H    1.034 --     1 C    0.973
    27   1 H    1.009 --     1 C    0.981
    28   1 H    1.017 --     1 C    0.980
    29   1 H    1.012 --     6 C    0.988
    30   1 H    1.027 --     6 C    0.981
    31   1 H    1.015 --     6 C    0.986
    32   1 H    0.896 --     7 O    0.868
    33   1 H    0.992 --    11 N    0.924
    34   1 H    1.012 --    12 C    0.979
    35   1 H    1.023 --    12 C    0.973
    36   1 H    1.001 --    14 C    0.972
    37   1 H    1.000 --    15 C    0.971
    38   1 H    1.000 --    18 C    0.971
    39   1 H    1.019 --    19 C    0.968
    40   1 H    1.016 --    23 C    0.985
    41   1 H    1.006 --    23 C    0.986
    42   1 H    1.018 --    23 C    0.984
    43   1 H    1.002 --    24 C    0.985
    44   1 H    1.008 --    24 C    0.982
    45   1 H    1.008 --    24 C    0.986
    46   1 H    0.965 --    25 N    0.946
    47   1 H    0.962 --    25 N    0.948
 ---------------------------------------------------------------------------

           -------------------------------------------------
          | TOTAL ENERGY              -80.228423671441 Eh   |
          | GRADIENT NORM               0.000426722586 Eh/α |
          | HOMO-LUMO GAP               1.664178532845 eV   |
           -------------------------------------------------

 * finished run on 2023/06/20 at 15:10:36.153
