   * xtb version 6.5.1 (579679a) compiled by 'ehlert@majestix' on 2022-07-11
          program call               : /lustre/hpc/kemi/ree/PhD/git/ReactivityQM/dep/xtb-6.5.1/bin/xtb --gfn 1 /lustre/hpc/kemi/ree/PhD/git/ReactivityQM/calculations/R02/reac01prodE06/conf20/R02_reac01prodE06_conf20_gfn1.xyz --opt --vfukui --chrg -1 --uhf 0 --alpb DMSO

   ID    Z sym.   atoms
    1    6 C      1, 3, 5, 6, 8, 11-15, 17, 19, 22, 23
    2    8 O      2, 4, 7, 9, 18, 24
    3    7 N      10, 16, 20, 21, 25
    4    1 H      26-43

      * Solvation model:               ALPB
        Solvent                        DMSO
        Solvent mass                       7.8130E+01 g/mol
          :  Hamiltonian                  GFN1-xTB          :
 * total energy  :   -83.8623953 Eh     change       -0.1207923E-11 Eh
 * total energy  :   -83.8740930 Eh     change       -0.1169769E-01 Eh
 * total energy  :   -83.8787531 Eh     change       -0.4660141E-02 Eh
 * total energy  :   -83.8794698 Eh     change       -0.7166276E-03 Eh
 * total energy  :   -83.8801316 Eh     change       -0.6618595E-03 Eh
 * total energy  :   -83.8804498 Eh     change       -0.3182086E-03 Eh
 * total energy  :   -83.8807399 Eh     change       -0.2900750E-03 Eh
 * total energy  :   -83.8810120 Eh     change       -0.2721033E-03 Eh
 * total energy  :   -83.8812190 Eh     change       -0.2070117E-03 Eh
 * total energy  :   -83.8813940 Eh     change       -0.1749329E-03 Eh
 * total energy  :   -83.8822780 Eh     change       -0.1426102E-04 Eh
 * total energy  :   -83.8822867 Eh     change       -0.8653946E-05 Eh
 * total energy  :   -83.8822945 Eh     change       -0.7779423E-05 Eh
 * total energy  :   -83.8823061 Eh     change       -0.1163898E-04 Eh
 * total energy  :   -83.8823155 Eh     change       -0.9440396E-05 Eh
 * total energy  :   -83.8823229 Eh     change       -0.7352412E-05 Eh
 * total energy  :   -83.8823320 Eh     change       -0.9061789E-05 Eh
 * total energy  :   -83.8823366 Eh     change       -0.4590903E-05 Eh
 * total energy  :   -83.8823401 Eh     change       -0.3540254E-05 Eh
   *** GEOMETRY OPTIMIZATION CONVERGED AFTER 39 ITERATIONS ***

 final structure:
================
43
 xtb: 6.5.1 (579679a)
C           -3.39002663759853        3.61622269421964       -2.30838247041268
O           -3.06422908258765        2.74345567075841       -1.22764257457930
C           -2.11308396723937        1.82118243133925       -1.47754866443492
O           -1.57449722159670        1.75359680803718       -2.56431750926986
C           -1.80982486243650        0.92202272331091       -0.32664128538986
C           -2.03430819776353        1.27698958975520        1.01039248775095
O           -2.64247932726760        2.47414286834914        1.40935563534069
C           -1.44730159215867        0.49488917773643        2.04648973137939
O           -1.45729694361603        0.73349054886831        3.26360564060849
N           -0.69799939214778       -0.60508646479359        1.58361967510937
C           -1.06709399759347       -1.22487576177327        0.31510168219420
C           -2.36393983544310       -2.04645367202865        0.48969728014842
C            0.13525127492062       -2.10680266424729       -0.15929701556033
C           -0.09011549428792       -2.59580064189389       -1.59437554620612
C            0.42149387570407       -3.29688382232436        0.76346964056508
N            1.28510224673543       -1.19273928090379       -0.12299151604844
C            2.52978913041983       -1.49452232283675       -0.49743524975996
O            2.89923544243922       -2.54400628417530       -1.01294909118535
C            3.49792852536838       -0.38547022458086       -0.24687052353636
N            4.74983946749208       -0.34419752826283       -0.58623251864540
N            5.23847714810161        0.85325053426893       -0.14807693428561
C            4.25451584536480        1.46633507367611        0.43207674773221
C            4.27693212887576        2.79712940335483        1.07891699126019
O            3.12563337895767        0.73943091791781        0.40231398986633
N           -1.27403755297331       -0.22728338435571       -0.71079202599300
H           -2.50928203682906        4.18718774543171       -2.61514797816643
H           -3.75861744105782        3.04113338566711       -3.16213936813796
H           -4.16583117282473        4.28969197029302       -1.95062380803652
H           -3.37566653708132        2.69472903966454        0.82208994463082
H           -0.51975587367989       -1.27117713171203        2.32259605540991
H           -3.17481187269559       -1.37167532136658        0.76248569071456
H           -2.62675193483365       -2.54395497584887       -0.44134696956996
H           -2.25145280727953       -2.78833139616445        1.27729831775836
H           -0.92385430567606       -3.29519558153096       -1.61879182554159
H            0.79531353680153       -3.10672972896369       -1.96885074735555
H           -0.31996086285608       -1.74919334389718       -2.24205564261835
H           -0.41989704103676       -3.98666088238236        0.76135410444640
H            1.30309811428105       -3.83203998333461        0.41123542439468
H            0.60464655204746       -2.96462793702342        1.78382840029791
H            1.11882349592222       -0.32037544646449        0.36815610717107
H            5.27025045484899        3.22863136555718        0.98698986133524
H            3.54771659268357        3.45671407801167        0.60896656985175
H            4.01807077959530        2.70385675464438        2.13348328675355

          :  Hamiltonian                  GFN1-xTB          :
         :: total energy             -83.882340094590 Eh    ::
         :: gradient norm              0.000493509007 Eh/a0 ::
         :: HOMO-LUMO gap              0.704484424559 eV    ::
         :: SCC energy               -84.637965952299 Eh    ::
         :: -> Gsolv                  -0.112068967541 Eh    ::
         :: repulsion energy           0.783497026025 Eh    ::

    * Orbital Energies and Occupations

         #    Occupation            Energy/Eh            Energy/eV
      -------------------------------------------------------------
         1        2.0000           -0.8576453             -23.3377
       ...           ...                  ...                  ...
        56        2.0000           -0.4741590             -12.9025
        57        2.0000           -0.4720793             -12.8459
        58        2.0000           -0.4605494             -12.5322
        59        2.0000           -0.4511856             -12.2774
        60        2.0000           -0.4502741             -12.2526
        61        2.0000           -0.4442474             -12.0886
        62        2.0000           -0.4395749             -11.9614
        63        2.0000           -0.4285379             -11.6611
        64        2.0000           -0.4279694             -11.6456
        65        2.0000           -0.4055022             -11.0343
        66        2.0000           -0.3899937             -10.6123
        67        2.0000           -0.3774902             -10.2720
        68        2.0000           -0.3230669              -8.7911 (HOMO)
        69        0.0000           -0.2971776              -8.0866 (LUMO)
        70                         -0.2667231              -7.2579
        71                         -0.2507101              -6.8222
        72                         -0.1938224              -5.2742
        73                         -0.1862082              -5.0670
        74                         -0.1406847              -3.8282
        75                         -0.1256546              -3.4192
        76                         -0.1195042              -3.2519
        77                         -0.1150429              -3.1305
        78                         -0.1081365              -2.9425
        79                         -0.0971166              -2.6427
       ...                                ...                  ...
       136                          0.7344868              19.9864
      -------------------------------------------------------------
                  HL-Gap            0.0258893 Eh            0.7045 eV

Wiberg/Mayer (AO) data.
largest (>0.10) Wiberg bond orders for each atom

     #   Z sym  total        # sym  WBO       # sym  WBO       # sym  WBO
 ---------------------------------------------------------------------------
     1   6 C    3.884 --    28 H    0.987    27 H    0.980    26 H    0.980
                             2 O    0.907
     2   8 O    2.189 --     3 C    1.073     1 C    0.907     4 O    0.122
     3   6 C    3.816 --     4 O    1.651     2 O    1.073     5 C    0.999
     4   8 O    1.902 --     3 C    1.651     2 O    0.122
     5   6 C    3.970 --    25 N    1.434     6 C    1.324     3 C    0.999
     6   6 C    3.858 --     5 C    1.324     8 C    1.203     7 O    0.967
                            25 N    0.179
     7   8 O    1.936 --     6 C    0.967    29 H    0.855
     8   6 C    3.913 --     9 O    1.501     6 C    1.203    10 N    1.056
     9   8 O    1.801 --     8 C    1.501
    10   7 N    3.188 --     8 C    1.056    11 C    0.944    30 H    0.920
    11   6 C    3.947 --    25 N    1.000    12 C    0.975    13 C    0.949
                            10 N    0.944
    12   6 C    3.995 --    33 H    0.984    31 H    0.984    32 H    0.983
                            11 C    0.975
    13   6 C    3.922 --    14 C    0.998    15 C    0.995    11 C    0.949
                            16 N    0.914
    14   6 C    3.993 --    13 C    0.998    34 H    0.984    35 H    0.982
                            36 H    0.980
    15   6 C    3.993 --    13 C    0.995    37 H    0.984    39 H    0.982
                            38 H    0.981
    16   7 N    3.399 --    17 C    1.313    13 C    0.914    40 H    0.888
                            18 O    0.188
    17   6 C    3.925 --    18 O    1.550    16 N    1.313    19 C    0.981
    18   8 O    1.874 --    17 C    1.550    16 N    0.188
    19   6 C    3.866 --    20 N    1.627    24 O    1.049    17 C    0.981
    20   7 N    2.993 --    19 C    1.627    21 N    1.191
    21   7 N    2.979 --    22 C    1.618    20 N    1.191
    22   6 C    3.872 --    21 N    1.618    24 O    1.073    23 C    1.030
    23   6 C    3.988 --    22 C    1.030    41 H    0.983    42 H    0.965
                            43 H    0.964
    24   8 O    2.316 --    22 C    1.073    19 C    1.049
    25   7 N    2.928 --     5 C    1.434    11 C    1.000     6 C    0.179
    26   1 H    1.011 --     1 C    0.980
    27   1 H    1.011 --     1 C    0.980
    28   1 H    1.013 --     1 C    0.987
    29   1 H    0.896 --     7 O    0.855
    30   1 H    0.967 --    10 N    0.920
    31   1 H    1.007 --    12 C    0.984
    32   1 H    1.010 --    12 C    0.983
    33   1 H    1.005 --    12 C    0.984
    34   1 H    1.006 --    14 C    0.984
    35   1 H    1.014 --    14 C    0.982
    36   1 H    1.029 --    14 C    0.980
    37   1 H    1.005 --    15 C    0.984
    38   1 H    1.010 --    15 C    0.981
    39   1 H    1.004 --    15 C    0.982
    40   1 H    0.972 --    16 N    0.888
    41   1 H    1.000 --    23 C    0.983
    42   1 H    0.998 --    23 C    0.965
    43   1 H    0.998 --    23 C    0.964
 ---------------------------------------------------------------------------

           -------------------------------------------------
          | TOTAL ENERGY              -83.882340094590 Eh   |
          | GRADIENT NORM               0.000493509007 Eh/α |
          | HOMO-LUMO GAP               0.704484424559 eV   |
           -------------------------------------------------

 * finished run on 2023/06/20 at 15:00:21.362
