   * xtb version 6.5.1 (579679a) compiled by 'ehlert@majestix' on 2022-07-11
          program call               : /lustre/hpc/kemi/ree/PhD/git/ReactivityQM/dep/xtb-6.5.1/bin/xtb --gfn 1 /lustre/hpc/kemi/ree/PhD/git/ReactivityQM/calculations/RaltegravirCLI/reac02prodN05/conf18/RaltegravirCLI_reac02prodN05_conf18_gfn1.xyz --opt --vfukui --chrg 1 --uhf 0 --alpb DMSO

   ID    Z sym.   atoms
    1    6 C      1, 3, 5, 7, 8, 11-15, 17, 18, 20-24
    2    7 N      2, 10, 19, 25
    3    8 O      4, 6, 9
    4    9 F      16
    5    1 H      26-47

      * Solvation model:               ALPB
        Solvent                        DMSO
        Solvent mass                       7.8130E+01 g/mol
          :  Hamiltonian                  GFN1-xTB          :
 * total energy  :   -79.4579271 Eh     change       -0.5115908E-12 Eh
 * total energy  :   -79.4725473 Eh     change       -0.1462017E-01 Eh
 * total energy  :   -79.4787051 Eh     change       -0.6157856E-02 Eh
 * total energy  :   -79.4802400 Eh     change       -0.1534848E-02 Eh
 * total energy  :   -79.4816153 Eh     change       -0.1375271E-02 Eh
 * total energy  :   -79.4824152 Eh     change       -0.7999769E-03 Eh
 * total energy  :   -79.4832347 Eh     change       -0.8194291E-03 Eh
 * total energy  :   -79.4839407 Eh     change       -0.7060402E-03 Eh
 * total energy  :   -79.4845989 Eh     change       -0.6582180E-03 Eh
 * total energy  :   -79.4850446 Eh     change       -0.4456945E-03 Eh
 * total energy  :   -79.5469821 Eh     change       -0.2563193E-04 Eh
 * total energy  :   -79.5470138 Eh     change       -0.3179011E-04 Eh
 * total energy  :   -79.5470319 Eh     change       -0.1804397E-04 Eh
 * total energy  :   -79.5470587 Eh     change       -0.2682861E-04 Eh
 * total energy  :   -79.5470675 Eh     change       -0.8790101E-05 Eh
 * total energy  :   -79.5470825 Eh     change       -0.1502879E-04 Eh
 * total energy  :   -79.5470880 Eh     change       -0.5419174E-05 Eh
 * total energy  :   -79.5470953 Eh     change       -0.7333766E-05 Eh
 * total energy  :   -79.5470989 Eh     change       -0.3636157E-05 Eh
   *** GEOMETRY OPTIMIZATION CONVERGED AFTER 100 ITERATIONS ***

 final structure:
================
47
 xtb: 6.5.1 (579679a)
C           -2.72991526669637       -1.73336268944742        4.02864954804225
N           -1.80259455205801       -1.10485373214634        3.08722511050132
C           -0.54325735315449       -0.77116608163021        3.54966024722115
O           -0.17259073211398       -0.98073265442210        4.69891483780340
C            0.32157749105558       -0.14550960278446        2.56225561204957
O            1.55486020383196        0.16637434769693        3.00381511476700
C           -0.11633490089889        0.08672698104633        1.29098985871666
C            0.65738384725574        0.69589780235010        0.16908416140582
O            0.21526843441530        0.66898033220307       -0.98688273418569
N            1.81912322671830        1.27567257363805        0.48013528767176
C            2.67693159441100        1.86290580926975       -0.54680133159469
C            3.72196179407547        0.86263702142111       -0.99199022017653
C            5.05135472945002        1.00765956517911       -0.60533210170259
C            6.00703341124529        0.08157937212912       -1.00223013339038
C            5.60118375114444       -0.98539934251774       -1.78262409302326
F            6.51790787397519       -1.88613671289714       -2.16961818873497
C            4.28797592082950       -1.16149355721869       -2.18183838288874
C            3.34745731326658       -0.22508662434866       -1.77910029830389
N           -1.38766011841651       -0.29046956016895        0.93566175198578
C           -2.17402684392734       -0.85576011515805        1.79675636070675
C           -3.54314511178649       -1.25066656576907        1.35072067293004
C           -2.94127765004108        0.57584111111294       -2.08808445808457
C           -2.66489703332176        1.79338905612653       -1.29287726369709
C           -4.16500410238906        0.47508306903992       -2.91029250217997
N           -2.09751993655534       -0.39093701009680       -2.03839791594835
H           -3.00137244148628       -2.72470942026198        3.66863084419298
H           -2.22973648153030       -1.81377018859870        4.99300557326195
H           -3.62382704605984       -1.11919924182052        4.12503437441858
H            1.62493950622495       -0.09488941704655        3.94307926376120
H            2.16258046627094        1.27148515870898        1.42765320239776
H            3.14656480032308        2.75439772679654       -0.12490936216679
H            2.04101834797441        2.15207545053218       -1.38838076374250
H            5.34717782873203        1.85054205972652        0.00806432513595
H            7.04411038111592        0.18367396555282       -0.70974892686344
H            4.01046793449357       -2.01045623658669       -2.79290980501716
H            2.31296177385125       -0.33795938496773       -2.07912328829579
H           -3.70076215749463       -2.32114343644813        1.48263282705085
H           -4.30493802129807       -0.72001301984440        1.92234210596741
H           -3.65180907699139       -1.00254034396402        0.29729304617693
H           -3.49610832475263        2.49313172499722       -1.31927201219889
H           -1.76425107336630        2.27467321730415       -1.67916828323911
H           -2.44563934005412        1.50187653430539       -0.26384623913339
H           -4.22391097573769       -0.47362399688562       -3.43957182310181
H           -5.03856577486762        0.58860430504476       -2.26615811613171
H           -4.18747645480731        1.29871965373073       -3.62595750686248
H           -2.21552469737829       -1.24440385602400       -2.55635371500355
H           -1.24770016340773       -0.27764504684908       -1.46359566054310

          :  Hamiltonian                  GFN1-xTB          :
         :: total energy             -79.547098921469 Eh    ::
         :: gradient norm              0.000644709159 Eh/a0 ::
         :: HOMO-LUMO gap              2.431773234357 eV    ::
         :: SCC energy               -80.479993953688 Eh    ::
         :: -> Gsolv                  -0.106759530611 Eh    ::
         :: repulsion energy           0.962178613609 Eh    ::

    * Orbital Energies and Occupations

         #    Occupation            Energy/Eh            Energy/eV
      -------------------------------------------------------------
         1        2.0000           -0.8671197             -23.5955
       ...           ...                  ...                  ...
        55        2.0000           -0.5223617             -14.2142
        56        2.0000           -0.5165678             -14.0565
        57        2.0000           -0.5105478             -13.8927
        58        2.0000           -0.5063793             -13.7793
        59        2.0000           -0.4816433             -13.1062
        60        2.0000           -0.4800044             -13.0616
        61        2.0000           -0.4769093             -12.9774
        62        2.0000           -0.4648904             -12.6503
        63        2.0000           -0.4552872             -12.3890
        64        2.0000           -0.4544307             -12.3657
        65        2.0000           -0.4516331             -12.2896
        66        2.0000           -0.4406895             -11.9918
        67        2.0000           -0.4321204             -11.7586 (HOMO)
        68                         -0.3427543              -9.3268 (LUMO)
        69                         -0.3237632              -8.8100
        70                         -0.2863791              -7.7928
        71                         -0.2771306              -7.5411
        72                         -0.2711341              -7.3779
        73                         -0.2411610              -6.5623
        74                         -0.1679400              -4.5699
        75                         -0.1611512              -4.3851
        76                         -0.1581692              -4.3040
        77                         -0.1552514              -4.2246
        78                         -0.1498421              -4.0774
       ...                                ...                  ...
       144                          0.7016747              19.0935
      -------------------------------------------------------------
                  HL-Gap            0.0893660 Eh            2.4318 eV

Wiberg/Mayer (AO) data.
largest (>0.10) Wiberg bond orders for each atom

     #   Z sym  total        # sym  WBO       # sym  WBO       # sym  WBO
 ---------------------------------------------------------------------------
     1   6 C    3.920 --    28 H    0.979    26 H    0.978    27 H    0.975
                             2 N    0.929
     2   7 N    3.512 --    20 C    1.180     3 C    1.126     1 C    0.929
                             4 O    0.131
     3   6 C    3.915 --     4 O    1.557     2 N    1.126     5 C    1.081
     4   8 O    1.905 --     3 C    1.557     2 N    0.131
     5   6 C    3.918 --     7 C    1.511     3 C    1.081     6 O    1.079
     6   8 O    2.071 --     5 C    1.079    29 H    0.796
     7   6 C    3.963 --     5 C    1.511    19 N    1.181     8 C    1.004
     8   6 C    3.905 --     9 O    1.501    10 N    1.315     7 C    1.004
     9   8 O    1.903 --     8 C    1.501    10 N    0.164
    10   7 N    3.384 --     8 C    1.315    11 C    0.935    30 H    0.882
                             9 O    0.164
    11   6 C    3.941 --    12 C    0.993    31 H    0.976    32 H    0.968
                            10 N    0.935
    12   6 C    3.988 --    13 C    1.423    18 C    1.414    11 C    0.993
    13   6 C    3.993 --    14 C    1.439    12 C    1.423    33 H    0.970
                            17 C    0.110
    14   6 C    3.991 --    13 C    1.439    15 C    1.403    34 H    0.969
                            18 C    0.111
    15   6 C    3.861 --    14 C    1.403    17 C    1.397    16 F    0.927
    16   9 F    1.055 --    15 C    0.927
    17   6 C    3.992 --    18 C    1.448    15 C    1.397    35 H    0.969
                            13 C    0.110
    18   6 C    3.993 --    17 C    1.448    12 C    1.414    36 H    0.970
                            14 C    0.111
    19   7 N    3.047 --    20 C    1.553     7 C    1.181
    20   6 C    3.932 --    19 N    1.553     2 N    1.180    21 C    1.027
    21   6 C    3.990 --    20 C    1.027    39 H    0.983    37 H    0.964
                            38 H    0.963
    22   6 C    3.869 --    25 N    1.671    24 C    1.062    23 C    1.058
    23   6 C    3.983 --    22 C    1.058    40 H    0.982    42 H    0.944
                            41 H    0.938
    24   6 C    3.985 --    22 C    1.062    43 H    0.979    45 H    0.945
                            44 H    0.944
    25   7 N    3.522 --    22 C    1.671    46 H    0.881    47 H    0.815
    26   1 H    0.998 --     1 C    0.978
    27   1 H    1.005 --     1 C    0.975
    28   1 H    0.998 --     1 C    0.979
    29   1 H    0.839 --     6 O    0.796
    30   1 H    0.940 --    10 N    0.882
    31   1 H    1.002 --    11 C    0.976
    32   1 H    1.009 --    11 C    0.968
    33   1 H    0.999 --    13 C    0.970
    34   1 H    0.997 --    14 C    0.969
    35   1 H    0.998 --    17 C    0.969
    36   1 H    1.008 --    18 C    0.970
    37   1 H    0.996 --    21 C    0.964
    38   1 H    0.996 --    21 C    0.963
    39   1 H    1.009 --    21 C    0.983
    40   1 H    0.995 --    23 C    0.982
    41   1 H    1.000 --    23 C    0.938
    42   1 H    1.014 --    23 C    0.944
    43   1 H    0.991 --    24 C    0.979
    44   1 H    0.992 --    24 C    0.944
    45   1 H    0.991 --    24 C    0.945
    46   1 H    0.913 --    25 N    0.881
    47   1 H    0.943 --    25 N    0.815
 ---------------------------------------------------------------------------

           -------------------------------------------------
          | TOTAL ENERGY              -79.547098921469 Eh   |
          | GRADIENT NORM               0.000644709159 Eh/α |
          | HOMO-LUMO GAP               2.431773234357 eV   |
           -------------------------------------------------

 * finished run on 2023/06/20 at 15:22:52.913
