                         Program Version 5.0.1 -  RELEASE  -
|  1> # ORCA input file
|  2> ! SP r2SCAN-3c CPCM
|  3>
|  4> %maxcore 1875.0
|  5> %pal nprocs 4 end
|  6> %cpcm smd true SMDsolvent "DMSO" end
|  7>
|  8> *xyz 0 1
|  9> C       3.780439   -0.506277    2.159159
| 10> O       2.593407   -0.279016    1.396530
| 11> C       2.691703    0.596511    0.392534
| 12> O       3.721233    1.169228    0.117847
| 13> C       1.396286    0.773170   -0.325089
| 14> N       0.337924    0.034041    0.146329
| 15> C      -0.816898    0.149518   -0.419617
| 16> C      -1.992444   -0.686777    0.038132
| 17> C      -1.998500   -0.790017    1.568816
| 18> C      -1.850840   -2.077133   -0.597245
| 19> N      -3.212323   -0.062695   -0.463597
| 20> N      -1.031650    0.971322   -1.483888
| 21> C      -0.057846    1.753562   -2.043195
| 22> O      -0.255975    2.494811   -2.997710
| 23> C       1.243102    1.618784   -1.392135
| 24> O       2.230283    2.364638   -1.905758
| 25> H       4.585793   -0.858296    1.509537
| 26> H       4.093036    0.417773    2.652423
| 27> H       3.535148   -1.264177    2.900349
| 28> H      -1.058192   -1.219679    1.913797
| 29> H      -2.118009    0.198166    2.010762
| 30> H      -2.823231   -1.422156    1.891637
| 31> H      -2.658563   -2.722853   -0.256918
| 32> H      -0.897483   -2.520832   -0.311945
| 33> H      -1.896410   -1.996511   -1.682724
| 34> H      -3.476065    0.705092    0.138683
| 35> H      -3.967720   -0.732560   -0.450229
| 36> H      -1.975019    1.009041   -1.854927
| 37> H       1.878815    2.883322   -2.651560
| 38> **                         ****END OF INPUT****

CARTESIAN COORDINATES (ANGSTROEM)
---------------------------------
  C      3.780439   -0.506277    2.159159
  O      2.593407   -0.279016    1.396530
  C      2.691703    0.596511    0.392534
  O      3.721233    1.169228    0.117847
  C      1.396286    0.773170   -0.325089
  N      0.337924    0.034041    0.146329
  C     -0.816898    0.149518   -0.419617
  C     -1.992444   -0.686777    0.038132
  C     -1.998500   -0.790017    1.568816
  C     -1.850840   -2.077133   -0.597245
  N     -3.212323   -0.062695   -0.463597
  N     -1.031650    0.971322   -1.483888
  C     -0.057846    1.753562   -2.043195
  O     -0.255975    2.494811   -2.997710
  C      1.243102    1.618784   -1.392135
  O      2.230283    2.364638   -1.905758
  H      4.585793   -0.858296    1.509537
  H      4.093036    0.417773    2.652423
  H      3.535148   -1.264177    2.900349
  H     -1.058192   -1.219679    1.913797
  H     -2.118009    0.198166    2.010762
  H     -2.823231   -1.422156    1.891637
  H     -2.658563   -2.722853   -0.256918
  H     -0.897483   -2.520832   -0.311945
  H     -1.896410   -1.996511   -1.682724
  H     -3.476065    0.705092    0.138683
  H     -3.967720   -0.732560   -0.450229
  H     -1.975019    1.009041   -1.854927
  H      1.878815    2.883322   -2.651560

 Total Charge           Charge          ....    0
 Multiplicity           Mult            ....    1
 Number of Electrons    NEL             ....  120
 Basis Dimension        Dim             ....  404

ORBITAL ENERGIES
----------------

  NO   OCC          E(Eh)            E(eV)
   0   2.0000     -18.998302      -516.9701
   1   2.0000     -18.997114      -516.9377
   2   2.0000     -18.936703      -515.2939
   3   2.0000     -18.934544      -515.2351
   4   2.0000     -14.221741      -386.9932
   5   2.0000     -14.161214      -385.3462
   6   2.0000     -14.142229      -384.8296
   7   2.0000     -10.159600      -276.4568
   8   2.0000     -10.148481      -276.1542
   9   2.0000     -10.118854      -275.3480
  10   2.0000     -10.116958      -275.2964
  11   2.0000     -10.090476      -274.5758
  12   2.0000     -10.082316      -274.3538
  13   2.0000     -10.075083      -274.1569
  14   2.0000     -10.020842      -272.6810
  15   2.0000     -10.014482      -272.5079
  16   2.0000      -1.073771       -29.2188
  17   2.0000      -1.055464       -28.7206
  18   2.0000      -1.017324       -27.6828
  19   2.0000      -0.981406       -26.7054
  20   2.0000      -0.966342       -26.2955
  21   2.0000      -0.879990       -23.9457
  22   2.0000      -0.867046       -23.5935
  23   2.0000      -0.768340       -20.9076
  24   2.0000      -0.718382       -19.5482
  25   2.0000      -0.705816       -19.2062
  26   2.0000      -0.657490       -17.8912
  27   2.0000      -0.646443       -17.5906
  28   2.0000      -0.639978       -17.4147
  29   2.0000      -0.563607       -15.3365
  30   2.0000      -0.554277       -15.0826
  31   2.0000      -0.535852       -14.5813
  32   2.0000      -0.521510       -14.1910
  33   2.0000      -0.489716       -13.3258
  34   2.0000      -0.486326       -13.2336
  35   2.0000      -0.461833       -12.5671
  36   2.0000      -0.454427       -12.3656
  37   2.0000      -0.440576       -11.9887
  38   2.0000      -0.434446       -11.8219
  39   2.0000      -0.419548       -11.4165
  40   2.0000      -0.418151       -11.3785
  41   2.0000      -0.407917       -11.1000
  42   2.0000      -0.387116       -10.5340
  43   2.0000      -0.380775       -10.3614
  44   2.0000      -0.375510       -10.2182
  45   2.0000      -0.362264        -9.8577
  46   2.0000      -0.355191        -9.6652
  47   2.0000      -0.352272        -9.5858
  48   2.0000      -0.342511        -9.3202
  49   2.0000      -0.336947        -9.1688
  50   2.0000      -0.331215        -9.0128
  51   2.0000      -0.320220        -8.7136
  52   2.0000      -0.312247        -8.4967
  53   2.0000      -0.281921        -7.6715
  54   2.0000      -0.272556        -7.4166
  55   2.0000      -0.266274        -7.2457
  56   2.0000      -0.250142        -6.8067
  57   2.0000      -0.237731        -6.4690
  58   2.0000      -0.222667        -6.0591
  59   2.0000      -0.209037        -5.6882
  60   0.0000      -0.089176        -2.4266
  61   0.0000      -0.036301        -0.9878
  62   0.0000       0.016543         0.4502
  63   0.0000       0.049897         1.3578
  64   0.0000       0.065105         1.7716

MULLIKEN ATOMIC CHARGES
-----------------------
   0 C :   -0.308074
   1 O :   -0.179547
   2 C :    0.116346
   3 O :   -0.402832
   4 C :    0.176691
   5 N :   -0.197276
   6 C :    0.276360
   7 C :    0.163014
   8 C :   -0.550727
   9 C :   -0.578827
  10 N :   -0.689472
  11 N :   -0.023664
  12 C :    0.087045
  13 O :   -0.447077
  14 C :    0.041708
  15 O :   -0.349760
  16 H :    0.174575
  17 H :    0.174913
  18 H :    0.174723
  19 H :    0.174633
  20 H :    0.171952
  21 H :    0.178464
  22 H :    0.181334
  23 H :    0.186974
  24 H :    0.179398
  25 H :    0.291756
  26 H :    0.298767
  27 H :    0.321256
  28 H :    0.357345
Sum of atomic charges:   -0.0000000

LOEWDIN ATOMIC CHARGES
----------------------
   0 C :   -0.038648
   1 O :   -0.578370
   2 C :    0.397959
   3 O :   -0.416239
   4 C :    0.206537
   5 N :   -0.560224
   6 C :    0.353559
   7 C :    0.059146
   8 C :   -0.368412
   9 C :   -0.350944
  10 N :   -0.682145
  11 N :   -0.450112
  12 C :    0.366165
  13 O :   -0.476241
  14 C :    0.275387
  15 O :   -0.439952
  16 H :    0.181363
  17 H :    0.180983
  18 H :    0.184838
  19 H :    0.171414
  20 H :    0.168217
  21 H :    0.165604
  22 H :    0.169090
  23 H :    0.172552
  24 H :    0.171409
  25 H :    0.255576
  26 H :    0.259116
  27 H :    0.313499
  28 H :    0.308875

  Mayer bond orders larger than 0.100000
B(  0-C ,  1-O ) :   0.8345 B(  0-C , 16-H ) :   0.9571 B(  0-C , 17-H ) :   0.9559
B(  0-C , 18-H ) :   0.9638 B(  1-O ,  2-C ) :   1.1352 B(  2-C ,  3-O ) :   1.9034
B(  2-C ,  4-C ) :   0.9858 B(  4-C ,  5-N ) :   1.0286 B(  4-C , 14-C ) :   1.4676
B(  5-N ,  6-C ) :   1.5655 B(  6-C ,  7-C ) :   0.8660 B(  6-C , 11-N ) :   1.1538
B(  7-C ,  8-C ) :   0.9656 B(  7-C ,  9-C ) :   0.9138 B(  7-C , 10-N ) :   0.9210
B(  8-C , 19-H ) :   0.9685 B(  8-C , 20-H ) :   0.9663 B(  8-C , 21-H ) :   0.9699
B(  9-C , 22-H ) :   0.9587 B(  9-C , 23-H ) :   0.9725 B(  9-C , 24-H ) :   0.9631
B( 10-N , 25-H ) :   0.9081 B( 10-N , 26-H ) :   0.9067 B( 11-N , 12-C ) :   1.0932
B( 11-N , 27-H ) :   0.8501 B( 12-C , 13-O ) :   1.9944 B( 12-C , 14-C ) :   0.9484
B( 14-C , 15-O ) :   1.0866 B( 15-O , 28-H ) :   0.8235

Dispersion correction           -0.011363293
FINAL SINGLE POINT ENERGY      -815.855878975000

DIPOLE MOMENT
-------------
                                X             Y             Z
Electronic contribution:      9.25452      11.31058      -8.54386
Nuclear contribution   :    -11.64991     -12.77938       9.76587
                        -----------------------------------------
Total Dipole Moment    :     -2.39539      -1.46880       1.22201
                        -----------------------------------------
Magnitude (a.u.)       :      3.06408
Magnitude (Debye)      :      7.78828

Rotational constants in cm-1:     0.022829     0.013941     0.009188
Rotational constants in MHz :   684.387214   417.936722   275.453233

                             ****ORCA TERMINATED NORMALLY****
TOTAL RUN TIME: 0 days 0 hours 0 minutes 55 seconds 123 msec
