   * xtb version 6.5.1 (579679a) compiled by 'ehlert@majestix' on 2022-07-11
          program call               : /lustre/hpc/kemi/ree/PhD/git/ReactivityQM/dep/xtb-6.5.1/bin/xtb --gfn 1 /lustre/hpc/kemi/ree/PhD/git/ReactivityQM/calculations/R01/reac02/conf13/R01_reac02_conf13_gfn1.xyz --opt --vfukui --chrg 0 --uhf 0 --alpb DMSO

   ID    Z sym.   atoms
    1    6 C      1, 3, 5, 7-10, 13, 15
    2    8 O      2, 4, 14, 16
    3    7 N      6, 11, 12
    4    1 H      17-29

      * Solvation model:               ALPB
        Solvent                        DMSO
        Solvent mass                       7.8130E+01 g/mol
          :  Hamiltonian                  GFN1-xTB          :
 * total energy  :   -54.5093245 Eh     change       -0.5883294E-11 Eh
 * total energy  :   -54.5148905 Eh     change       -0.5565969E-02 Eh
 * total energy  :   -54.5164339 Eh     change       -0.1543471E-02 Eh
 * total energy  :   -54.5167831 Eh     change       -0.3492000E-03 Eh
 * total energy  :   -54.5170500 Eh     change       -0.2668375E-03 Eh
 * total energy  :   -54.5171525 Eh     change       -0.1025769E-03 Eh
 * total energy  :   -54.5172304 Eh     change       -0.7784291E-04 Eh
 * total energy  :   -54.5172753 Eh     change       -0.4491321E-04 Eh
 * total energy  :   -54.5173032 Eh     change       -0.2789026E-04 Eh
 * total energy  :   -54.5173176 Eh     change       -0.1436167E-04 Eh
 * total energy  :   -54.5173258 Eh     change       -0.8208180E-05 Eh
 * total energy  :   -54.5173309 Eh     change       -0.5187913E-05 Eh
 * total energy  :   -54.5173367 Eh     change       -0.5733273E-05 Eh
 * total energy  :   -54.5173409 Eh     change       -0.4205792E-05 Eh
 * total energy  :   -54.5173449 Eh     change       -0.4042071E-05 Eh
 * total energy  :   -54.5173482 Eh     change       -0.3290304E-05 Eh
   *** GEOMETRY OPTIMIZATION CONVERGED AFTER 16 ITERATIONS ***

 final structure:
================
29
 xtb: 6.5.1 (579679a)
C            3.78043939694216       -0.50627701440722        2.15915926719220
O            2.59340675037434       -0.27901622025525        1.39652978056569
C            2.69170282268051        0.59651053687355        0.39253371428863
O            3.72123252078210        1.16922801553254        0.11784698397729
C            1.39628644528951        0.77317047705455       -0.32508869445395
N            0.33792415510132        0.03404135724029        0.14632938922036
C           -0.81689751800037        0.14951787448155       -0.41961686232763
C           -1.99244403091036       -0.68677705605506        0.03813219921748
C           -1.99850033035852       -0.79001681762903        1.56881634667719
C           -1.85083952650196       -2.07713291355554       -0.59724488146057
N           -3.21232319894993       -0.06269541469045       -0.46359728395008
N           -1.03164987605155        0.97132187609806       -1.48388784579050
C           -0.05784637252167        1.75356235963967       -2.04319455969624
O           -0.25597530214851        2.49481082547122       -2.99771022084650
C            1.24310171098177        1.61878381426220       -1.39213458788653
O            2.23028256601602        2.36463823825339       -1.90575787717014
H            4.58579343942179       -0.85829593683484        1.50953662758056
H            4.09303556133743        0.41777339215350        2.65242250740976
H            3.53514804326045       -1.26417731215336        2.90034948833185
H           -1.05819191361217       -1.21967850473153        1.91379730496622
H           -2.11800890515926        0.19816585200543        2.01076196259035
H           -2.82323111083359       -1.42215634869144        1.89163725231200
H           -2.65856320317007       -2.72285258116873       -0.25691789393817
H           -0.89748280843593       -2.52083229152243       -0.31194511921349
H           -1.89641016498196       -1.99651075585780       -1.68272441209241
H           -3.47606502931232        0.70509171925869        0.13868340557379
H           -3.96771973400458       -0.73256039579491       -0.45022928204540
H           -1.97501947058479        1.00904127709332       -1.85492657135144
H            1.87881508334583        2.88332194793050       -2.65156013768185

          :  Hamiltonian                  GFN1-xTB          :
         :: total energy             -54.517348220980 Eh    ::
         :: gradient norm              0.000505702875 Eh/a0 ::
         :: HOMO-LUMO gap              2.670008264425 eV    ::
         :: SCC energy               -55.044956806345 Eh    ::
         :: -> Gsolv                  -0.043169115223 Eh    ::
         :: repulsion energy           0.543482080273 Eh    ::

    * Orbital Energies and Occupations

         #    Occupation            Energy/Eh            Energy/eV
      -------------------------------------------------------------
         1        2.0000           -0.8376382             -22.7933
       ...           ...                  ...                  ...
        32        2.0000           -0.5177699             -14.0892
        33        2.0000           -0.5138700             -13.9831
        34        2.0000           -0.5132094             -13.9651
        35        2.0000           -0.5046841             -13.7332
        36        2.0000           -0.4976675             -13.5422
        37        2.0000           -0.4963990             -13.5077
        38        2.0000           -0.4884875             -13.2924
        39        2.0000           -0.4832641             -13.1503
        40        2.0000           -0.4822451             -13.1226
        41        2.0000           -0.4569624             -12.4346
        42        2.0000           -0.4463340             -12.1454
        43        2.0000           -0.4271585             -11.6236
        44        2.0000           -0.4188439             -11.3973 (HOMO)
        45                         -0.3207229              -8.7273 (LUMO)
        46                         -0.2785500              -7.5797
        47                         -0.2372332              -6.4554
        48                         -0.1548440              -4.2135
        49                         -0.1382412              -3.7617
        50                         -0.1259838              -3.4282
        51                         -0.1222280              -3.3260
        52                         -0.1033686              -2.8128
        53                         -0.0974172              -2.6509
        54                         -0.0911609              -2.4806
        55                         -0.0751160              -2.0440
       ...                                ...                  ...
        90                          0.7399401              20.1348
      -------------------------------------------------------------
                  HL-Gap            0.0981210 Eh            2.6700 eV

Wiberg/Mayer (AO) data.
largest (>0.10) Wiberg bond orders for each atom

     #   Z sym  total        # sym  WBO       # sym  WBO       # sym  WBO
 ---------------------------------------------------------------------------
     1   6 C    3.874 --    19 H    0.986    17 H    0.980    18 H    0.979
                             2 O    0.900
     2   8 O    2.198 --     3 C    1.107     1 C    0.900     4 O    0.133
     3   6 C    3.850 --     4 O    1.658     2 O    1.107     5 C    1.002
     4   8 O    1.923 --     3 C    1.658     2 O    0.133
     5   6 C    3.966 --    15 C    1.502     6 N    1.182     3 C    1.002
     6   7 N    3.018 --     7 C    1.578     5 C    1.182
     7   6 C    3.922 --     6 N    1.578    12 N    1.176     8 C    0.979
     8   6 C    3.966 --    11 N    0.988     9 C    0.985     7 C    0.979
                            10 C    0.978
     9   6 C    3.994 --    22 H    0.986     8 C    0.985    21 H    0.985
                            20 H    0.983
    10   6 C    3.993 --    25 H    0.986    24 H    0.986    23 H    0.983
                             8 C    0.978
    11   7 N    2.981 --     8 C    0.988    26 H    0.940    27 H    0.937
    12   7 N    3.478 --     7 C    1.176    13 C    1.150    28 H    0.866
                            14 O    0.134
    13   6 C    3.913 --    14 O    1.563    12 N    1.150    15 C    1.066
    14   8 O    1.889 --    13 C    1.563    12 N    0.134
    15   6 C    3.919 --     5 C    1.502    16 O    1.103    13 C    1.066
    16   8 O    2.082 --    15 C    1.103    29 H    0.811
    17   1 H    1.008 --     1 C    0.980
    18   1 H    1.007 --     1 C    0.979
    19   1 H    1.011 --     1 C    0.986
    20   1 H    1.010 --     9 C    0.983
    21   1 H    1.003 --     9 C    0.985
    22   1 H    1.002 --     9 C    0.986
    23   1 H    1.000 --    10 C    0.983
    24   1 H    1.004 --    10 C    0.986
    25   1 H    1.003 --    10 C    0.986
    26   1 H    0.953 --    11 N    0.940
    27   1 H    0.951 --    11 N    0.937
    28   1 H    0.947 --    12 N    0.866
    29   1 H    0.849 --    16 O    0.811
 ---------------------------------------------------------------------------

           -------------------------------------------------
          | TOTAL ENERGY              -54.517348220980 Eh   |
          | GRADIENT NORM               0.000505702875 Eh/α |
          | HOMO-LUMO GAP               2.670008264425 eV   |
           -------------------------------------------------

 * finished run on 2023/06/20 at 14:51:57.932
