   * xtb version 6.5.1 (579679a) compiled by 'ehlert@majestix' on 2022-07-11
          program call               : /lustre/hpc/kemi/ree/PhD/git/ReactivityQM/dep/xtb-6.5.1/bin/xtb --gfn 1 /lustre/hpc/kemi/ree/PhD/git/ReactivityQM/calculations/R02/reac01prodE08/conf07/R02_reac01prodE08_conf07_gfn1.xyz --opt --vfukui --chrg -1 --uhf 0 --alpb DMSO

   ID    Z sym.   atoms
    1    6 C      1, 3, 5, 7-10, 12, 14, 15, 18, 19, 22, 24
    2    8 O      2, 4, 13, 20, 23, 25
    3    7 N      6, 11, 16, 17, 21
    4    1 H      26-43

      * Solvation model:               ALPB
        Solvent                        DMSO
        Solvent mass                       7.8130E+01 g/mol
          :  Hamiltonian                  GFN1-xTB          :
 * total energy  :   -83.8461081 Eh     change       -0.7439240E-09 Eh
 * total energy  :   -83.8574757 Eh     change       -0.1136758E-01 Eh
 * total energy  :   -83.8618971 Eh     change       -0.4421440E-02 Eh
 * total energy  :   -83.8626448 Eh     change       -0.7477183E-03 Eh
 * total energy  :   -83.8631301 Eh     change       -0.4852519E-03 Eh
 * total energy  :   -83.8633821 Eh     change       -0.2520728E-03 Eh
 * total energy  :   -83.8636054 Eh     change       -0.2232514E-03 Eh
 * total energy  :   -83.8638089 Eh     change       -0.2035626E-03 Eh
 * total energy  :   -83.8640699 Eh     change       -0.2609182E-03 Eh
 * total energy  :   -83.8643364 Eh     change       -0.2665159E-03 Eh
 * total energy  :   -83.8690494 Eh     change       -0.1486472E-04 Eh
 * total energy  :   -83.8690682 Eh     change       -0.1886202E-04 Eh
 * total energy  :   -83.8690949 Eh     change       -0.2668568E-04 Eh
 * total energy  :   -83.8691359 Eh     change       -0.4097104E-04 Eh
 * total energy  :   -83.8691685 Eh     change       -0.3257343E-04 Eh
 * total energy  :   -83.8691886 Eh     change       -0.2016026E-04 Eh
 * total energy  :   -83.8692027 Eh     change       -0.1411554E-04 Eh
 * total energy  :   -83.8692126 Eh     change       -0.9829236E-05 Eh
 * total energy  :   -83.8692172 Eh     change       -0.4629477E-05 Eh
   *** GEOMETRY OPTIMIZATION CONVERGED AFTER 94 ITERATIONS ***

 final structure:
================
43
 xtb: 6.5.1 (579679a)
C           -6.70282631270664        0.45378605111650       -0.11125697848348
O           -5.44382681684784        0.09729596326532        0.44854112746025
C           -4.40471498754252        0.04168665980456       -0.41556424230470
O           -4.54498147465687        0.29099602525475       -1.60433980980317
C           -3.13329731864573       -0.33722675422062        0.20688493552712
N           -2.06813691514851       -0.37937671847468       -0.67144796317843
C           -0.89550342337592       -0.68986306975137       -0.24595073374387
C            0.27660186060158       -0.79091122724824       -1.20435514127547
C           -0.04421264367535       -0.06445608259370       -2.51453397340204
C            0.56769971249864       -2.27297667107151       -1.46492892988830
N            1.45847113432197       -0.20766557036940       -0.57423161903248
C            1.45973222414822        1.03827238042935       -0.05148612095633
O            0.48649262613725        1.78199401187121       -0.08965840664628
C            2.81013787364933        1.48794715010980        0.54708864103301
C            2.56450658286956        2.16212671822815        1.90664878076107
N            3.43054539645099        2.41187001181578       -0.40150258403031
N            4.61375185868554        1.85508978428237       -0.74733015906885
C            4.76939348817707        0.73208609057573       -0.14235202007916
C            5.92916784017786       -0.19200925903500       -0.22464941303203
O            3.70186387449621        0.38825917182504        0.67716822673489
N           -0.63905111972359       -1.00119258646607        1.06340376849741
C           -1.62635873792247       -1.00297938517661        2.03257263167606
O           -1.38452222475832       -1.29492536272719        3.20745358800335
C           -2.93035649607114       -0.64145118917237        1.54663495560062
O           -3.91974006480412       -0.63342269993627        2.47374667729066
H           -6.66051168450135        1.45654776516190       -0.54709341467086
H           -6.99360472193840       -0.25949691961546       -0.88804888547842
H           -7.42727353237128        0.43276096203774        0.70129705015717
H           -0.91697989308235       -0.52281468432064       -2.97747844328773
H            0.80240201077481       -0.13848648919146       -3.19442713068238
H           -0.26098687010582        0.98562051585353       -2.31897597839238
H           -0.30634358253805       -2.74963752485758       -1.90604173916777
H            1.40802739326256       -2.37414518571124       -2.14936608768068
H            0.81048546845267       -2.77945495368867       -0.53252267967873
H            2.26663971014211       -0.79480122904165       -0.44976135122834
H            2.17378256125305        1.43594110190031        2.61662153220597
H            1.84722346956165        2.97090777405263        1.77853099852435
H            3.50253656511589        2.56395107025686        2.28284958354880
H            6.31864174417160       -0.40530655976350        0.77197358091156
H            5.63938927805918       -1.14119461072577       -0.67879096949998
H            6.71269977708285        0.26386834821587       -0.82672317412334
H            0.29079137493549       -1.26834983169607        1.34616968500004
H           -3.53775800460660       -0.90886399117847        3.32523318587192

          :  Hamiltonian                  GFN1-xTB          :
         :: total energy             -83.869217185006 Eh    ::
         :: gradient norm              0.000286320395 Eh/a0 ::
         :: HOMO-LUMO gap              0.082018831525 eV    ::
         :: SCC energy               -84.627659251731 Eh    ::
         :: -> Gsolv                  -0.120125192094 Eh    ::
         :: repulsion energy           0.785742083130 Eh    ::

    * Orbital Energies and Occupations

         #    Occupation            Energy/Eh            Energy/eV
      -------------------------------------------------------------
         1        2.0000           -0.8143078             -22.1584
       ...           ...                  ...                  ...
        56        2.0000           -0.4782890             -13.0149
        57        2.0000           -0.4741458             -12.9022
        58        2.0000           -0.4600788             -12.5194
        59        2.0000           -0.4591190             -12.4933
        60        2.0000           -0.4394045             -11.9568
        61        2.0000           -0.4344476             -11.8219
        62        2.0000           -0.4298429             -11.6966
        63        2.0000           -0.4264700             -11.6048
        64        2.0000           -0.4221545             -11.4874
        65        2.0000           -0.4105084             -11.1705
        66        2.0000           -0.4054430             -11.0327
        67        2.0000           -0.3823360             -10.4039
        68        1.6602           -0.3076710              -8.3722 (HOMO)
        69        0.3398           -0.3046568              -8.2901 (LUMO)
        70                         -0.2574483              -7.0055
        71                         -0.2288875              -6.2283
        72                         -0.2149860              -5.8501
        73                         -0.1917201              -5.2170
        74                         -0.1323542              -3.6015
        75                         -0.1294796              -3.5233
        76                         -0.1252571              -3.4084
        77                         -0.1180564              -3.2125
        78                         -0.1152309              -3.1356
        79                         -0.1030672              -2.8046
       ...                                ...                  ...
       136                          0.7097646              19.3137
      -------------------------------------------------------------
                  HL-Gap            0.0030141 Eh            0.0820 eV

Wiberg/Mayer (AO) data.
largest (>0.10) Wiberg bond orders for each atom

     #   Z sym  total        # sym  WBO       # sym  WBO       # sym  WBO
 ---------------------------------------------------------------------------
     1   6 C    3.889 --    28 H    0.987    26 H    0.980    27 H    0.980
                             2 O    0.916
     2   8 O    2.149 --     3 C    1.058     1 C    0.916     4 O    0.115
     3   6 C    3.780 --     4 O    1.587     5 C    1.068     2 O    1.058
     4   8 O    1.821 --     3 C    1.587     2 O    0.115
     5   6 C    3.862 --    24 C    1.397     6 N    1.156     3 C    1.068
     6   7 N    3.015 --     7 C    1.610     5 C    1.156
     7   6 C    3.908 --     6 N    1.610    21 N    1.145     8 C    0.973
     8   6 C    3.947 --     9 C    0.993    10 C    0.985     7 C    0.973
                            11 N    0.933
     9   6 C    3.993 --     8 C    0.993    30 H    0.987    29 H    0.985
                            31 H    0.981
    10   6 C    3.991 --     8 C    0.985    32 H    0.985    34 H    0.984
                            33 H    0.983
    11   7 N    3.322 --    12 C    1.248     8 C    0.933    35 H    0.896
                            13 O    0.156
    12   6 C    3.857 --    13 O    1.586    11 N    1.248    14 C    0.913
    13   8 O    1.868 --    12 C    1.586    11 N    0.156
    14   6 C    3.891 --    16 N    0.989    15 C    0.966    20 O    0.916
                            12 C    0.913
    15   6 C    3.972 --    36 H    0.987    38 H    0.986    37 H    0.985
                            14 C    0.966
    16   7 N    2.451 --    17 N    1.219    14 C    0.989    18 C    0.111
    17   7 N    3.002 --    18 C    1.625    16 N    1.219
    18   6 C    3.751 --    17 N    1.625    19 C    1.023    20 O    0.963
                            16 N    0.111
    19   6 C    3.994 --    18 C    1.023    41 H    0.986    39 H    0.974
                            40 H    0.971
    20   8 O    2.077 --    18 C    0.963    14 C    0.916
    21   7 N    3.381 --     7 C    1.145    22 C    1.096    42 H    0.892
                            23 O    0.114
    22   6 C    3.858 --    23 O    1.513    24 C    1.135    21 N    1.096
    23   8 O    1.812 --    22 C    1.513    21 N    0.114
    24   6 C    3.794 --     5 C    1.397    22 C    1.135    25 O    1.063
    25   8 O    2.020 --    24 C    1.063    43 H    0.822
    26   1 H    1.011 --     1 C    0.980
    27   1 H    1.011 --     1 C    0.980
    28   1 H    1.014 --     1 C    0.987
    29   1 H    1.013 --     9 C    0.985
    30   1 H    1.004 --     9 C    0.987
    31   1 H    1.016 --     9 C    0.981
    32   1 H    1.002 --    10 C    0.985
    33   1 H    0.999 --    10 C    0.983
    34   1 H    1.000 --    10 C    0.984
    35   1 H    0.949 --    11 N    0.896
    36   1 H    1.006 --    15 C    0.987
    37   1 H    1.014 --    15 C    0.985
    38   1 H    1.011 --    15 C    0.986
    39   1 H    1.001 --    19 C    0.974
    40   1 H    1.000 --    19 C    0.971
    41   1 H    1.006 --    19 C    0.986
    42   1 H    0.941 --    21 N    0.892
    43   1 H    0.863 --    25 O    0.822
 ---------------------------------------------------------------------------

           -------------------------------------------------
          | TOTAL ENERGY              -83.869217185006 Eh   |
          | GRADIENT NORM               0.000286320395 Eh/α |
          | HOMO-LUMO GAP               0.082018831525 eV   |
           -------------------------------------------------

 * finished run on 2023/06/20 at 15:06:44.852
