   * xtb version 6.5.1 (579679a) compiled by 'ehlert@majestix' on 2022-07-11
          program call               : /lustre/hpc/kemi/ree/PhD/git/ReactivityQM/dep/xtb-6.5.1/bin/xtb --gfn 1 /lustre/hpc/kemi/ree/PhD/git/ReactivityQM/calculations/R03/reac01prodN01/conf05/R03_reac01prodN01_conf05_gfn1.xyz --opt --vfukui --chrg 1 --uhf 0 --alpb DMSO

   ID    Z sym.   atoms
    1    6 C      1, 3-7, 9, 10
    2    7 N      2
    3    9 F      8
    4    1 H      11-21

      * Solvation model:               ALPB
        Solvent                        DMSO
        Solvent mass                       7.8130E+01 g/mol
          :  Hamiltonian                  GFN1-xTB          :
 * total energy  :   -30.8260437 Eh     change       -0.2359002E-11 Eh
 * total energy  :   -30.8298376 Eh     change       -0.3793909E-02 Eh
 * total energy  :   -30.8304448 Eh     change       -0.6071797E-03 Eh
 * total energy  :   -30.8305087 Eh     change       -0.6393088E-04 Eh
 * total energy  :   -30.8305340 Eh     change       -0.2530748E-04 Eh
 * total energy  :   -30.8305435 Eh     change       -0.9511111E-05 Eh
 * total energy  :   -30.8305520 Eh     change       -0.8438248E-05 Eh
 * total energy  :   -30.8305566 Eh     change       -0.4610328E-05 Eh
   *** GEOMETRY OPTIMIZATION CONVERGED AFTER 8 ITERATIONS ***

 final structure:
================
21
 xtb: 6.5.1 (579679a)
C           -2.27679556929949        0.32991696727245        0.92428064441002
N           -2.03956715982048       -0.72235225350211       -0.09212769123959
C           -1.07801354572257       -0.30542477593304       -1.16465007623880
C            0.28966103382302       -0.06568400627730       -0.58227939181923
C            1.08314802735000       -1.15084380178054       -0.21044053243221
C            2.34472866794487       -0.94657806526377        0.32704459804290
C            2.79137930905613        0.35527486435885        0.47804401714017
F            4.00763514493526        0.55992167332031        0.99122493165984
C            2.02895038557436        1.45287876695047        0.11827401391843
C            0.76717436722829        1.23301708557610       -0.41491706905962
H           -2.68525736469106        1.20600079551222        0.42659906040483
H           -1.32967381850003        0.56955564859254        1.40146969700190
H           -2.98406498261144       -0.06056081928389        1.65164451858460
H           -1.68650458454281       -1.55927944664296        0.36618624973173
H           -2.92307000889527       -0.96159027557177       -0.53142308922648
H           -1.48793393327392        0.59304949555483       -1.62730244121163
H           -1.06604584799393       -1.12030022854791       -1.89079376628092
H            0.71038351316862       -2.15881371064361       -0.34324178347081
H            2.97037108218296       -1.77907648765081        0.62194645362451
H            2.41308823226052        2.45563549160070        0.25417563241291
H            0.15040705182700        2.07525208235917       -0.70371397595257

          :  Hamiltonian                  GFN1-xTB          :
         :: total energy             -30.830556564386 Eh    ::
         :: gradient norm              0.000404470691 Eh/a0 ::
         :: HOMO-LUMO gap              4.522854177118 eV    ::
         :: SCC energy               -31.241611045757 Eh    ::
         :: -> Gsolv                  -0.102364925288 Eh    ::
         :: repulsion energy           0.421316736924 Eh    ::

    * Orbital Energies and Occupations

         #    Occupation            Energy/Eh            Energy/eV
      -------------------------------------------------------------
         1        2.0000           -0.8854114             -24.0933
       ...           ...                  ...                  ...
        15        2.0000           -0.5961040             -16.2208
        16        2.0000           -0.5818462             -15.8328
        17        2.0000           -0.5659323             -15.3998
        18        2.0000           -0.5643556             -15.3569
        19        2.0000           -0.5612834             -15.2733
        20        2.0000           -0.5585349             -15.1985
        21        2.0000           -0.5543792             -15.0854
        22        2.0000           -0.5353159             -14.5667
        23        2.0000           -0.5312847             -14.4570
        24        2.0000           -0.5182672             -14.1028
        25        2.0000           -0.4925341             -13.4025
        26        2.0000           -0.4715170             -12.8306
        27        2.0000           -0.4597798             -12.5112 (HOMO)
        28                         -0.2935680              -7.9884 (LUMO)
        29                         -0.2917848              -7.9399
        30                         -0.1832534              -4.9866
        31                         -0.1729924              -4.7074
        32                         -0.1689273              -4.5967
        33                         -0.1612334              -4.3874
        34                         -0.1384518              -3.7675
        35                         -0.1215969              -3.3088
        36                         -0.1122082              -3.0533
        37                         -0.1058126              -2.8793
        38                         -0.0990125              -2.6943
       ...                                ...                  ...
        62                          0.6264608              17.0469
      -------------------------------------------------------------
                  HL-Gap            0.1662118 Eh            4.5229 eV

Wiberg/Mayer (AO) data.
largest (>0.10) Wiberg bond orders for each atom

     #   Z sym  total        # sym  WBO       # sym  WBO       # sym  WBO
 ---------------------------------------------------------------------------
     1   6 C    3.898 --    11 H    0.984    12 H    0.983    13 H    0.981
                             2 N    0.922
     2   7 N    3.605 --     1 C    0.922     3 C    0.895    14 H    0.893
                            15 H    0.888
     3   6 C    3.902 --     4 C    1.008    16 H    0.975    17 H    0.968
                             2 N    0.895
     4   6 C    3.984 --    10 C    1.414     5 C    1.411     3 C    1.008
     5   6 C    3.993 --     6 C    1.450     4 C    1.411    18 H    0.969
                             9 C    0.109
     6   6 C    3.991 --     5 C    1.450     7 C    1.394    19 H    0.967
                            10 C    0.108
     7   6 C    3.866 --     9 C    1.398     6 C    1.394     8 F    0.941
     8   9 F    1.074 --     7 C    0.941
     9   6 C    3.991 --    10 C    1.444     7 C    1.398    20 H    0.967
                             5 C    0.109
    10   6 C    3.993 --     9 C    1.444     4 C    1.414    21 H    0.969
                             6 C    0.108
    11   1 H    0.991 --     1 C    0.984
    12   1 H    0.999 --     1 C    0.983
    13   1 H    0.989 --     1 C    0.981
    14   1 H    0.921 --     2 N    0.893
    15   1 H    0.909 --     2 N    0.888
    16   1 H    0.994 --     3 C    0.975
    17   1 H    0.993 --     3 C    0.968
    18   1 H    0.995 --     5 C    0.969
    19   1 H    0.995 --     6 C    0.967
    20   1 H    0.995 --     9 C    0.967
    21   1 H    0.997 --    10 C    0.969
 ---------------------------------------------------------------------------

           -------------------------------------------------
          | TOTAL ENERGY              -30.830556564386 Eh   |
          | GRADIENT NORM               0.000404470691 Eh/α |
          | HOMO-LUMO GAP               4.522854177118 eV   |
           -------------------------------------------------

 * finished run on 2023/06/20 at 15:13:51.324
