   * xtb version 6.5.1 (579679a) compiled by 'ehlert@majestix' on 2022-07-11
          program call               : /lustre/hpc/kemi/ree/PhD/git/ReactivityQM/dep/xtb-6.5.1/bin/xtb --gfn 1 /lustre/hpc/kemi/ree/PhD/git/ReactivityQM/calculations/R02deprot/reac01prodN10/conf06/R02deprot_reac01prodN10_conf06_gfn1.xyz --opt --vfukui --chrg 0 --uhf 0 --alpb DMSO

   ID    Z sym.   atoms
    1    6 C      1, 3, 5, 6, 8-11, 13, 15, 18, 19, 22, 24
    2    8 O      2, 4, 14, 20, 23, 25
    3    7 N      7, 12, 16, 17, 21
    4    1 H      26-42

      * Solvation model:               ALPB
        Solvent                        DMSO
        Solvent mass                       7.8130E+01 g/mol
          :  Hamiltonian                  GFN1-xTB          :
 * total energy  :   -82.9311390 Eh     change       -0.1475087E-10 Eh
 * total energy  :   -82.9451595 Eh     change       -0.1402055E-01 Eh
 * total energy  :   -82.9509099 Eh     change       -0.5750350E-02 Eh
 * total energy  :   -82.9521841 Eh     change       -0.1274197E-02 Eh
 * total energy  :   -82.9528709 Eh     change       -0.6868457E-03 Eh
 * total energy  :   -82.9531383 Eh     change       -0.2673467E-03 Eh
 * total energy  :   -82.9533178 Eh     change       -0.1794953E-03 Eh
 * total energy  :   -82.9534349 Eh     change       -0.1171346E-03 Eh
 * total energy  :   -82.9535246 Eh     change       -0.8974311E-04 Eh
 * total energy  :   -82.9536219 Eh     change       -0.9725863E-04 Eh
 * total energy  :   -82.9545455 Eh     change       -0.2359760E-04 Eh
 * total energy  :   -82.9545576 Eh     change       -0.1215283E-04 Eh
 * total energy  :   -82.9545698 Eh     change       -0.1215611E-04 Eh
 * total energy  :   -82.9545781 Eh     change       -0.8369184E-05 Eh
 * total energy  :   -82.9545897 Eh     change       -0.1150860E-04 Eh
 * total energy  :   -82.9545984 Eh     change       -0.8712937E-05 Eh
 * total energy  :   -82.9546160 Eh     change       -0.1766696E-04 Eh
 * total energy  :   -82.9546224 Eh     change       -0.6369829E-05 Eh
 * total energy  :   -82.9546270 Eh     change       -0.4564090E-05 Eh
   *** GEOMETRY OPTIMIZATION CONVERGED AFTER 37 ITERATIONS ***

 final structure:
================
42
 xtb: 6.5.1 (579679a)
C           -4.09318269142568       -2.03401444219995        2.20766002568814
O           -3.57463579242115       -1.75957568975078        0.89188648725037
C           -2.77591465629369       -0.73408004254085        0.76113007558015
O           -2.41804441643157        0.01386270019058        1.61967442401407
C           -2.31089405340987       -0.58613327594794       -0.75716649601990
C           -2.29560374625526       -1.95973865523410       -1.43370041656582
N           -1.00513019332693       -0.02029205694140       -0.70163917345444
C           -0.85796602029491        1.25978114033090       -0.84278438619985
C            0.53815608819124        1.84194970506219       -0.69906687896829
C            0.52608275116421        2.87337303221920        0.43839147428407
C            0.94567631278884        2.49177846994494       -2.02886619169494
N            1.44817287764473        0.74828335925803       -0.37363402296145
C            2.76400546776159        0.89931873825976       -0.15486365858266
O            3.38263057139856        1.94994927901675       -0.21528891249851
C            3.39885686865784       -0.40208787538692        0.19150492576935
N            2.79447661605654       -1.54692665591997        0.30196502299913
N            3.74315088977828       -2.45989057441661        0.65675730731601
C            4.86547694671892       -1.81266505298569        0.74085465785735
C            6.19595224582602       -2.35643658826000        1.09234846397176
O            4.71367964312312       -0.51001683427558        0.45879203752437
N           -1.80225248080126        2.19087288344594       -1.12474793377739
C           -3.05514367628545        1.80389773846288       -1.36249158883734
O           -4.01943748362429        2.49923036612890       -1.69311944435532
C           -3.32506506645407        0.34050124141059       -1.25131407891231
O           -4.52180320085501       -0.02668562712786       -1.53478200679923
H           -4.81465528823915       -1.26220319733514        2.47977078900383
H           -3.27618511775769       -2.05159239896331        2.93093582938492
H           -4.57596592586500       -3.00611752677155        2.14495423066660
H           -3.30551527689597       -2.35714646538885       -1.49641834846455
H           -1.66789027618218       -2.63925213006410       -0.86276600514888
H           -1.88628556794629       -1.84883118653438       -2.43549825913432
H           -0.22521186399046        3.63216189213994        0.22413649153437
H            1.50107360705122        3.34929717533486        0.52600346225490
H            0.28011212036648        2.38358682176471        1.37989988346338
H            0.20284847059328        3.23937339613880       -2.30373344636218
H            0.99565307415629        1.73570809885265       -2.81078654986707
H            1.91853590738715        2.97056608908190       -1.93170551726227
H            1.03603486229659       -0.17578322132625       -0.31303956176371
H            6.10069696950148       -3.40502377934723        1.36397986295045
H            6.62022364499995       -1.79772970413991        1.92631057838551
H            6.87318721285638       -2.26206631434801        0.24309307018580
H           -5.03790035356074        0.79079816815823       -1.77767822245334

          :  Hamiltonian                  GFN1-xTB          :
         :: total energy             -82.954626964595 Eh    ::
         :: gradient norm              0.000629850950 Eh/a0 ::
         :: HOMO-LUMO gap              1.235020169193 eV    ::
         :: SCC energy               -83.725810847552 Eh    ::
         :: -> Gsolv                  -0.053325129585 Eh    ::
         :: repulsion energy           0.797533288330 Eh    ::

    * Orbital Energies and Occupations

         #    Occupation            Energy/Eh            Energy/eV
      -------------------------------------------------------------
         1        2.0000           -0.8769406             -23.8628
       ...           ...                  ...                  ...
        55        2.0000           -0.5037961             -13.7090
        56        2.0000           -0.5001487             -13.6097
        57        2.0000           -0.4972972             -13.5321
        58        2.0000           -0.4873068             -13.2603
        59        2.0000           -0.4854160             -13.2088
        60        2.0000           -0.4805025             -13.0751
        61        2.0000           -0.4631871             -12.6040
        62        2.0000           -0.4572121             -12.4414
        63        2.0000           -0.4545529             -12.3690
        64        2.0000           -0.4481080             -12.1936
        65        2.0000           -0.4411803             -12.0051
        66        2.0000           -0.4335837             -11.7984
        67        2.0000           -0.4259592             -11.5909 (HOMO)
        68                         -0.3805730             -10.3559 (LUMO)
        69                         -0.3062755              -8.3342
        70                         -0.2954157              -8.0387
        71                         -0.2722535              -7.4084
        72                         -0.2555352              -6.9535
        73                         -0.1992492              -5.4218
        74                         -0.1942422              -5.2856
        75                         -0.1536467              -4.1809
        76                         -0.1422111              -3.8698
        77                         -0.1357499              -3.6939
        78                         -0.1202684              -3.2727
       ...                                ...                  ...
       134                          0.7310144              19.8919
      -------------------------------------------------------------
                  HL-Gap            0.0453862 Eh            1.2350 eV

Wiberg/Mayer (AO) data.
largest (>0.10) Wiberg bond orders for each atom

     #   Z sym  total        # sym  WBO       # sym  WBO       # sym  WBO
 ---------------------------------------------------------------------------
     1   6 C    3.840 --    28 H    0.983    27 H    0.980    26 H    0.978
                             2 O    0.860
     2   8 O    2.241 --     3 C    1.177     1 C    0.860     4 O    0.142
     3   6 C    3.851 --     4 O    1.726     2 O    1.177     5 C    0.773
     4   8 O    2.020 --     3 C    1.726     2 O    0.142
     5   6 C    3.968 --    24 C    1.057     7 N    1.022     6 C    0.954
                             3 C    0.773
     6   6 C    3.978 --    30 H    0.984    29 H    0.983    31 H    0.981
                             5 C    0.954
     7   7 N    3.019 --     8 C    1.594     5 C    1.022
     8   6 C    3.943 --     7 N    1.594    21 N    1.243     9 C    0.980
     9   6 C    3.936 --     8 C    0.980    10 C    0.979    11 C    0.979
                            12 N    0.930
    10   6 C    3.991 --    34 H    0.986    32 H    0.984    33 H    0.981
                             9 C    0.979
    11   6 C    3.990 --    36 H    0.986    35 H    0.984    37 H    0.981
                             9 C    0.979
    12   7 N    3.365 --    13 C    1.276     9 C    0.930    38 H    0.880
                            14 O    0.183
    13   6 C    3.921 --    14 O    1.579    12 N    1.276    15 C    0.985
    14   8 O    1.898 --    13 C    1.579    12 N    0.183
    15   6 C    3.873 --    16 N    1.614    20 O    1.063    13 C    0.985
    16   7 N    3.012 --    15 C    1.614    17 N    1.196
    17   7 N    2.980 --    18 C    1.609    16 N    1.196
    18   6 C    3.872 --    17 N    1.609    20 O    1.082    19 C    1.031
    19   6 C    3.987 --    18 C    1.031    39 H    0.983    40 H    0.966
                            41 H    0.962
    20   8 O    2.328 --    18 C    1.082    15 C    1.063
    21   7 N    3.010 --    22 C    1.313     8 C    1.243    23 O    0.163
                            24 C    0.113
    22   6 C    3.935 --    23 O    1.511    21 N    1.313    24 C    0.988
    23   8 O    1.884 --    22 C    1.511    21 N    0.163
    24   6 C    3.783 --    25 O    1.331     5 C    1.057    22 C    0.988
                            21 N    0.113
    25   8 O    2.253 --    24 C    1.331    42 H    0.745
    26   1 H    1.001 --     1 C    0.978
    27   1 H    1.002 --     1 C    0.980
    28   1 H    1.005 --     1 C    0.983
    29   1 H    1.003 --     6 C    0.983
    30   1 H    1.001 --     6 C    0.984
    31   1 H    0.999 --     6 C    0.981
    32   1 H    1.011 --    10 C    0.984
    33   1 H    1.010 --    10 C    0.981
    34   1 H    1.003 --    10 C    0.986
    35   1 H    1.009 --    11 C    0.984
    36   1 H    1.003 --    11 C    0.986
    37   1 H    1.009 --    11 C    0.981
    38   1 H    0.972 --    12 N    0.880
    39   1 H    0.999 --    19 C    0.983
    40   1 H    0.997 --    19 C    0.966
    41   1 H    0.997 --    19 C    0.962
    42   1 H    0.821 --    25 O    0.745
 ---------------------------------------------------------------------------

           -------------------------------------------------
          | TOTAL ENERGY              -82.954626964595 Eh   |
          | GRADIENT NORM               0.000629850950 Eh/α |
          | HOMO-LUMO GAP               1.235020169193 eV   |
           -------------------------------------------------

 * finished run on 2023/06/20 at 18:18:14.460
