   * xtb version 6.5.1 (579679a) compiled by 'ehlert@majestix' on 2022-07-11
          program call               : /lustre/hpc/kemi/ree/PhD/git/ReactivityQM/dep/xtb-6.5.1/bin/xtb --gfn 1 /lustre/hpc/kemi/ree/PhD/git/ReactivityQM/calculations/R02oxygendeprot/reac01prodE12/conf20/R02oxygendeprot_reac01prodE12_conf20_gfn1.xyz --opt --vfukui --chrg -2 --uhf 0 --alpb DMSO

   ID    Z sym.   atoms
    1    6 C      1, 3, 5, 6, 8, 9, 12-15, 17, 19, 22, 23
    2    8 O      2, 4, 7, 10, 18, 24
    3    7 N      11, 16, 20, 21, 25
    4    1 H      26-42

      * Solvation model:               ALPB
        Solvent                        DMSO
        Solvent mass                       7.8130E+01 g/mol
          :  Hamiltonian                  GFN1-xTB          :
 * total energy  :   -83.5988875 Eh     change       -0.2993232E-09 Eh
 * total energy  :   -83.6136949 Eh     change       -0.1480739E-01 Eh
 * total energy  :   -83.6196292 Eh     change       -0.5934351E-02 Eh
 * total energy  :   -83.6208469 Eh     change       -0.1217645E-02 Eh
 * total energy  :   -83.6217734 Eh     change       -0.9265696E-03 Eh
 * total energy  :   -83.6221948 Eh     change       -0.4213852E-03 Eh
 * total energy  :   -83.6225153 Eh     change       -0.3204944E-03 Eh
 * total energy  :   -83.6227405 Eh     change       -0.2252236E-03 Eh
 * total energy  :   -83.6229045 Eh     change       -0.1639396E-03 Eh
 * total energy  :   -83.6230570 Eh     change       -0.1525345E-03 Eh
 * total energy  :   -83.6475561 Eh     change       -0.3364186E-04 Eh
 * total energy  :   -83.6475841 Eh     change       -0.2794955E-04 Eh
 * total energy  :   -83.6476100 Eh     change       -0.2597930E-04 Eh
 * total energy  :   -83.6476074 Eh     change        0.2596876E-05 Eh
 * total energy  :   -83.6476225 Eh     change       -0.1505046E-04 Eh
 * total energy  :   -83.6476370 Eh     change       -0.1448080E-04 Eh
 * total energy  :   -83.6476480 Eh     change       -0.1106398E-04 Eh
 * total energy  :   -83.6476542 Eh     change       -0.6169258E-05 Eh
 * total energy  :   -83.6476578 Eh     change       -0.3629384E-05 Eh
   *** GEOMETRY OPTIMIZATION CONVERGED AFTER 69 ITERATIONS ***

 final structure:
================
42
 xtb: 6.5.1 (579679a)
C           -5.39289361793143       -2.45674732022813        1.33219747852686
O           -4.23037827613270       -1.82100541042010        0.83900932544327
C           -4.14830111231459       -0.45514200184903        1.08770182504261
O           -5.07225277231427        0.09746801811895        1.68755992774327
C           -2.95676573406643        0.13151171977893        0.56776583104040
C           -2.62698171316190        1.49193375582149        0.73902571824704
O           -3.31313551460846        2.37054963058488        1.29766157178768
C           -1.24496946732417        1.90218177344023        0.12987874285440
C           -1.23972990684426        3.39531255692559       -0.21406377936218
O           -0.17841983695940        1.61166765914220        1.02100722892753
N           -1.08433466413229        1.12341638759167       -1.09002104901402
C           -1.11931489090402       -0.25492240270171       -0.78188661462059
C            0.11853378737967       -1.03825634693407       -1.18716855003628
C            0.35667433300577       -0.96905993472675       -2.70429743665567
C           -0.02722010966554       -2.50195638175264       -0.74610062917674
N            1.16452958367198       -0.33600442417391       -0.42613243073852
C            2.39930048376867       -0.76562558139033       -0.51905278494168
O            2.88613962170336       -1.70328064593971       -1.18852206979101
C            3.30770198466716        0.05616143771341        0.36838264099750
N            2.95531066199478        0.97409094914394        1.21801979466993
N            4.10372986490788        1.43026698390058        1.81885641597102
C            5.07673491437099        0.75870046661173        1.29724302505021
C            6.52155061929812        0.87676053966675        1.60907238985548
O            4.65050095246445       -0.12504780225847        0.37955822359722
N           -2.01421052648136       -0.75091016711457       -0.02516950380784
H           -5.45662688019827       -2.37801191960362        2.42429390914562
H           -5.33191753781773       -3.50813653851859        1.04990895192778
H           -6.29958209421079       -2.01741769906466        0.89983818062932
H           -0.26520574196784        3.68062448572479       -0.60509726888425
H           -1.44804091224798        3.97560731884297        0.68437965336708
H           -2.00325134521514        3.60757107573708       -0.96051361518853
H           -0.21511254722747        1.37128368731260       -1.55219752903392
H            1.23387603077374       -1.55463002253066       -2.97693487434162
H           -0.50954778255408       -1.36949788209446       -3.23244161841248
H            0.51560047095974        0.05984731947697       -3.02507632998634
H           -0.16587199182696       -2.55811721711491        0.33468669078876
H           -0.89938871282299       -2.94343820691823       -1.23045005639926
H            0.85606314625869       -3.07571928310015       -1.02310065062874
H            0.44071776708769        0.95574901656895        0.56433417369591
H            6.66795688543934        1.63442035191035        2.37481059085596
H            7.07855605001152        1.15486200308215        0.71485768767839
H            6.90997853116549       -0.07706094865856        1.96469081317643

          :  Hamiltonian                  GFN1-xTB          :
         :: total energy             -83.647657841998 Eh    ::
         :: gradient norm              0.000424151358 Eh/a0 ::
         :: HOMO-LUMO gap              2.347708592250 eV    ::
         :: SCC energy               -84.373551547901 Eh    ::
         :: -> Gsolv                  -0.275652080256 Eh    ::
         :: repulsion energy           0.752360729024 Eh    ::

    * Orbital Energies and Occupations

         #    Occupation            Energy/Eh            Energy/eV
      -------------------------------------------------------------
         1        2.0000           -0.8203216             -22.3221
       ...           ...                  ...                  ...
        56        2.0000           -0.4393846             -11.9563
        57        2.0000           -0.4342683             -11.8170
        58        2.0000           -0.4256248             -11.5818
        59        2.0000           -0.4172113             -11.3529
        60        2.0000           -0.4135523             -11.2533
        61        2.0000           -0.4107858             -11.1780
        62        2.0000           -0.3982181             -10.8361
        63        2.0000           -0.3847698             -10.4701
        64        2.0000           -0.3771000             -10.2614
        65        2.0000           -0.3661034              -9.9622
        66        2.0000           -0.3530188              -9.6061
        67        2.0000           -0.3516115              -9.5678
        68        2.0000           -0.3303485              -8.9892 (HOMO)
        69                         -0.2440718              -6.6415 (LUMO)
        70                         -0.2200600              -5.9881
        71                         -0.2197434              -5.9795
        72                         -0.2025444              -5.5115
        73                         -0.1285317              -3.4975
        74                         -0.1281574              -3.4873
        75                         -0.1144255              -3.1137
        76                         -0.1043605              -2.8398
        77                         -0.0930156              -2.5311
        78                         -0.0880508              -2.3960
        79                         -0.0823045              -2.2396
       ...                                ...                  ...
       134                          0.7567317              20.5917
      -------------------------------------------------------------
                  HL-Gap            0.0862767 Eh            2.3477 eV

Wiberg/Mayer (AO) data.
largest (>0.10) Wiberg bond orders for each atom

     #   Z sym  total        # sym  WBO       # sym  WBO       # sym  WBO
 ---------------------------------------------------------------------------
     1   6 C    3.914 --    27 H    0.987    26 H    0.981    28 H    0.980
                             2 O    0.944
     2   8 O    2.104 --     3 C    0.976     1 C    0.944
     3   6 C    3.853 --     4 O    1.530     5 C    1.215     2 O    0.976
     4   8 O    1.826 --     3 C    1.530
     5   6 C    3.892 --     6 C    1.311     3 C    1.215    25 N    1.048
                             7 O    0.117
     6   6 C    3.922 --     7 O    1.524     5 C    1.311     8 C    0.907
     7   8 O    1.825 --     6 C    1.524     5 C    0.117
     8   6 C    3.891 --     9 C    0.988    10 O    0.950    11 N    0.945
                             6 C    0.907
     9   6 C    3.997 --    31 H    0.989     8 C    0.988    29 H    0.987
                            30 H    0.984
    10   8 O    1.876 --     8 C    0.950    39 H    0.787
    11   7 N    3.128 --    12 C    1.042     8 C    0.945    32 H    0.934
    12   6 C    3.937 --    25 N    1.738    11 N    1.042    13 C    0.970
    13   6 C    3.969 --    15 C    0.990    14 C    0.983    12 C    0.970
                            16 N    0.966
    14   6 C    3.994 --    34 H    0.988    13 C    0.983    35 H    0.983
                            33 H    0.982
    15   6 C    3.996 --    13 C    0.990    37 H    0.988    36 H    0.986
                            38 H    0.984
    16   7 N    3.005 --    17 C    1.481    13 C    0.966    18 O    0.223
                            39 H    0.132
    17   6 C    3.940 --    16 N    1.481    18 O    1.431    19 C    0.955
    18   8 O    1.782 --    17 C    1.431    16 N    0.223
    19   6 C    3.832 --    20 N    1.626    24 O    1.043    17 C    0.955
    20   7 N    2.985 --    19 C    1.626    21 N    1.168
    21   7 N    2.977 --    22 C    1.638    20 N    1.168
    22   6 C    3.886 --    21 N    1.638    24 O    1.076    23 C    1.025
    23   6 C    3.992 --    22 C    1.025    40 H    0.985    42 H    0.970
                            41 H    0.969
    24   8 O    2.302 --    22 C    1.076    19 C    1.043
    25   7 N    3.015 --    12 C    1.738     5 C    1.048
    26   1 H    1.018 --     1 C    0.981
    27   1 H    1.019 --     1 C    0.987
    28   1 H    1.019 --     1 C    0.980
    29   1 H    1.010 --     9 C    0.987
    30   1 H    1.019 --     9 C    0.984
    31   1 H    1.012 --     9 C    0.989
    32   1 H    0.980 --    11 N    0.934
    33   1 H    1.020 --    14 C    0.982
    34   1 H    1.008 --    14 C    0.988
    35   1 H    1.008 --    14 C    0.983
    36   1 H    1.020 --    15 C    0.986
    37   1 H    1.013 --    15 C    0.988
    38   1 H    1.020 --    15 C    0.984
    39   1 H    0.948 --    10 O    0.787    16 N    0.132
    40   1 H    1.003 --    23 C    0.985
    41   1 H    1.001 --    23 C    0.969
    42   1 H    1.001 --    23 C    0.970
 ---------------------------------------------------------------------------

           -------------------------------------------------
          | TOTAL ENERGY              -83.647657841998 Eh   |
          | GRADIENT NORM               0.000424151358 Eh/α |
          | HOMO-LUMO GAP               2.347708592250 eV   |
           -------------------------------------------------

 * finished run on 2023/06/21 at 17:14:22.900
