   * xtb version 6.5.1 (579679a) compiled by 'ehlert@majestix' on 2022-07-11
          program call               : /lustre/hpc/kemi/ree/PhD/git/ReactivityQM/dep/xtb-6.5.1/bin/xtb --gfn 1 /lustre/hpc/kemi/ree/PhD/git/ReactivityQM/calculations/R02oxygendeprot/reac01prodE05/conf19/R02oxygendeprot_reac01prodE05_conf19_gfn1.xyz --opt --vfukui --chrg -2 --uhf 0 --alpb DMSO

   ID    Z sym.   atoms
    1    6 C      1, 3, 5, 6, 8, 11-14, 16, 18, 21, 22, 25
    2    8 O      2, 4, 7, 9, 17, 23
    3    7 N      10, 15, 19, 20, 24
    4    1 H      26-42

      * Solvation model:               ALPB
        Solvent                        DMSO
        Solvent mass                       7.8130E+01 g/mol
          :  Hamiltonian                  GFN1-xTB          :
 * total energy  :   -83.5512491 Eh     change       -0.9158754E-09 Eh
 * total energy  :   -83.5642670 Eh     change       -0.1301790E-01 Eh
 * total energy  :   -83.5701378 Eh     change       -0.5870760E-02 Eh
 * total energy  :   -83.5718504 Eh     change       -0.1712630E-02 Eh
 * total energy  :   -83.5730867 Eh     change       -0.1236245E-02 Eh
 * total energy  :   -83.5737985 Eh     change       -0.7118224E-03 Eh
 * total energy  :   -83.5744235 Eh     change       -0.6249986E-03 Eh
 * total energy  :   -83.5750723 Eh     change       -0.6488455E-03 Eh
 * total energy  :   -83.5757387 Eh     change       -0.6663425E-03 Eh
 * total energy  :   -83.5764037 Eh     change       -0.6650331E-03 Eh
 * total energy  :   -83.5872100 Eh     change       -0.1158942E-04 Eh
 * total energy  :   -83.5872179 Eh     change       -0.7898819E-05 Eh
 * total energy  :   -83.5872244 Eh     change       -0.6545713E-05 Eh
 * total energy  :   -83.5872317 Eh     change       -0.7292114E-05 Eh
 * total energy  :   -83.5872405 Eh     change       -0.8794707E-05 Eh
 * total energy  :   -83.5872488 Eh     change       -0.8253288E-05 Eh
 * total energy  :   -83.5872564 Eh     change       -0.7622036E-05 Eh
 * total energy  :   -83.5872629 Eh     change       -0.6548555E-05 Eh
 * total energy  :   -83.5872675 Eh     change       -0.4596211E-05 Eh
   *** GEOMETRY OPTIMIZATION CONVERGED AFTER 60 ITERATIONS ***

 final structure:
================
42
 xtb: 6.5.1 (579679a)
C            4.88426102594641        0.91624916023640       -2.40916809961981
O            3.90495516569634        0.34359395234793       -1.56681277535316
C            4.08153135824305        0.58595553311711       -0.19984028148737
O            5.04721458056388        1.26690548182970        0.15567413215715
C            3.08100299720503       -0.02795184271601        0.60162486813472
C            3.02302715605234        0.09356553545490        2.00778867477551
O            3.80645487481576        0.75469392992533        2.73010292750768
C            1.83604101079766       -0.59696310280399        2.66679817241413
O            1.81285648039922       -0.92917083853254        3.87106574786612
N            0.75144037075207       -0.76190584456919        1.88433287240981
C            0.75205053103803       -0.79462526825149        0.44189572234783
C           -0.07907062945921        0.34676713614555       -0.16561332839415
C            0.24181748094194        1.74550970411297        0.40427586833398
C            0.09762616366599        0.33879223377200       -1.69110190798622
N           -1.48585457833463        0.01266415306645        0.16010324737880
C           -2.56943231427939        0.70587239043030       -0.24683925134501
O           -2.55171974110027        1.80228100982089       -0.81423834182294
C           -3.81871196503345        0.00451294694741        0.09709971635953
N           -3.92026745153267       -1.15656062773713        0.69979571269690
N           -5.25625500678378       -1.42036492640072        0.82251409345201
C           -5.88467158929297       -0.41872176864235        0.29528621346344
C           -7.35069069270127       -0.23612168082417        0.18379469595947
O           -5.04604615713298        0.51957147081170       -0.18358344214287
N            2.09693893441349       -0.84228905437727       -0.09609516876747
C            2.55461121322409       -2.23569071569234       -0.23986802826522
H            4.65553894854288        0.60908149612828       -3.43048941882605
H            4.87172602711263        2.01185055463481       -2.35035146779116
H            5.89004970583869        0.56744408527403       -2.14471163934937
H           -0.05053553658065       -1.17240211195553        2.33725571659023
H            1.29619559406377        1.96814581154199        0.23632030971060
H           -0.35935986764618        2.51612488491913       -0.07759028278307
H            0.04271051982222        1.76262851664243        1.47663992640012
H           -0.49723586798479        1.12080637392222       -2.16226300743659
H            1.14983803703127        0.49583276117677       -1.93359301615855
H           -0.20796759973659       -0.62850560150718       -2.09076076685217
H           -1.64287045291231       -0.93189964464885        0.48427149943228
H           -7.85839203442296       -1.06375282930332        0.67262554396840
H           -7.64736398458354       -0.20045310326823       -0.86436549899303
H           -7.65063166076419        0.70155651804268        0.65095184573704
H            3.47776586408765       -2.25739572388394       -0.82420471504715
H            2.73814490069899       -2.71918719903859        0.73149391851586
H            1.78327818936495       -2.79644275611102       -0.77059398718166

          :  Hamiltonian                  GFN1-xTB          :
         :: total energy             -83.587267531849 Eh    ::
         :: gradient norm              0.000431796176 Eh/a0 ::
         :: HOMO-LUMO gap              0.123826649342 eV    ::
         :: SCC energy               -84.308485787042 Eh    ::
         :: -> Gsolv                  -0.276957495987 Eh    ::
         :: repulsion energy           0.748662236073 Eh    ::

    * Orbital Energies and Occupations

         #    Occupation            Energy/Eh            Energy/eV
      -------------------------------------------------------------
         1        2.0000           -0.8322222             -22.6459
       ...           ...                  ...                  ...
        56        2.0000           -0.4405256             -11.9873
        57        2.0000           -0.4379369             -11.9169
        58        2.0000           -0.4297413             -11.6939
        59        2.0000           -0.4293532             -11.6833
        60        2.0000           -0.4152579             -11.2997
        61        2.0000           -0.4143878             -11.2761
        62        2.0000           -0.4044014             -11.0043
        63        2.0000           -0.4022102             -10.9447
        64        2.0000           -0.3844293             -10.4609
        65        2.0000           -0.3570362              -9.7154
        66        2.0000           -0.3395341              -9.2392
        67        2.0000           -0.3191113              -8.6835
        68        1.8329           -0.2835249              -7.7151 (HOMO)
        69        0.1671           -0.2789744              -7.5913 (LUMO)
        70                         -0.2324558              -6.3254
        71                         -0.2271760              -6.1818
        72                         -0.1625334              -4.4228
        73                         -0.1619018              -4.4056
        74                         -0.1330379              -3.6201
        75                         -0.1096006              -2.9824
        76                         -0.1004559              -2.7335
        77                         -0.0863942              -2.3509
        78                         -0.0857843              -2.3343
        79                         -0.0791449              -2.1536
       ...                                ...                  ...
       134                          0.7689896              20.9253
      -------------------------------------------------------------
                  HL-Gap            0.0045505 Eh            0.1238 eV

Wiberg/Mayer (AO) data.
largest (>0.10) Wiberg bond orders for each atom

     #   Z sym  total        # sym  WBO       # sym  WBO       # sym  WBO
 ---------------------------------------------------------------------------
     1   6 C    3.917 --    26 H    0.987    27 H    0.980    28 H    0.980
                             2 O    0.947
     2   8 O    2.101 --     3 C    0.957     1 C    0.947
     3   6 C    3.851 --     4 O    1.520     5 C    1.243     2 O    0.957
     4   8 O    1.819 --     3 C    1.520
     5   6 C    3.889 --     6 C    1.309     3 C    1.243    24 N    0.970
                             7 O    0.128
     6   6 C    3.933 --     7 O    1.486     5 C    1.309     8 C    0.949
     7   8 O    1.784 --     6 C    1.486     5 C    0.128
     8   6 C    3.878 --     9 O    1.478    10 N    1.272     6 C    0.949
     9   8 O    1.753 --     8 C    1.478    10 N    0.154
    10   7 N    3.377 --     8 C    1.272    11 C    0.945    29 H    0.918
                             9 O    0.154
    11   6 C    3.253 --    24 N    0.971    12 C    0.962    10 N    0.945
    12   6 C    3.897 --    14 C    0.993    13 C    0.981    11 C    0.962
                            15 N    0.892
    13   6 C    3.988 --    32 H    0.986    30 H    0.985    31 H    0.983
                            12 C    0.981
    14   6 C    3.995 --    12 C    0.993    35 H    0.987    33 H    0.986
                            34 H    0.982
    15   7 N    3.318 --    16 C    1.256    36 H    0.908    12 C    0.892
                            17 O    0.167
    16   6 C    3.877 --    17 O    1.512    15 N    1.256    18 C    1.025
    17   8 O    1.811 --    16 C    1.512    15 N    0.167
    18   6 C    3.791 --    19 N    1.538    23 O    1.027    16 C    1.025
    19   7 N    2.917 --    18 C    1.538    20 N    1.185
    20   7 N    2.980 --    21 C    1.624    19 N    1.185
    21   6 C    3.853 --    20 N    1.624    23 O    1.069    22 C    1.027
    22   6 C    3.991 --    21 C    1.027    37 H    0.984    39 H    0.969
                            38 H    0.967
    23   8 O    2.266 --    21 C    1.069    18 C    1.027
    24   7 N    3.061 --    11 C    0.971     5 C    0.970    25 C    0.969
    25   6 C    3.982 --    42 H    0.989    40 H    0.988    41 H    0.982
                            24 N    0.969
    26   1 H    1.019 --     1 C    0.987
    27   1 H    1.019 --     1 C    0.980
    28   1 H    1.020 --     1 C    0.980
    29   1 H    0.981 --    10 N    0.918
    30   1 H    1.018 --    13 C    0.985
    31   1 H    1.018 --    13 C    0.983
    32   1 H    1.015 --    13 C    0.986
    33   1 H    1.014 --    14 C    0.986
    34   1 H    1.032 --    14 C    0.982
    35   1 H    1.016 --    14 C    0.987
    36   1 H    0.985 --    15 N    0.908
    37   1 H    1.001 --    22 C    0.984
    38   1 H    0.999 --    22 C    0.967
    39   1 H    0.999 --    22 C    0.969
    40   1 H    1.026 --    25 C    0.988
    41   1 H    1.013 --    25 C    0.982
    42   1 H    1.036 --    25 C    0.989
 ---------------------------------------------------------------------------

           -------------------------------------------------
          | TOTAL ENERGY              -83.587267531849 Eh   |
          | GRADIENT NORM               0.000431796176 Eh/α |
          | HOMO-LUMO GAP               0.123826649342 eV   |
           -------------------------------------------------

 * finished run on 2023/06/21 at 17:05:56.986
