   * xtb version 6.5.1 (579679a) compiled by 'ehlert@majestix' on 2022-07-11
          program call               : /lustre/hpc/kemi/ree/PhD/git/ReactivityQM/dep/xtb-6.5.1/bin/xtb --gfn 1 /lustre/hpc/kemi/ree/PhD/git/ReactivityQM/calculations/R02oxygendeprot/reac01prodN05/conf03/R02oxygendeprot_reac01prodN05_conf03_gfn1.xyz --opt --vfukui --chrg 0 --uhf 0 --alpb DMSO

   ID    Z sym.   atoms
    1    6 C      1, 3, 5, 6, 8, 11-14, 16, 18, 21, 22, 25
    2    8 O      2, 4, 7, 9, 17, 23
    3    7 N      10, 15, 19, 20, 24
    4    1 H      26-42

      * Solvation model:               ALPB
        Solvent                        DMSO
        Solvent mass                       7.8130E+01 g/mol
          :  Hamiltonian                  GFN1-xTB          :
 * total energy  :   -82.9747616 Eh     change       -0.2980016E-10 Eh
 * total energy  :   -82.9859047 Eh     change       -0.1114301E-01 Eh
 * total energy  :   -82.9902418 Eh     change       -0.4337157E-02 Eh
 * total energy  :   -82.9913591 Eh     change       -0.1117236E-02 Eh
 * total energy  :   -82.9922308 Eh     change       -0.8717184E-03 Eh
 * total energy  :   -82.9927139 Eh     change       -0.4831008E-03 Eh
 * total energy  :   -82.9930518 Eh     change       -0.3379272E-03 Eh
 * total energy  :   -82.9932879 Eh     change       -0.2360829E-03 Eh
 * total energy  :   -82.9934788 Eh     change       -0.1908793E-03 Eh
 * total energy  :   -82.9936418 Eh     change       -0.1630129E-03 Eh
 * total energy  :   -82.9948207 Eh     change       -0.1767050E-04 Eh
 * total energy  :   -82.9948345 Eh     change       -0.1380810E-04 Eh
 * total energy  :   -82.9948497 Eh     change       -0.1512139E-04 Eh
 * total energy  :   -82.9948550 Eh     change       -0.5294034E-05 Eh
 * total energy  :   -82.9948658 Eh     change       -0.1082552E-04 Eh
 * total energy  :   -82.9948721 Eh     change       -0.6356348E-05 Eh
 * total energy  :   -82.9948812 Eh     change       -0.9069718E-05 Eh
 * total energy  :   -82.9948874 Eh     change       -0.6185924E-05 Eh
 * total energy  :   -82.9948923 Eh     change       -0.4866496E-05 Eh
   *** GEOMETRY OPTIMIZATION CONVERGED AFTER 40 ITERATIONS ***

 final structure:
================
42
 xtb: 6.5.1 (579679a)
C           -4.41302481567563        2.93000232739600       -1.94147544413509
O           -4.12400578844935        1.81383947459306       -1.09935946735998
C           -2.84332023825102        1.43911346373077       -1.03678598699572
O           -1.97976272000631        2.01071763116756       -1.68311774649137
C           -2.60382067971922        0.33704603266406       -0.09423238572184
C           -3.51862070557214        0.07085392218223        0.96301913681646
O           -4.63672161894634        0.56859055172958        1.09738450687960
C           -3.02765277210468       -0.88342028513711        2.02188306621944
O           -3.66514450449351       -1.25432951363875        2.98533002973097
N           -1.71878048233622       -1.31612424618079        1.86524200708068
C           -0.91052501229252       -1.09012838908951        0.80429948186160
C            0.43664088207756       -1.80720205560825        0.82852511136763
C            0.29292393478815       -3.14991093427241        0.09404643349001
C            0.91518593990491       -2.05883496402189        2.26824497528864
N            1.43064225993711       -0.92456169281149        0.21283973213475
C            2.65269821304325       -1.35006958238863       -0.20541001990574
O            2.99404557534060       -2.50848701194352       -0.34380255879936
C            3.55335948882634       -0.21775646342583       -0.52597825624061
N            4.76871198452496       -0.27569869148370       -0.97416027602770
N            5.20511366909248        1.00772890180468       -1.09569029103624
C            4.23020628898605        1.77323633932661       -0.71321056846694
C            4.21214646942399        3.25031516412421       -0.64781141532829
O            3.15372862966730        1.06013632717316       -0.34103639807718
N           -1.36802536361381       -0.33229165627040       -0.17031448600932
C           -0.63844205542139       -0.23815034748332       -1.44334344199822
H           -3.89061720239392        3.82071229020548       -1.58284676220121
H           -4.10037245307135        2.72063497277502       -2.96733616887632
H           -5.49032082517589        3.08216566600646       -1.89988777383094
H           -1.39251226106104       -1.91312230302455        2.60942434113685
H            1.12970009535761       -3.80027915779582        0.33902328048503
H           -0.62946512996772       -3.62909406629820        0.41878622209656
H            0.26194328593198       -3.01437385968171       -0.98441724408731
H            0.31996125028470       -2.82773126612062        2.75641966794688
H            1.94600234656642       -2.40778353945372        2.22616102950116
H            0.88100605892226       -1.14016560691818        2.85014110380965
H            1.35758219228058        0.04860000592825        0.46781634120203
H            5.16261145502182        3.64323777915538       -1.00208760078884
H            4.04345324020135        3.57248062847655        0.38012852912092
H            3.40021759966496        3.64230770737565       -1.26061078039798
H           -0.02258392750619       -1.11890333285547       -1.57742053834608
H           -0.01546606669167        0.65361402202415       -1.44534249824916
H           -1.35869723709007       -0.18691624190043       -2.25572988680820

          :  Hamiltonian                  GFN1-xTB          :
         :: total energy             -82.994892267390 Eh    ::
         :: gradient norm              0.000734676037 Eh/a0 ::
         :: HOMO-LUMO gap              2.516295305303 eV    ::
         :: SCC energy               -83.776022911491 Eh    ::
         :: -> Gsolv                  -0.071211232025 Eh    ::
         :: repulsion energy           0.808198647104 Eh    ::

    * Orbital Energies and Occupations

         #    Occupation            Energy/Eh            Energy/eV
      -------------------------------------------------------------
         1        2.0000           -0.8692519             -23.6535
       ...           ...                  ...                  ...
        55        2.0000           -0.5089398             -13.8490
        56        2.0000           -0.5088526             -13.8466
        57        2.0000           -0.4941305             -13.4460
        58        2.0000           -0.4909324             -13.3590
        59        2.0000           -0.4879393             -13.2775
        60        2.0000           -0.4838619             -13.1666
        61        2.0000           -0.4731920             -12.8762
        62        2.0000           -0.4719138             -12.8414
        63        2.0000           -0.4654872             -12.6666
        64        2.0000           -0.4564008             -12.4193
        65        2.0000           -0.4540311             -12.3548
        66        2.0000           -0.4254066             -11.5759
        67        2.0000           -0.4146262             -11.2826 (HOMO)
        68                         -0.3221540              -8.7663 (LUMO)
        69                         -0.3177580              -8.6466
        70                         -0.3038050              -8.2670
        71                         -0.2599032              -7.0723
        72                         -0.2376900              -6.4679
        73                         -0.2053138              -5.5869
        74                         -0.1666748              -4.5355
        75                         -0.1474474              -4.0122
        76                         -0.1433117              -3.8997
        77                         -0.1381125              -3.7582
        78                         -0.1324270              -3.6035
       ...                                ...                  ...
       134                          0.7522731              20.4704
      -------------------------------------------------------------
                  HL-Gap            0.0924722 Eh            2.5163 eV

Wiberg/Mayer (AO) data.
largest (>0.10) Wiberg bond orders for each atom

     #   Z sym  total        # sym  WBO       # sym  WBO       # sym  WBO
 ---------------------------------------------------------------------------
     1   6 C    3.877 --    28 H    0.986    27 H    0.980    26 H    0.980
                             2 O    0.903
     2   8 O    2.201 --     3 C    1.104     1 C    0.903     4 O    0.121
     3   6 C    3.865 --     4 O    1.585     2 O    1.104     5 C    1.080
     4   8 O    1.896 --     3 C    1.585     2 O    0.121
     5   6 C    3.850 --     6 C    1.257     3 C    1.080    24 N    1.056
                             7 O    0.139
     6   6 C    3.944 --     7 O    1.573     5 C    1.257     8 C    0.954
     7   8 O    1.883 --     6 C    1.573     5 C    0.139
     8   6 C    3.867 --     9 O    1.660    10 N    1.089     6 C    0.954
     9   8 O    1.932 --     8 C    1.660    10 N    0.117
    10   7 N    3.453 --    11 C    1.206     8 C    1.089    29 H    0.877
                             9 O    0.117
    11   6 C    3.914 --    24 N    1.435    10 N    1.206    12 C    0.977
    12   6 C    3.935 --    14 C    0.985    11 C    0.977    13 C    0.976
                            15 N    0.934
    13   6 C    3.981 --    31 H    0.984    32 H    0.977    12 C    0.976
                            30 H    0.975
    14   6 C    3.985 --    12 C    0.985    35 H    0.984    34 H    0.978
                            33 H    0.978
    15   7 N    3.319 --    16 C    1.217    12 C    0.934    36 H    0.894
                            17 O    0.167
    16   6 C    3.912 --    17 O    1.610    15 N    1.217    18 C    0.997
    17   8 O    1.921 --    16 C    1.610    15 N    0.167
    18   6 C    3.874 --    19 N    1.620    23 O    1.045    16 C    0.997
    19   7 N    3.003 --    18 C    1.620    20 N    1.203
    20   7 N    2.983 --    21 C    1.607    19 N    1.203
    21   6 C    3.867 --    20 N    1.607    23 O    1.072    22 C    1.032
    22   6 C    3.986 --    21 C    1.032    37 H    0.982    39 H    0.963
                            38 H    0.962
    23   8 O    2.316 --    21 C    1.072    18 C    1.045
    24   7 N    3.590 --    11 C    1.435     5 C    1.056    25 C    0.917
    25   6 C    3.909 --    40 H    0.976    42 H    0.976    41 H    0.970
                            24 N    0.917
    26   1 H    1.008 --     1 C    0.980
    27   1 H    1.009 --     1 C    0.980
    28   1 H    1.012 --     1 C    0.986
    29   1 H    0.932 --    10 N    0.877
    30   1 H    1.010 --    13 C    0.975
    31   1 H    1.000 --    13 C    0.984
    32   1 H    1.002 --    13 C    0.977
    33   1 H    0.996 --    14 C    0.978
    34   1 H    0.998 --    14 C    0.978
    35   1 H    0.997 --    14 C    0.984
    36   1 H    0.938 --    15 N    0.894
    37   1 H    0.998 --    22 C    0.982
    38   1 H    0.996 --    22 C    0.962
    39   1 H    0.996 --    22 C    0.963
    40   1 H    1.009 --    25 C    0.976
    41   1 H    1.014 --    25 C    0.970
    42   1 H    1.005 --    25 C    0.976
 ---------------------------------------------------------------------------

           -------------------------------------------------
          | TOTAL ENERGY              -82.994892267390 Eh   |
          | GRADIENT NORM               0.000734676037 Eh/α |
          | HOMO-LUMO GAP               2.516295305303 eV   |
           -------------------------------------------------

 * finished run on 2023/06/21 at 17:21:08.617
