   * xtb version 6.5.1 (579679a) compiled by 'ehlert@majestix' on 2022-07-11
          program call               : /lustre/hpc/kemi/ree/PhD/git/ReactivityQM/dep/xtb-6.5.1/bin/xtb --gfn 1 /lustre/hpc/kemi/ree/PhD/git/ReactivityQM/calculations/R03/reac02prodE07/conf06/R03_reac02prodE07_conf06_gfn1.xyz --opt --vfukui --chrg -1 --uhf 0 --alpb DMSO

   ID    Z sym.   atoms
    1    6 C      1, 3, 5, 7-10, 12, 14, 15, 18, 19, 22, 23, 25
    2    8 O      2, 4, 13, 20, 24, 26
    3    7 N      6, 11, 16, 17, 21
    4    1 H      27-46

      * Solvation model:               ALPB
        Solvent                        DMSO
        Solvent mass                       7.8130E+01 g/mol
          :  Hamiltonian                  GFN1-xTB          :
 * total energy  :   -86.9964019 Eh     change       -0.5705800E-09 Eh
 * total energy  :   -87.0094084 Eh     change       -0.1300655E-01 Eh
 * total energy  :   -87.0152055 Eh     change       -0.5797065E-02 Eh
 * total energy  :   -87.0163086 Eh     change       -0.1103064E-02 Eh
 * total energy  :   -87.0168208 Eh     change       -0.5122655E-03 Eh
 * total energy  :   -87.0169984 Eh     change       -0.1776170E-03 Eh
 * total energy  :   -87.0171363 Eh     change       -0.1378263E-03 Eh
 * total energy  :   -87.0172537 Eh     change       -0.1174171E-03 Eh
 * total energy  :   -87.0173792 Eh     change       -0.1255527E-03 Eh
 * total energy  :   -87.0175265 Eh     change       -0.1472890E-03 Eh
 * total energy  :   -87.0230891 Eh     change       -0.6809641E-05 Eh
 * total energy  :   -87.0230988 Eh     change       -0.9707732E-05 Eh
 * total energy  :   -87.0231069 Eh     change       -0.8043645E-05 Eh
 * total energy  :   -87.0231213 Eh     change       -0.1444289E-04 Eh
 * total energy  :   -87.0231330 Eh     change       -0.1171190E-04 Eh
 * total energy  :   -87.0231306 Eh     change        0.2408975E-05 Eh
 * total energy  :   -87.0231402 Eh     change       -0.9559621E-05 Eh
 * total energy  :   -87.0231421 Eh     change       -0.1908610E-05 Eh
 * total energy  :   -87.0231446 Eh     change       -0.2513940E-05 Eh
   *** GEOMETRY OPTIMIZATION CONVERGED AFTER 94 ITERATIONS ***

 final structure:
================
46
 xtb: 6.5.1 (579679a)
C            5.95048128416403        3.09997626688149        1.01651829690093
O            5.18906490046365        2.18637765958893        0.23378831502909
C            4.02056909616612        1.77531768379301        0.77399792730892
O            3.64420004398530        2.17001955515590        1.86692428242552
C            3.27628092791078        0.83265485251830       -0.06968028912296
N            2.07945632968933        0.42587517073685        0.45955659057753
C            1.29892934739541       -0.40472869084748       -0.15288219689199
C            0.02728050952961       -0.80614756310103        0.58034687727090
C           -0.12839076390113        0.06801107285128        1.83778010126020
C            0.11385565296068       -2.28066216063481        0.99833836773511
N           -1.13032970917400       -0.59336097898358       -0.32523013434213
C           -2.41484841557408       -0.80846506370085        0.27961713835511
O           -2.85379619920566       -2.11978959953458        0.38687416455470
C           -3.51101649788932       -2.65046231503854       -0.76256955084554
C           -3.21625511488292        0.28608964896150        0.49072221931342
N           -2.81275159761408        1.56868330521355        0.38857529191216
N           -3.90580995126611        2.33603838280731        0.72569404440511
C           -4.87389844070166        1.53724904020675        1.00932485619135
C           -6.25034192211999        1.89826370116444        1.43630796377207
O           -4.53335605843009        0.21724425979797        0.89011821040978
N            1.62164116759482       -0.91569033569915       -1.39360188129412
C            0.80472935408908       -1.85617974177294       -2.15925720627632
C            2.83118840573503       -0.59437830312812       -2.00350314451901
O            3.15151739936074       -1.08093046930699       -3.09788739883699
C            3.67097453740560        0.32835510098247       -1.29721352439772
O            4.84137210014112        0.64184748989435       -1.90704520050475
H            5.37662385519902        4.01109717959268        1.21061800657308
H            6.23054819101362        2.64609521325195        1.97166068046033
H            6.84430473669987        3.33895851866269        0.44276561630050
H           -0.24087045787101        1.11537836464739        1.55567902268669
H           -1.01439124542701       -0.24460068345409        2.38951285937198
H            0.74446352940359       -0.03479056372635        2.48074097402903
H           -0.73969831867635       -2.54091093872899        1.62258615137518
H            1.02809437572120       -2.44834657451803        1.56734871000936
H            0.11443301058532       -2.93717597606438        0.13133377187583
H           -1.10440990243065        0.38014643116286       -0.63617234421422
H           -4.43473598680419       -2.09866488609634       -0.97570849527799
H           -3.75361435532934       -3.69120932904986       -0.54192417337118
H           -2.85783261398002       -2.61013966266829       -1.64278484365086
H           -6.46649156061415        1.48142702481191        2.42093483003900
H           -6.98502107151412        1.50128703032548        0.73477211084890
H           -6.34444809300659        2.98131924972491        1.47772511823253
H            1.20983180438894       -2.86382550656825       -2.05135828899919
H            0.85208614349972       -1.57095094277656       -3.21095808172795
H           -0.22841274484798       -1.82626019014108       -1.82458467403661
H            4.87879531819274        0.14995827281398       -2.74710507090884

          :  Hamiltonian                  GFN1-xTB          :
         :: total energy             -87.023144580102 Eh    ::
         :: gradient norm              0.000371288298 Eh/a0 ::
         :: HOMO-LUMO gap              0.105010094425 eV    ::
         :: SCC energy               -87.808795759789 Eh    ::
         :: -> Gsolv                  -0.106558287303 Eh    ::
         :: repulsion energy           0.814825124479 Eh    ::

    * Orbital Energies and Occupations

         #    Occupation            Energy/Eh            Energy/eV
      -------------------------------------------------------------
         1        2.0000           -0.8151256             -22.1807
       ...           ...                  ...                  ...
        59        2.0000           -0.4729175             -12.8687
        60        2.0000           -0.4586788             -12.4813
        61        2.0000           -0.4464981             -12.1498
        62        2.0000           -0.4403864             -11.9835
        63        2.0000           -0.4365182             -11.8783
        64        2.0000           -0.4322651             -11.7625
        65        2.0000           -0.4216784             -11.4745
        66        2.0000           -0.4170298             -11.3480
        67        2.0000           -0.4150065             -11.2929
        68        2.0000           -0.4019619             -10.9379
        69        2.0000           -0.3953089             -10.7569
        70        2.0000           -0.3913406             -10.6489
        71        1.7680           -0.3059177              -8.3244 (HOMO)
        72        0.2320           -0.3020587              -8.2194 (LUMO)
        73                         -0.2555215              -6.9531
        74                         -0.2146685              -5.8414
        75                         -0.2033701              -5.5340
        76                         -0.1609103              -4.3786
        77                         -0.1304126              -3.5487
        78                         -0.1296510              -3.5280
        79                         -0.1264152              -3.4399
        80                         -0.1220462              -3.3210
        81                         -0.1128235              -3.0701
        82                         -0.1065405              -2.8991
       ...                                ...                  ...
       144                          0.7123077              19.3829
      -------------------------------------------------------------
                  HL-Gap            0.0038590 Eh            0.1050 eV

Wiberg/Mayer (AO) data.
largest (>0.10) Wiberg bond orders for each atom

     #   Z sym  total        # sym  WBO       # sym  WBO       # sym  WBO
 ---------------------------------------------------------------------------
     1   6 C    3.889 --    29 H    0.987    28 H    0.980    27 H    0.980
                             2 O    0.915
     2   8 O    2.152 --     3 C    1.062     1 C    0.915     4 O    0.117
     3   6 C    3.784 --     4 O    1.595     2 O    1.062     5 C    1.059
     4   8 O    1.832 --     3 C    1.595     2 O    0.117
     5   6 C    3.878 --    25 C    1.394     6 N    1.181     3 C    1.059
     6   7 N    3.020 --     7 C    1.574     5 C    1.181
     7   6 C    3.907 --     6 N    1.574    21 N    1.143     8 C    0.982
     8   6 C    3.956 --     9 C    0.992    10 C    0.986     7 C    0.982
                            11 N    0.937
     9   6 C    3.994 --     8 C    0.992    32 H    0.985    30 H    0.984
                            31 H    0.984
    10   6 C    3.994 --    34 H    0.987     8 C    0.986    35 H    0.982
                            33 H    0.981
    11   7 N    3.055 --    12 C    0.984     8 C    0.937    36 H    0.935
    12   6 C    3.592 --    15 C    1.422    11 N    0.984    13 O    0.959
    13   8 O    2.015 --    12 C    0.959    14 C    0.927
    14   6 C    3.910 --    38 H    0.986    37 H    0.983    39 H    0.983
                            13 O    0.927
    15   6 C    3.866 --    12 C    1.422    16 N    1.312    20 O    0.979
    16   7 N    2.738 --    15 C    1.312    17 N    1.158
    17   7 N    2.981 --    18 C    1.663    16 N    1.158
    18   6 C    3.836 --    17 N    1.663    19 C    1.022    20 O    1.013
    19   6 C    3.994 --    18 C    1.022    42 H    0.986    41 H    0.973
                            40 H    0.973
    20   8 O    2.191 --    18 C    1.013    15 C    0.979
    21   7 N    3.431 --     7 C    1.143    23 C    1.099    22 C    0.935
                            24 O    0.117
    22   6 C    3.930 --    43 H    0.978    44 H    0.977    45 H    0.971
                            21 N    0.935
    23   6 C    3.874 --    24 O    1.493    25 C    1.146    21 N    1.099
    24   8 O    1.818 --    23 C    1.493    21 N    0.117
    25   6 C    3.805 --     5 C    1.394    23 C    1.146    26 O    1.060
    26   8 O    2.019 --    25 C    1.060    46 H    0.821
    27   1 H    1.011 --     1 C    0.980
    28   1 H    1.010 --     1 C    0.980
    29   1 H    1.014 --     1 C    0.987
    30   1 H    1.019 --     9 C    0.984
    31   1 H    1.012 --     9 C    0.984
    32   1 H    1.017 --     9 C    0.985
    33   1 H    1.013 --    10 C    0.981
    34   1 H    1.005 --    10 C    0.987
    35   1 H    1.008 --    10 C    0.982
    36   1 H    0.985 --    11 N    0.935
    37   1 H    1.016 --    14 C    0.983
    38   1 H    1.018 --    14 C    0.986
    39   1 H    1.016 --    14 C    0.983
    40   1 H    1.003 --    19 C    0.973
    41   1 H    1.003 --    19 C    0.973
    42   1 H    1.005 --    19 C    0.986
    43   1 H    1.004 --    22 C    0.978
    44   1 H    1.011 --    22 C    0.977
    45   1 H    1.032 --    22 C    0.971
    46   1 H    0.865 --    26 O    0.821
 ---------------------------------------------------------------------------

           -------------------------------------------------
          | TOTAL ENERGY              -87.023144580102 Eh   |
          | GRADIENT NORM               0.000371288298 Eh/α |
          | HOMO-LUMO GAP               0.105010094425 eV   |
           -------------------------------------------------

 * finished run on 2023/06/20 at 15:23:08.041
