   * xtb version 6.5.1 (579679a) compiled by 'ehlert@majestix' on 2022-07-11
          program call               : /lustre/hpc/kemi/ree/PhD/git/ReactivityQM/dep/xtb-6.5.1/bin/xtb --gfn 1 /lustre/hpc/kemi/ree/PhD/git/ReactivityQM/calculations/R02methylcation/reac01prodE04/conf11/R02methylcation_reac01prodE04_conf11_gfn1.xyz --opt --vfukui --chrg -2 --uhf 0 --alpb DMSO

   ID    Z sym.   atoms
    1    6 C      1, 3, 5, 6, 8-11, 13, 15, 18, 19, 22, 24
    2    8 O      2, 4, 14, 20, 23, 25
    3    7 N      7, 12, 16, 17, 21
    4    1 H      26-42

      * Solvation model:               ALPB
        Solvent                        DMSO
        Solvent mass                       7.8130E+01 g/mol
          :  Hamiltonian                  GFN1-xTB          :
 * total energy  :   -83.5801899 Eh     change       -0.9729177E-09 Eh
 * total energy  :   -83.6009082 Eh     change       -0.2071826E-01 Eh
 * total energy  :   -83.6083485 Eh     change       -0.7440342E-02 Eh
 * total energy  :   -83.6101583 Eh     change       -0.1809777E-02 Eh
 * total energy  :   -83.6113356 Eh     change       -0.1177329E-02 Eh
 * total energy  :   -83.6119257 Eh     change       -0.5901456E-03 Eh
 * total energy  :   -83.6122230 Eh     change       -0.2972824E-03 Eh
 * total energy  :   -83.6124409 Eh     change       -0.2178624E-03 Eh
 * total energy  :   -83.6125870 Eh     change       -0.1460592E-03 Eh
 * total energy  :   -83.6127066 Eh     change       -0.1196146E-03 Eh
 * total energy  :   -83.6136570 Eh     change       -0.1384573E-04 Eh
 * total energy  :   -83.6136770 Eh     change       -0.2002446E-04 Eh
 * total energy  :   -83.6136860 Eh     change       -0.9012458E-05 Eh
 * total energy  :   -83.6136996 Eh     change       -0.1356508E-04 Eh
 * total energy  :   -83.6137106 Eh     change       -0.1108137E-04 Eh
 * total energy  :   -83.6137210 Eh     change       -0.1031865E-04 Eh
 * total energy  :   -83.6137261 Eh     change       -0.5097312E-05 Eh
 * total energy  :   -83.6137339 Eh     change       -0.7869609E-05 Eh
 * total energy  :   -83.6137372 Eh     change       -0.3249555E-05 Eh
   *** GEOMETRY OPTIMIZATION CONVERGED AFTER 41 ITERATIONS ***

 final structure:
================
42
 xtb: 6.5.1 (579679a)
C           -3.16253244070755        2.50684823751719        0.21686518977956
O           -2.71022713958387        1.16302975075110        0.10907402315590
C           -3.68477174336890        0.22317110558530        0.02681465323441
O           -4.86735731548327        0.53397531549163        0.03716047936897
C           -3.16476437181854       -1.18457475500911       -0.20559526562516
C           -4.19100777884863       -2.19987994362074        0.30904614526159
N           -1.89342420631160       -1.40523917982549        0.46547986617010
C           -0.81725933052917       -1.08547599593504       -0.15665210077569
C            0.52198452440620       -1.29187270538185        0.54252496714530
C            1.00105431432691       -2.70918078142733        0.18789551626213
C            0.34407541457829       -1.14570411930887        2.06064750285867
N            1.45666169291894       -0.29290401774048        0.02412695402393
C            2.76461208795953       -0.20383855434525        0.52482911098913
O            3.33913484204384       -1.14041856807122        1.11755721481717
C            3.35314193686362        1.05963119687616        0.20904737851075
N            2.75126360204046        2.07699006000096       -0.41566681161796
N            3.67524277434996        3.08224061633702       -0.49801057836778
C            4.76043702131712        2.65531967980345        0.05964208836938
C            6.03957089460195        3.39325095971907        0.20782463942180
O            4.65285168158271        1.39173555026282        0.53541579419228
N           -0.78757949664039       -0.62340791406044       -1.43318812997343
C           -1.87036677046293       -0.84595856378798       -2.35032032065563
O           -1.58710301622284       -0.75226320549213       -3.58115843278958
C           -3.09966178652879       -1.21397348980374       -1.76149322921498
O           -4.15403155573699       -1.55282503927462       -2.39995168632223
H           -3.74481121369500        2.64217889238760        1.13322531204389
H           -3.78806147943461        2.77824329085751       -0.63945706632381
H           -2.27995725519266        3.14388096353099        0.24722861114410
H           -5.15888820413995       -2.01719923037057       -0.15756116684396
H           -3.86397438083649       -3.20958874666106        0.06338443950338
H           -4.29322824198454       -2.11706698122468        1.39060892775425
H            1.19508098212373       -2.77921019471312       -0.88230624609433
H            1.91181731268163       -2.95892421431802        0.72851716672407
H            0.22627060801025       -3.42769621913283        0.45509529471025
H            1.27796172181286       -1.36309813351197        2.57647192036268
H           -0.42363937418189       -1.83901595170045        2.40340943935982
H            0.02988493955915       -0.13075853211198        2.30354962886259
H            1.03744597335114        0.62252713341003       -0.11224237310994
H            6.32900073758733        3.44615323849824        1.25769430655119
H            5.92427705041206        4.40104647100599       -0.18434860533962
H            6.83712461584587        2.88647735541959       -0.33606524342787
H            0.11374937332545       -0.51662578063806       -1.87503731409691

          :  Hamiltonian                  GFN1-xTB          :
         :: total energy             -83.613737181859 Eh    ::
         :: gradient norm              0.000802030941 Eh/a0 ::
         :: HOMO-LUMO gap              0.037909752762 eV    ::
         :: SCC energy               -84.339901487699 Eh    ::
         :: -> Gsolv                  -0.268072023661 Eh    ::
         :: repulsion energy           0.753018828007 Eh    ::

    * Orbital Energies and Occupations

         #    Occupation            Energy/Eh            Energy/eV
      -------------------------------------------------------------
         1        2.0000           -0.8030418             -21.8519
       ...           ...                  ...                  ...
        56        2.0000           -0.4493078             -12.2263
        57        2.0000           -0.4448293             -12.1044
        58        2.0000           -0.4311173             -11.7313
        59        2.0000           -0.4263190             -11.6007
        60        2.0000           -0.4105195             -11.1708
        61        2.0000           -0.4075674             -11.0905
        62        2.0000           -0.4054812             -11.0337
        63        2.0000           -0.3992632             -10.8645
        64        2.0000           -0.3906749             -10.6308
        65        2.0000           -0.3803648             -10.3503
        66        2.0000           -0.3757400             -10.2244
        67        2.0000           -0.3462902              -9.4230
        68        1.3510           -0.2701349              -7.3507 (HOMO)
        69        0.6490           -0.2687417              -7.3128 (LUMO)
        70                         -0.2241479              -6.0994
        71                         -0.2114383              -5.7535
        72                         -0.2029214              -5.5218
        73                         -0.1423559              -3.8737
        74                         -0.1248146              -3.3964
        75                         -0.1227692              -3.3407
        76                         -0.1163209              -3.1653
        77                         -0.0977108              -2.6588
        78                         -0.0944522              -2.5702
        79                         -0.0880320              -2.3955
       ...                                ...                  ...
       134                          0.7119143              19.3722
      -------------------------------------------------------------
                  HL-Gap            0.0013932 Eh            0.0379 eV

Wiberg/Mayer (AO) data.
largest (>0.10) Wiberg bond orders for each atom

     #   Z sym  total        # sym  WBO       # sym  WBO       # sym  WBO
 ---------------------------------------------------------------------------
     1   6 C    3.897 --    28 H    0.987    26 H    0.981    27 H    0.981
                             2 O    0.921
     2   8 O    2.151 --     3 C    1.053     1 C    0.921     4 O    0.109
     3   6 C    3.780 --     4 O    1.601     2 O    1.053     5 C    0.947
     4   8 O    1.866 --     3 C    1.601     2 O    0.109
     5   6 C    3.958 --     6 C    0.990     7 N    0.979     3 C    0.947
                            24 C    0.877
     6   6 C    3.990 --     5 C    0.990    31 H    0.988    30 H    0.988
                            29 H    0.984
     7   7 N    2.938 --     8 C    1.650     5 C    0.979    21 N    0.148
     8   6 C    3.932 --     7 N    1.650    21 N    1.179     9 C    0.970
     9   6 C    3.951 --    11 C    0.989    10 C    0.983     8 C    0.970
                            12 N    0.946
    10   6 C    3.993 --    34 H    0.988    32 H    0.986     9 C    0.983
                            33 H    0.979
    11   6 C    3.992 --     9 C    0.989    37 H    0.987    35 H    0.984
                            36 H    0.984
    12   7 N    3.148 --    13 C    1.077     9 C    0.946    38 H    0.918
                            14 O    0.109
    13   6 C    3.749 --    14 O    1.454    15 C    1.151    12 N    1.077
    14   8 O    1.696 --    13 C    1.454    12 N    0.109
    15   6 C    3.697 --    16 N    1.397    13 C    1.151    20 O    0.979
    16   7 N    2.746 --    15 C    1.397    17 N    1.185
    17   7 N    2.980 --    18 C    1.628    16 N    1.185
    18   6 C    3.821 --    17 N    1.628    20 O    1.051    19 C    1.024
    19   6 C    3.994 --    18 C    1.024    40 H    0.986    39 H    0.972
                            41 H    0.970
    20   8 O    2.187 --    18 C    1.051    15 C    0.979
    21   7 N    3.322 --     8 C    1.179    22 C    0.956    42 H    0.910
                             7 N    0.148
    22   6 C    3.740 --    23 O    1.386    24 C    1.249    21 N    0.956
    23   8 O    1.596 --    22 C    1.386
    24   6 C    3.730 --    25 O    1.372    22 C    1.249     5 C    0.877
    25   8 O    1.573 --    24 C    1.372
    26   1 H    1.013 --     1 C    0.981
    27   1 H    1.014 --     1 C    0.981
    28   1 H    1.015 --     1 C    0.987
    29   1 H    1.026 --     6 C    0.984
    30   1 H    1.012 --     6 C    0.988
    31   1 H    1.011 --     6 C    0.988
    32   1 H    1.008 --    10 C    0.986
    33   1 H    1.023 --    10 C    0.979
    34   1 H    1.009 --    10 C    0.988
    35   1 H    1.014 --    11 C    0.984
    36   1 H    1.022 --    11 C    0.984
    37   1 H    1.009 --    11 C    0.987
    38   1 H    0.979 --    12 N    0.918
    39   1 H    1.001 --    19 C    0.972
    40   1 H    1.004 --    19 C    0.986
    41   1 H    1.001 --    19 C    0.970
    42   1 H    0.970 --    21 N    0.910
 ---------------------------------------------------------------------------

           -------------------------------------------------
          | TOTAL ENERGY              -83.613737181859 Eh   |
          | GRADIENT NORM               0.000802030941 Eh/α |
          | HOMO-LUMO GAP               0.037909752762 eV   |
           -------------------------------------------------

 * finished run on 2023/06/21 at 17:10:46.107
