   * xtb version 6.5.1 (579679a) compiled by 'ehlert@majestix' on 2022-07-11
          program call               : /lustre/hpc/kemi/ree/PhD/git/ReactivityQM/dep/xtb-6.5.1/bin/xtb --gfn 1 /lustre/hpc/kemi/ree/PhD/git/ReactivityQM/calculations/R02methylcation/reac01prodN14/conf12/R02methylcation_reac01prodN14_conf12_gfn1.xyz --opt --vfukui --chrg 0 --uhf 0 --alpb DMSO

   ID    Z sym.   atoms
    1    6 C      1, 3, 5, 6, 8, 9, 12-15, 17, 19, 22, 23
    2    8 O      2, 4, 7, 10, 18, 24
    3    7 N      11, 16, 20, 21, 25
    4    1 H      26-42

      * Solvation model:               ALPB
        Solvent                        DMSO
        Solvent mass                       7.8130E+01 g/mol
          :  Hamiltonian                  GFN1-xTB          :
 * total energy  :   -82.8919444 Eh     change       -0.1649880E-10 Eh
 * total energy  :   -82.9089415 Eh     change       -0.1699709E-01 Eh
 * total energy  :   -82.9189760 Eh     change       -0.1003454E-01 Eh
 * total energy  :   -82.9209260 Eh     change       -0.1950050E-02 Eh
 * total energy  :   -82.9224399 Eh     change       -0.1513841E-02 Eh
 * total energy  :   -82.9232271 Eh     change       -0.7872173E-03 Eh
 * total energy  :   -82.9240269 Eh     change       -0.7997732E-03 Eh
 * total energy  :   -82.9247228 Eh     change       -0.6959632E-03 Eh
 * total energy  :   -82.9254509 Eh     change       -0.7280532E-03 Eh
 * total energy  :   -82.9262141 Eh     change       -0.7632198E-03 Eh
 * total energy  :   -82.9772867 Eh     change       -0.3024540E-04 Eh
 * total energy  :   -82.9773091 Eh     change       -0.2238887E-04 Eh
 * total energy  :   -82.9773215 Eh     change       -0.1235811E-04 Eh
 * total energy  :   -82.9773320 Eh     change       -0.1047415E-04 Eh
 * total energy  :   -82.9773444 Eh     change       -0.1241934E-04 Eh
 * total energy  :   -82.9773540 Eh     change       -0.9619244E-05 Eh
 * total energy  :   -82.9773621 Eh     change       -0.8098795E-05 Eh
 * total energy  :   -82.9773676 Eh     change       -0.5541697E-05 Eh
 * total energy  :   -82.9773718 Eh     change       -0.4165428E-05 Eh
   *** GEOMETRY OPTIMIZATION CONVERGED AFTER 89 ITERATIONS ***

 final structure:
================
42
 xtb: 6.5.1 (579679a)
C            5.90914143128965        1.97122628602253       -1.91564716494240
O            4.80515962314936        1.13138017599926       -1.57402535391270
C            3.86552491491861        1.67992302457640       -0.78262623392716
O            3.93276496934083        2.82191941770179       -0.37454912916061
C            2.78927120966039        0.74875554411324       -0.47693284218850
C            2.65764137347654       -0.55730132879337       -0.91134191265848
O            3.21486326179559       -1.38462309549289       -1.57156558349781
C            1.50837141519099       -2.18366559061683        0.65670710625059
C            2.59834246680127       -1.99964667872396        1.64687015653272
O            0.87710707362194       -3.17120244508658        0.44821149175531
N            1.25447464643340       -1.00879546641682       -0.20073615540279
C            0.86752902423168        0.24586338086983        0.48725353136427
C           -0.43163882093640        0.36583329216031        1.23289519281265
C           -0.60430985615593        1.82878660340613        1.66107853509606
C           -0.45617150388369       -0.56757759061795        2.45074606773179
N           -1.50637551297461       -0.00882830615081        0.30157698784246
C           -2.81541969001683        0.00702647648477        0.64814583683650
O           -3.25043701343464        0.20741483700519        1.76635861249652
C           -3.67462083601905       -0.27070933795503       -0.53000797635039
N           -3.26620512301271       -0.49313006779284       -1.74353305757508
N           -4.37954015337302       -0.68609634812910       -2.50307654533263
C           -5.39777226645879       -0.56758104774217       -1.70447580798941
C           -6.83277095278951       -0.67888024475883       -2.04620133823807
O           -5.01638981814829       -0.30548980238843       -0.44608888969799
N            1.72554004751585        1.16305590000015        0.31638948875765
H            6.42524872518918        2.30532488372251       -1.01178210394730
H            5.56313373672497        2.84378436069061       -2.47609970893636
H            6.57844468839889        1.37170200080844       -2.53000866138798
H            2.66407978212948       -0.97162895869821        1.99280906946416
H            2.45055638464877       -2.68122041628716        2.48135795928898
H            3.53579092176752       -2.26031113612799        1.15049079609714
H            0.59000693728494       -1.28677240911216       -0.91972038155207
H           -0.61513853311211        2.47384122590949        0.78409342491793
H            0.22574843039761        2.11721328673029        2.30363242364080
H           -1.53810279615308        1.94704004528795        2.20701717064871
H           -1.35226907358179       -0.38571309346227        3.04097810890478
H           -0.45236659988771       -1.60686657225514        2.12953766764436
H            0.41773313875438       -0.37789966440114        3.07110923485053
H           -1.28743497207655       -0.07732969020561       -0.68021041886635
H           -7.31186274316750       -1.42125432515750       -1.40859788115187
H           -7.32831441230105        0.27813901833459       -1.88081045053351
H           -6.93933152523813       -0.96646914345245       -3.08922226567918

          :  Hamiltonian                  GFN1-xTB          :
         :: total energy             -82.977371804663 Eh    ::
         :: gradient norm              0.000729879047 Eh/a0 ::
         :: HOMO-LUMO gap              2.628191540798 eV    ::
         :: SCC energy               -83.775442646945 Eh    ::
         :: -> Gsolv                  -0.057449227513 Eh    ::
         :: repulsion energy           0.824718681488 Eh    ::

    * Orbital Energies and Occupations

         #    Occupation            Energy/Eh            Energy/eV
      -------------------------------------------------------------
         1        2.0000           -0.8670572             -23.5938
       ...           ...                  ...                  ...
        55        2.0000           -0.5082440             -13.8300
        56        2.0000           -0.5076390             -13.8136
        57        2.0000           -0.5063357             -13.7781
        58        2.0000           -0.4949650             -13.4687
        59        2.0000           -0.4879809             -13.2786
        60        2.0000           -0.4851343             -13.2012
        61        2.0000           -0.4724226             -12.8553
        62        2.0000           -0.4681979             -12.7403
        63        2.0000           -0.4646660             -12.6442
        64        2.0000           -0.4615816             -12.5603
        65        2.0000           -0.4549944             -12.3810
        66        2.0000           -0.4517259             -12.2921
        67        2.0000           -0.4211912             -11.4612 (HOMO)
        68                         -0.3246070              -8.8330 (LUMO)
        69                         -0.3146770              -8.5628
        70                         -0.3057469              -8.3198
        71                         -0.2755222              -7.4973
        72                         -0.2588809              -7.0445
        73                         -0.2024017              -5.5076
        74                         -0.1687053              -4.5907
        75                         -0.1612925              -4.3890
        76                         -0.1491694              -4.0591
        77                         -0.1432056              -3.8968
        78                         -0.1421214              -3.8673
       ...                                ...                  ...
       134                          0.8393622              22.8402
      -------------------------------------------------------------
                  HL-Gap            0.0965843 Eh            2.6282 eV

Wiberg/Mayer (AO) data.
largest (>0.10) Wiberg bond orders for each atom

     #   Z sym  total        # sym  WBO       # sym  WBO       # sym  WBO
 ---------------------------------------------------------------------------
     1   6 C    3.879 --    28 H    0.986    27 H    0.981    26 H    0.981
                             2 O    0.905
     2   8 O    2.169 --     3 C    1.075     1 C    0.905     4 O    0.120
     3   6 C    3.864 --     4 O    1.616     5 C    1.080     2 O    1.075
     4   8 O    1.895 --     3 C    1.616     2 O    0.120
     5   6 C    3.885 --     6 C    1.353    25 N    1.112     3 C    1.080
                             7 O    0.139
     6   6 C    3.867 --     7 O    1.686     5 C    1.353    11 N    0.657
     7   8 O    2.035 --     6 C    1.686     5 C    0.139
     8   6 C    3.830 --    10 O    1.810     9 C    1.025    11 N    0.895
     9   6 C    3.983 --     8 C    1.025    29 H    0.972    30 H    0.969
                            31 H    0.933
    10   8 O    2.039 --     8 C    1.810
    11   7 N    3.549 --     8 C    0.895    32 H    0.870    12 C    0.864
                             6 C    0.657
    12   6 C    3.889 --    25 N    1.781    13 C    0.990    11 N    0.864
    13   6 C    3.934 --    12 C    0.990    14 C    0.985    15 C    0.980
                            16 N    0.918
    14   6 C    3.987 --    13 C    0.985    33 H    0.985    34 H    0.984
                            35 H    0.981
    15   6 C    3.986 --    38 H    0.985    37 H    0.981    13 C    0.980
                            36 H    0.975
    16   7 N    3.325 --    17 C    1.235    13 C    0.918    39 H    0.895
                            18 O    0.173
    17   6 C    3.914 --    18 O    1.604    16 N    1.235    19 C    0.991
    18   8 O    1.921 --    17 C    1.604    16 N    0.173
    19   6 C    3.876 --    20 N    1.608    24 O    1.065    17 C    0.991
    20   7 N    3.018 --    19 C    1.608    21 N    1.203
    21   7 N    2.981 --    22 C    1.602    20 N    1.203
    22   6 C    3.870 --    21 N    1.602    24 O    1.084    23 C    1.032
    23   6 C    3.986 --    22 C    1.032    42 H    0.982    40 H    0.965
                            41 H    0.961
    24   8 O    2.332 --    22 C    1.084    19 C    1.065
    25   7 N    3.062 --    12 C    1.781     5 C    1.112
    26   1 H    1.009 --     1 C    0.981
    27   1 H    1.009 --     1 C    0.981
    28   1 H    1.012 --     1 C    0.986
    29   1 H    0.998 --     9 C    0.972
    30   1 H    0.993 --     9 C    0.969
    31   1 H    0.991 --     9 C    0.933
    32   1 H    0.920 --    11 N    0.870
    33   1 H    1.004 --    14 C    0.985
    34   1 H    1.004 --    14 C    0.984
    35   1 H    1.006 --    14 C    0.981
    36   1 H    1.008 --    15 C    0.975
    37   1 H    1.003 --    15 C    0.981
    38   1 H    1.002 --    15 C    0.985
    39   1 H    0.951 --    16 N    0.895
    40   1 H    0.996 --    23 C    0.965
    41   1 H    0.996 --    23 C    0.961
    42   1 H    0.998 --    23 C    0.982
 ---------------------------------------------------------------------------

           -------------------------------------------------
          | TOTAL ENERGY              -82.977371804663 Eh   |
          | GRADIENT NORM               0.000729879047 Eh/α |
          | HOMO-LUMO GAP               2.628191540798 eV   |
           -------------------------------------------------

 * finished run on 2023/06/21 at 17:53:53.556
