                         Program Version 5.0.1 -  RELEASE  -
|  1> # ORCA input file
|  2> ! SP r2SCAN-3c CPCM
|  3>
|  4> %maxcore 1875.0
|  5> %pal nprocs 4 end
|  6> %cpcm smd true SMDsolvent "DMSO" end
|  7>
|  8> *xyz 0 1
|  9> C       6.484337   -0.519423    1.060393
| 10> O       5.113845   -0.341177    0.704823
| 11> C       4.858636    0.566189   -0.244150
| 12> O       5.751849    1.202053   -0.786279
| 13> C       3.430075    0.724396   -0.553891
| 14> N       2.545455   -0.067574    0.130040
| 15> C       1.276159    0.107211   -0.150581
| 16> C       0.302918   -0.782981    0.613337
| 17> C       0.479789   -0.578540    2.121266
| 18> C       0.529315   -2.248684    0.226156
| 19> N      -1.038364   -0.357320    0.202624
| 20> C      -2.169312   -0.874232    0.638959
| 21> O      -2.337032   -1.783310    1.438499
| 22> C      -3.385770   -0.213062    0.043947
| 23> O      -3.380757    0.789205   -0.818881
| 24> C      -4.671692    1.073646   -1.067314
| 25> C      -5.042787    2.152299   -1.998876
| 26> N      -5.461388    0.288023   -0.393255
| 27> N      -4.637840   -0.516553    0.302661
| 28> C      -5.171985   -1.537741    1.177976
| 29> N       0.742885    0.959843   -1.017700
| 30> C       1.550512    1.787078   -1.748673
| 31> O       1.096647    2.596878   -2.566925
| 32> C       2.992868    1.640293   -1.485099
| 33> O       3.823824    2.438676   -2.186479
| 34> H       6.900757    0.416056    1.443242
| 35> H       6.510711   -1.285809    1.832862
| 36> H       7.063630   -0.840079    0.190650
| 37> H      -0.167379   -1.251763    2.680099
| 38> H       0.242169    0.449877    2.389536
| 39> H       1.519212   -0.780803    2.377955
| 40> H      -0.119860   -2.904248    0.803734
| 41> H       0.326696   -2.390771   -0.834509
| 42> H       1.569466   -2.503622    0.426804
| 43> H      -1.021827    0.403161   -0.487021
| 44> H      -4.584654    3.089159   -1.679147
| 45> H      -4.669372    1.920701   -2.997652
| 46> H      -6.124408    2.258032   -2.026412
| 47> H      -4.833578   -2.511586    0.827741
| 48> H      -4.792431   -1.369911    2.184451
| 49> H      -6.255408   -1.470289    1.152813
| 50> H       4.754091    2.266703   -1.927723
| 51> **                         ****END OF INPUT****

CARTESIAN COORDINATES (ANGSTROEM)
---------------------------------
  C      6.484337   -0.519423    1.060393
  O      5.113845   -0.341177    0.704823
  C      4.858636    0.566189   -0.244150
  O      5.751849    1.202053   -0.786279
  C      3.430075    0.724396   -0.553891
  N      2.545455   -0.067574    0.130040
  C      1.276159    0.107211   -0.150581
  C      0.302918   -0.782981    0.613337
  C      0.479789   -0.578540    2.121266
  C      0.529315   -2.248684    0.226156
  N     -1.038364   -0.357320    0.202624
  C     -2.169312   -0.874232    0.638959
  O     -2.337032   -1.783310    1.438499
  C     -3.385770   -0.213062    0.043947
  O     -3.380757    0.789205   -0.818881
  C     -4.671692    1.073646   -1.067314
  C     -5.042787    2.152299   -1.998876
  N     -5.461388    0.288023   -0.393255
  N     -4.637840   -0.516553    0.302661
  C     -5.171985   -1.537741    1.177976
  N      0.742885    0.959843   -1.017700
  C      1.550512    1.787078   -1.748673
  O      1.096647    2.596878   -2.566925
  C      2.992868    1.640293   -1.485099
  O      3.823824    2.438676   -2.186479
  H      6.900757    0.416056    1.443242
  H      6.510711   -1.285809    1.832862
  H      7.063630   -0.840079    0.190650
  H     -0.167379   -1.251763    2.680099
  H      0.242169    0.449877    2.389536
  H      1.519212   -0.780803    2.377955
  H     -0.119860   -2.904248    0.803734
  H      0.326696   -2.390771   -0.834509
  H      1.569466   -2.503622    0.426804
  H     -1.021827    0.403161   -0.487021
  H     -4.584654    3.089159   -1.679147
  H     -4.669372    1.920701   -2.997652
  H     -6.124408    2.258032   -2.026412
  H     -4.833578   -2.511586    0.827741
  H     -4.792431   -1.369911    2.184451
  H     -6.255408   -1.470289    1.152813
  H      4.754091    2.266703   -1.927723

 Total Charge           Charge          ....    0
 Multiplicity           Mult            ....    1
 Number of Electrons    NEL             ....  184
 Basis Dimension        Dim             ....  615

ORBITAL ENERGIES
----------------

  NO   OCC          E(Eh)            E(eV)
   0   2.0000     -19.109004      -519.9824
   1   2.0000     -18.999229      -516.9953
   2   2.0000     -18.975341      -516.3453
   3   2.0000     -18.945717      -515.5392
   4   2.0000     -18.944702      -515.5115
   5   2.0000     -18.889801      -514.0176
   6   2.0000     -14.324372      -389.7860
   7   2.0000     -14.244203      -387.6045
   8   2.0000     -14.203731      -386.5032
   9   2.0000     -14.134284      -384.6134
  10   2.0000     -14.134055      -384.6072
  11   2.0000     -10.203574      -277.6534
  12   2.0000     -10.187222      -277.2084
  13   2.0000     -10.172968      -276.8205
  14   2.0000     -10.161696      -276.5138
  15   2.0000     -10.104146      -274.9478
  16   2.0000     -10.095199      -274.7043
  17   2.0000     -10.089846      -274.5587
  18   2.0000     -10.086818      -274.4763
  19   2.0000     -10.084528      -274.4140
  20   2.0000     -10.075064      -274.1564
  21   2.0000     -10.068208      -273.9699
  22   2.0000     -10.058746      -273.7124
  23   2.0000     -10.017180      -272.5813
  24   2.0000     -10.016325      -272.5581
  25   2.0000      -1.210628       -32.9429
  26   2.0000      -1.076097       -29.2821
  27   2.0000      -1.054654       -28.6986
  28   2.0000      -1.035186       -28.1688
  29   2.0000      -1.024729       -27.8843
  30   2.0000      -0.984883       -26.8000
  31   2.0000      -0.967344       -26.3228
  32   2.0000      -0.933631       -25.4054
  33   2.0000      -0.909866       -24.7587
  34   2.0000      -0.894435       -24.3388
  35   2.0000      -0.823953       -22.4209
  36   2.0000      -0.782217       -21.2852
  37   2.0000      -0.768707       -20.9176
  38   2.0000      -0.739619       -20.1261
  39   2.0000      -0.723265       -19.6810
  40   2.0000      -0.693880       -18.8814
  41   2.0000      -0.681009       -18.5312
  42   2.0000      -0.656165       -17.8552
  43   2.0000      -0.647731       -17.6257
  44   2.0000      -0.635585       -17.2952
  45   2.0000      -0.621757       -16.9189
  46   2.0000      -0.595484       -16.2040
  47   2.0000      -0.550487       -14.9795
  48   2.0000      -0.546411       -14.8686
  49   2.0000      -0.543045       -14.7770
  50   2.0000      -0.535232       -14.5644
  51   2.0000      -0.514683       -14.0052
  52   2.0000      -0.506569       -13.7844
  53   2.0000      -0.494075       -13.4445
  54   2.0000      -0.465974       -12.6798
  55   2.0000      -0.456519       -12.4225
  56   2.0000      -0.451694       -12.2912
  57   2.0000      -0.449578       -12.2336
  58   2.0000      -0.446069       -12.1382
  59   2.0000      -0.439571       -11.9613
  60   2.0000      -0.433439       -11.7945
  61   2.0000      -0.432350       -11.7648
  62   2.0000      -0.423264       -11.5176
  63   2.0000      -0.413180       -11.2432
  64   2.0000      -0.405612       -11.0373
  65   2.0000      -0.402493       -10.9524
  66   2.0000      -0.395278       -10.7561
  67   2.0000      -0.389149       -10.5893
  68   2.0000      -0.387134       -10.5345
  69   2.0000      -0.385038       -10.4774
  70   2.0000      -0.370896       -10.0926
  71   2.0000      -0.365450        -9.9444
  72   2.0000      -0.364332        -9.9140
  73   2.0000      -0.353262        -9.6128
  74   2.0000      -0.351639        -9.5686
  75   2.0000      -0.343700        -9.3526
  76   2.0000      -0.335058        -9.1174
  77   2.0000      -0.333962        -9.0876
  78   2.0000      -0.326878        -8.8948
  79   2.0000      -0.320942        -8.7333
  80   2.0000      -0.320459        -8.7201
  81   2.0000      -0.309808        -8.4303
  82   2.0000      -0.295535        -8.0419
  83   2.0000      -0.277110        -7.5406
  84   2.0000      -0.270935        -7.3725
  85   2.0000      -0.262358        -7.1391
  86   2.0000      -0.256783        -6.9874
  87   2.0000      -0.253005        -6.8846
  88   2.0000      -0.242666        -6.6033
  89   2.0000      -0.210014        -5.7148
  90   2.0000      -0.200645        -5.4598
  91   2.0000      -0.178794        -4.8652
  92   0.0000      -0.122630        -3.3369
  93   0.0000      -0.071779        -1.9532
  94   0.0000      -0.058439        -1.5902
  95   0.0000      -0.011156        -0.3036
  96   0.0000       0.024120         0.6563

MULLIKEN ATOMIC CHARGES
-----------------------
   0 C :   -0.318011
   1 O :   -0.184544
   2 C :    0.208267
   3 O :   -0.481328
   4 C :    0.068313
   5 N :   -0.259015
   6 C :    0.534094
   7 C :   -0.228870
   8 C :   -0.632810
   9 C :   -0.636340
  10 N :    0.084345
  11 C :   -0.011021
  12 O :   -0.463222
  13 C :    0.225315
  14 O :    0.015937
  15 C :    0.483873
  16 C :   -0.620573
  17 N :   -0.465819
  18 N :    0.572248
  19 C :   -0.435073
  20 N :   -0.247982
  21 C :   -0.082594
  22 O :   -0.407828
  23 C :    0.036795
  24 O :   -0.366730
  25 H :    0.175142
  26 H :    0.175493
  27 H :    0.175389
  28 H :    0.191375
  29 H :    0.182122
  30 H :    0.190459
  31 H :    0.191330
  32 H :    0.183773
  33 H :    0.190421
  34 H :    0.309000
  35 H :    0.214687
  36 H :    0.216831
  37 H :    0.216847
  38 H :    0.216599
  39 H :    0.216050
  40 H :    0.208663
  41 H :    0.358397
Sum of atomic charges:    0.0000000

LOEWDIN ATOMIC CHARGES
----------------------
   0 C :   -0.038911
   1 O :   -0.571781
   2 C :    0.406740
   3 O :   -0.478840
   4 C :    0.166753
   5 N :   -0.620747
   6 C :    0.309659
   7 C :    0.108667
   8 C :   -0.347946
   9 C :   -0.347119
  10 N :   -0.568130
  11 C :    0.386200
  12 O :   -0.456924
  13 C :    0.521718
  14 O :   -0.322944
  15 C :    0.425556
  16 C :   -0.300882
  17 N :   -0.222156
  18 N :   -0.493198
  19 C :   -0.022280
  20 N :   -0.588480
  21 C :    0.313884
  22 O :   -0.512859
  23 C :    0.261277
  24 O :   -0.471200
  25 H :    0.181231
  26 H :    0.185340
  27 H :    0.181338
  28 H :    0.172457
  29 H :    0.172123
  30 H :    0.176655
  31 H :    0.172822
  32 H :    0.172237
  33 H :    0.175306
  34 H :    0.317105
  35 H :    0.202148
  36 H :    0.203159
  37 H :    0.199753
  38 H :    0.216375
  39 H :    0.216964
  40 H :    0.214085
  41 H :    0.304845

  Mayer bond orders larger than 0.100000
B(  0-C ,  1-O ) :   0.8326 B(  0-C , 25-H ) :   0.9569 B(  0-C , 26-H ) :   0.9629
B(  0-C , 27-H ) :   0.9572 B(  1-O ,  2-C ) :   1.1685 B(  2-C ,  3-O ) :   1.7276
B(  2-C ,  4-C ) :   1.0973 B(  4-C ,  5-N ) :   1.0884 B(  4-C , 23-C ) :   1.2674
B(  5-N ,  6-C ) :   1.3746 B(  6-C ,  7-C ) :   0.7273 B(  6-C , 10-N ) :  -0.1358
B(  6-C , 20-N ) :   1.3084 B(  7-C ,  8-C ) :   0.9126 B(  7-C ,  9-C ) :   0.9088
B(  7-C , 10-N ) :   0.9313 B(  7-C , 20-N ) :   0.1314 B(  8-C , 28-H ) :   0.9643
B(  8-C , 29-H ) :   0.9701 B(  8-C , 30-H ) :   0.9612 B(  9-C , 31-H ) :   0.9620
B(  9-C , 32-H ) :   0.9703 B(  9-C , 33-H ) :   0.9635 B( 10-N , 11-C ) :   1.2758
B( 10-N , 12-O ) :   0.1148 B( 10-N , 34-H ) :   0.8056 B( 11-C , 12-O ) :   1.7387
B( 11-C , 13-C ) :   0.9009 B( 13-C , 14-O ) :   1.1581 B( 13-C , 17-N ) :   0.1850
B( 13-C , 18-N ) :   1.6229 B( 14-O , 15-C ) :   1.0565 B( 15-C , 16-C ) :   0.8574
B( 15-C , 17-N ) :   1.5313 B( 16-C , 35-H ) :   0.9328 B( 16-C , 36-H ) :   0.9263
B( 16-C , 37-H ) :   0.9748 B( 17-N , 18-N ) :   1.2211 B( 18-N , 19-C ) :   0.9053
B( 19-C , 38-H ) :   0.9167 B( 19-C , 39-H ) :   0.9173 B( 19-C , 40-H ) :   0.9358
B( 20-N , 21-C ) :   1.1879 B( 20-N , 34-H ) :   0.1003 B( 21-C , 22-O ) :   2.0794
B( 21-C , 23-C ) :   0.9385 B( 23-C , 24-O ) :   1.1418 B( 24-O , 41-H ) :   0.7845

Dispersion correction           -0.018284165
FINAL SINGLE POINT ENERGY     -1268.635180019485

DIPOLE MOMENT
-------------
                                X             Y             Z
Electronic contribution:     -1.71677       7.96271      -7.77174
Nuclear contribution   :     -6.32124     -10.22390       9.93602
                        -----------------------------------------
Total Dipole Moment    :     -8.03800      -2.26119       2.16428
                        -----------------------------------------
Magnitude (a.u.)       :      8.62593
Magnitude (Debye)      :     21.92536

Rotational constants in cm-1:     0.015382     0.003443     0.002873
Rotational constants in MHz :   461.154912   103.219458    86.130329

                             ****ORCA TERMINATED NORMALLY****
TOTAL RUN TIME: 0 days 0 hours 2 minutes 7 seconds 161 msec
