   * xtb version 6.5.1 (579679a) compiled by 'ehlert@majestix' on 2022-07-11
          program call               : /lustre/hpc/kemi/ree/PhD/git/ReactivityQM/dep/xtb-6.5.1/bin/xtb --gfn 1 /lustre/hpc/kemi/ree/PhD/git/ReactivityQM/calculations/R02deprot/reac01prodN07/conf07/R02deprot_reac01prodN07_conf07_gfn1.xyz --opt --vfukui --chrg 0 --uhf 0 --alpb DMSO

   ID    Z sym.   atoms
    1    6 C      1, 3, 5, 7-10, 12, 14, 16, 17, 20, 22, 24
    2    8 O      2, 4, 13, 15, 23, 25
    3    7 N      6, 11, 18, 19, 21
    4    1 H      26-42

      * Solvation model:               ALPB
        Solvent                        DMSO
        Solvent mass                       7.8130E+01 g/mol
          :  Hamiltonian                  GFN1-xTB          :
 * total energy  :   -82.9497937 Eh     change       -0.1027445E-09 Eh
 * total energy  :   -82.9655581 Eh     change       -0.1576438E-01 Eh
 * total energy  :   -82.9724486 Eh     change       -0.6890561E-02 Eh
 * total energy  :   -82.9736445 Eh     change       -0.1195810E-02 Eh
 * total energy  :   -82.9746590 Eh     change       -0.1014523E-02 Eh
 * total energy  :   -82.9751400 Eh     change       -0.4810430E-03 Eh
 * total energy  :   -82.9756271 Eh     change       -0.4870957E-03 Eh
 * total energy  :   -82.9761164 Eh     change       -0.4893057E-03 Eh
 * total energy  :   -82.9765245 Eh     change       -0.4080976E-03 Eh
 * total energy  :   -82.9768523 Eh     change       -0.3277843E-03 Eh
 * total energy  :   -82.9797090 Eh     change       -0.2397580E-04 Eh
 * total energy  :   -82.9797368 Eh     change       -0.2775269E-04 Eh
 * total energy  :   -82.9797696 Eh     change       -0.3278573E-04 Eh
 * total energy  :   -82.9797948 Eh     change       -0.2524882E-04 Eh
 * total energy  :   -82.9798087 Eh     change       -0.1384774E-04 Eh
 * total energy  :   -82.9798165 Eh     change       -0.7782176E-05 Eh
 * total energy  :   -82.9798281 Eh     change       -0.1168140E-04 Eh
 * total energy  :   -82.9798334 Eh     change       -0.5291449E-05 Eh
 * total energy  :   -82.9798382 Eh     change       -0.4744420E-05 Eh
   *** GEOMETRY OPTIMIZATION CONVERGED AFTER 58 ITERATIONS ***

 final structure:
================
42
 xtb: 6.5.1 (579679a)
C            6.48433706538580       -0.51942309902044        1.06039272708251
O            5.11384505236048       -0.34117670826101        0.70482302501986
C            4.85863625464770        0.56618889989388       -0.24414985623673
O            5.75184868839329        1.20205301671018       -0.78627946326304
C            3.43007457697194        0.72439563240706       -0.55389124047637
N            2.54545460298586       -0.06757397246992        0.13004043697382
C            1.27615939117457        0.10721083232823       -0.15058076420288
C            0.30291819852233       -0.78298110997089        0.61333674328759
C            0.47978916154457       -0.57854015202326        2.12126603288055
C            0.52931489006667       -2.24868380136614        0.22615631880302
N           -1.03836432310234       -0.35731995566557        0.20262415731717
C           -2.16931240172488       -0.87423168583758        0.63895946317897
O           -2.33703232012362       -1.78330981226442        1.43849908748821
C           -3.38576984583644       -0.21306197680191        0.04394670441682
O           -3.38075727541103        0.78920545534785       -0.81888052333664
C           -4.67169233403969        1.07364602587982       -1.06731409222966
C           -5.04278660700903        2.15229883158688       -1.99887578735443
N           -5.46138828127915        0.28802253194313       -0.39325465877097
N           -4.63783999762626       -0.51655332475466        0.30266059427143
C           -5.17198521742748       -1.53774134680910        1.17797600247205
N            0.74288495178578        0.95984251578173       -1.01769971195651
C            1.55051155416553        1.78707832041470       -1.74867287363453
O            1.09664734814397        2.59687766169144       -2.56692513884433
C            2.99286814400407        1.64029250468077       -1.48509856078638
O            3.82382410762802        2.43867610219083       -2.18647904568298
H            6.90075731662415        0.41605551815906        1.44324194992707
H            6.51071097396249       -1.28580937551247        1.83286216199646
H            7.06363026237756       -0.84007871704953        0.19064957373595
H           -0.16737899177619       -1.25176260483603        2.68009859912658
H            0.24216914477853        0.44987655077662        2.38953571175291
H            1.51921193131610       -0.78080303703825        2.37795466793659
H           -0.11986019751710       -2.90424769582743        0.80373410489135
H            0.32669613900031       -2.39077139548436       -0.83450936728952
H            1.56946609266993       -2.50362166243052        0.42680351791444
H           -1.02182667958483        0.40316131689577       -0.48702123517128
H           -4.58465446676298        3.08915881287433       -1.67914733646365
H           -4.66937194389400        1.92070068189901       -2.99765217559417
H           -6.12440815826951        2.25803241300288       -2.02641239566101
H           -4.83357813789558       -2.51158623151846        0.82774063016311
H           -4.79243138758458       -1.36991133964675        2.18445149235585
H           -6.25540755500432       -1.47028944586521        1.15281268566941
H            4.75409127335680        2.26670282597406       -1.92772316170422

          :  Hamiltonian                  GFN1-xTB          :
         :: total energy             -82.979838181850 Eh    ::
         :: gradient norm              0.000684080991 Eh/a0 ::
         :: HOMO-LUMO gap              0.386137017801 eV    ::
         :: SCC energy               -83.759415518516 Eh    ::
         :: -> Gsolv                  -0.080155949352 Eh    ::
         :: repulsion energy           0.804576887187 Eh    ::

    * Orbital Energies and Occupations

         #    Occupation            Energy/Eh            Energy/eV
      -------------------------------------------------------------
         1        2.0000           -0.9290383             -25.2804
       ...           ...                  ...                  ...
        55        2.0000           -0.5013086             -13.6413
        56        2.0000           -0.4978716             -13.5478
        57        2.0000           -0.4942185             -13.4484
        58        2.0000           -0.4855949             -13.2137
        59        2.0000           -0.4818773             -13.1125
        60        2.0000           -0.4756648             -12.9435
        61        2.0000           -0.4611247             -12.5478
        62        2.0000           -0.4574102             -12.4468
        63        2.0000           -0.4434593             -12.0671
        64        2.0000           -0.4279199             -11.6443
        65        2.0000           -0.4096564             -11.1473
        66        2.0000           -0.3817849             -10.3889
        67        1.9989           -0.3771558             -10.2629 (HOMO)
        68        0.0011           -0.3629655              -9.8768 (LUMO)
        69                         -0.3168971              -8.6232
        70                         -0.2857099              -7.7746
        71                         -0.2398036              -6.5254
        72                         -0.2349346              -6.3929
        73                         -0.1976656              -5.3788
        74                         -0.1647543              -4.4832
        75                         -0.1641858              -4.4677
        76                         -0.1291473              -3.5143
        77                         -0.1186465              -3.2285
        78                         -0.1167595              -3.1772
       ...                                ...                  ...
       134                          0.7286898              19.8287
      -------------------------------------------------------------
                  HL-Gap            0.0141903 Eh            0.3861 eV

Wiberg/Mayer (AO) data.
largest (>0.10) Wiberg bond orders for each atom

     #   Z sym  total        # sym  WBO       # sym  WBO       # sym  WBO
 ---------------------------------------------------------------------------
     1   6 C    3.881 --    27 H    0.987    26 H    0.980    28 H    0.980
                             2 O    0.906
     2   8 O    2.195 --     3 C    1.102     1 C    0.906     4 O    0.120
     3   6 C    3.837 --     4 O    1.590     2 O    1.102     5 C    1.046
     4   8 O    1.922 --     3 C    1.590     2 O    0.120
     5   6 C    3.962 --    24 C    1.464     6 N    1.196     3 C    1.046
     6   7 N    2.992 --     7 C    1.467     5 C    1.196
     7   6 C    3.960 --     6 N    1.467    21 N    1.372     8 C    0.967
     8   6 C    3.909 --     9 C    0.983    10 C    0.981     7 C    0.967
                            11 N    0.905
     9   6 C    3.990 --    30 H    0.986    29 H    0.984     8 C    0.983
                            31 H    0.982
    10   6 C    3.990 --    33 H    0.986    32 H    0.984    34 H    0.983
                             8 C    0.981
    11   7 N    3.442 --    12 C    1.363     8 C    0.905    35 H    0.846
                            13 O    0.211
    12   6 C    3.934 --    13 O    1.545    11 N    1.363    14 C    0.949
    13   8 O    1.909 --    12 C    1.545    11 N    0.211
    14   6 C    3.828 --    19 N    1.449    15 O    1.130    12 C    0.949
    15   8 O    2.372 --    14 C    1.130    16 C    1.069
    16   6 C    3.843 --    18 N    1.579    15 O    1.069    17 C    1.042
    17   6 C    3.972 --    16 C    1.042    38 H    0.978    36 H    0.953
                            37 H    0.949
    18   7 N    2.965 --    16 C    1.579    19 N    1.153
    19   7 N    3.651 --    14 C    1.449    18 N    1.153    20 C    0.911
    20   6 C    3.884 --    41 H    0.981    40 H    0.964    39 H    0.964
                            19 N    0.911
    21   7 N    3.025 --     7 C    1.372    22 C    1.210    23 O    0.126
    22   6 C    3.926 --    23 O    1.518    21 N    1.210    24 C    1.064
    23   8 O    1.806 --    22 C    1.518    21 N    0.126
    24   6 C    3.905 --     5 C    1.464    25 O    1.085    22 C    1.064
    25   8 O    2.059 --    24 C    1.085    42 H    0.800
    26   1 H    1.009 --     1 C    0.980
    27   1 H    1.013 --     1 C    0.987
    28   1 H    1.009 --     1 C    0.980
    29   1 H    1.007 --     9 C    0.984
    30   1 H    1.003 --     9 C    0.986
    31   1 H    1.013 --     9 C    0.982
    32   1 H    1.007 --    10 C    0.984
    33   1 H    1.003 --    10 C    0.986
    34   1 H    1.011 --    10 C    0.983
    35   1 H    0.962 --    11 N    0.846
    36   1 H    0.990 --    17 C    0.953
    37   1 H    0.989 --    17 C    0.949
    38   1 H    0.992 --    17 C    0.978
    39   1 H    1.000 --    20 C    0.964
    40   1 H    1.001 --    20 C    0.964
    41   1 H    0.996 --    20 C    0.981
    42   1 H    0.871 --    25 O    0.800
 ---------------------------------------------------------------------------

           -------------------------------------------------
          | TOTAL ENERGY              -82.979838181850 Eh   |
          | GRADIENT NORM               0.000684080991 Eh/α |
          | HOMO-LUMO GAP               0.386137017801 eV   |
           -------------------------------------------------

 * finished run on 2023/06/20 at 18:13:09.413
