   * xtb version 6.5.1 (579679a) compiled by 'ehlert@majestix' on 2022-07-11
          program call               : /lustre/hpc/kemi/ree/PhD/git/ReactivityQM/dep/xtb-6.5.1/bin/xtb --gfn 1 /lustre/hpc/kemi/ree/PhD/git/ReactivityQM/calculations/R03/reac02prodE06/conf15/R03_reac02prodE06_conf15_gfn1.xyz --opt --vfukui --chrg -1 --uhf 0 --alpb DMSO

   ID    Z sym.   atoms
    1    6 C      1, 3, 5, 6, 8, 11-16, 18, 20, 23, 24
    2    8 O      2, 4, 7, 9, 19, 25
    3    7 N      10, 17, 21, 22, 26
    4    1 H      27-46

      * Solvation model:               ALPB
        Solvent                        DMSO
        Solvent mass                       7.8130E+01 g/mol
          :  Hamiltonian                  GFN1-xTB          :
 * total energy  :   -87.0414341 Eh     change       -0.8300560E-10 Eh
 * total energy  :   -87.0529186 Eh     change       -0.1148456E-01 Eh
 * total energy  :   -87.0574657 Eh     change       -0.4547112E-02 Eh
 * total energy  :   -87.0584681 Eh     change       -0.1002376E-02 Eh
 * total energy  :   -87.0592084 Eh     change       -0.7403177E-03 Eh
 * total energy  :   -87.0594426 Eh     change       -0.2341457E-03 Eh
 * total energy  :   -87.0595899 Eh     change       -0.1473246E-03 Eh
 * total energy  :   -87.0596909 Eh     change       -0.1010041E-03 Eh
 * total energy  :   -87.0597612 Eh     change       -0.7028273E-04 Eh
 * total energy  :   -87.0598317 Eh     change       -0.7056068E-04 Eh
 * total energy  :   -87.0603595 Eh     change       -0.1255914E-04 Eh
 * total energy  :   -87.0603629 Eh     change       -0.3414650E-05 Eh
 * total energy  :   -87.0603816 Eh     change       -0.1876336E-04 Eh
 * total energy  :   -87.0603671 Eh     change        0.1451635E-04 Eh
 * total energy  :   -87.0603842 Eh     change       -0.1704990E-04 Eh
 * total energy  :   -87.0603086 Eh     change        0.7557817E-04 Eh
 * total energy  :   -87.0603889 Eh     change       -0.8026110E-04 Eh
 * total energy  :   -87.0603994 Eh     change       -0.1051880E-04 Eh
 * total energy  :   -87.0604029 Eh     change       -0.3532514E-05 Eh
   *** GEOMETRY OPTIMIZATION CONVERGED AFTER 45 ITERATIONS ***

 final structure:
================
46
 xtb: 6.5.1 (579679a)
C           -3.80406861480939        3.34524739167692       -1.18979620367454
O           -3.03764812173757        2.25001761154686       -0.69821656732357
C           -3.38163727940156        1.03455795658353       -1.15471181919926
O           -4.29917351792871        0.89801136712927       -1.95111366958580
C           -2.55366469758982       -0.06504051842017       -0.61243584082916
C           -2.65491110317781       -1.35124520182750       -1.14437643288975
O           -3.60306110763400       -1.72046112313926       -2.09529187974378
C           -1.64604129665966       -2.31635499267520       -0.84098569683606
O           -1.53666280606313       -3.42530167894881       -1.39169881640789
N           -0.65757809253798       -1.87561935915114        0.06642438938236
C            0.29424905182623       -2.91018459141895        0.47133147599688
C           -1.02832259772716       -0.82278813386908        1.03341494652218
C           -1.98424686929102       -1.40005066090766        2.10680850823763
C            0.23663511843111       -0.15830956424501        1.69522348153085
C            0.84435059845291       -0.92564683646255        2.87660123456053
C           -0.11399271400933        1.25212498377352        2.20573139192758
N            1.20653747660655       -0.01541299893102        0.60270779641554
C            2.41791482444330        0.54419686806858        0.69348188834692
O            2.96402567665724        0.94106550920821        1.71342061857407
C            3.06582104507754        0.62007453429616       -0.64966933003685
N            2.53142233471518        0.26940162742167       -1.77965893482522
N            3.46233667699260        0.51169037611552       -2.74846943453575
C            4.50361482384358        0.99488801448414       -2.14538840906950
C            5.78845999974114        1.41044338300776       -2.75050693069008
O            4.31635415997278        1.08988531165398       -0.81988784225811
N           -1.70187039645884        0.26364669293199        0.35194357805714
H           -4.86162200288799        3.21118242050370       -0.94623486845428
H           -3.69803764251988        3.42980996099329       -2.27516776317439
H           -3.42176475797953        4.24325332253960       -0.70749037073859
H           -4.17896337256648       -0.95652698971749       -2.27875689349928
H            1.28457661189877       -2.48065769495945        0.61726731533544
H            0.36268346361888       -3.64698530590357       -0.33143475331816
H           -0.02271531300768       -3.42343077240306        1.38400185700403
H           -2.88711545262648       -1.76627139742685        1.61827723358233
H           -2.26417318294259       -0.61753552361924        2.80910990878648
H           -1.52611350023670       -2.22260096268354        2.65118208694463
H            0.13864632242589       -0.93144769753402        3.70526219148581
H            1.74922532279196       -0.42062758388075        3.21210080055603
H            1.10135464648672       -1.95212055702929        2.63445999163635
H           -0.40618177197087        1.89597804820149        1.37746945162657
H           -0.93963353342880        1.19674025478255        2.91274278224453
H            0.74900948712464        1.68812038355085        2.70742661981199
H            0.85120372251865       -0.22574841565747       -0.32583673585623
H            6.58751348375979        0.74818413015509       -2.41850648735493
H            5.71445207781733        1.36932451295565       -3.83363936319456
H            6.03881281998339        2.42252189923033       -2.43741650506195

          :  Hamiltonian                  GFN1-xTB          :
         :: total energy             -87.060402902976 Eh    ::
         :: gradient norm              0.000761134702 Eh/a0 ::
         :: HOMO-LUMO gap              0.603717407520 eV    ::
         :: SCC energy               -87.848962882763 Eh    ::
         :: -> Gsolv                  -0.110057317270 Eh    ::
         :: repulsion energy           0.819552619957 Eh    ::

    * Orbital Energies and Occupations

         #    Occupation            Energy/Eh            Energy/eV
      -------------------------------------------------------------
         1        2.0000           -0.8571361             -23.3239
       ...           ...                  ...                  ...
        59        2.0000           -0.4751432             -12.9293
        60        2.0000           -0.4734085             -12.8821
        61        2.0000           -0.4635839             -12.6148
        62        2.0000           -0.4528053             -12.3215
        63        2.0000           -0.4515257             -12.2866
        64        2.0000           -0.4448877             -12.1060
        65        2.0000           -0.4392814             -11.9535
        66        2.0000           -0.4287697             -11.6674
        67        2.0000           -0.4271844             -11.6243
        68        2.0000           -0.4032567             -10.9732
        69        2.0000           -0.3866921             -10.5224
        70        2.0000           -0.3745162             -10.1911
        71        2.0000           -0.3209272              -8.7329 (HOMO)
        72        0.0000           -0.2987410              -8.1292 (LUMO)
        73                         -0.2721593              -7.4058
        74                         -0.2514175              -6.8414
        75                         -0.1926879              -5.2433
        76                         -0.1876042              -5.1050
        77                         -0.1410241              -3.8375
        78                         -0.1272334              -3.4622
        79                         -0.1216177              -3.3094
        80                         -0.1169020              -3.1811
        81                         -0.1079992              -2.9388
        82                         -0.0989363              -2.6922
       ...                                ...                  ...
       144                          0.7321217              19.9220
      -------------------------------------------------------------
                  HL-Gap            0.0221862 Eh            0.6037 eV

Wiberg/Mayer (AO) data.
largest (>0.10) Wiberg bond orders for each atom

     #   Z sym  total        # sym  WBO       # sym  WBO       # sym  WBO
 ---------------------------------------------------------------------------
     1   6 C    3.889 --    29 H    0.987    28 H    0.980    27 H    0.980
                             2 O    0.914
     2   8 O    2.189 --     3 C    1.091     1 C    0.914     4 O    0.118
     3   6 C    3.820 --     4 O    1.600     2 O    1.091     5 C    1.025
     4   8 O    1.918 --     3 C    1.600     2 O    0.118
     5   6 C    3.971 --    26 N    1.396     6 C    1.330     3 C    1.025
     6   6 C    3.878 --     5 C    1.330     8 C    1.182     7 O    0.989
                            26 N    0.185
     7   8 O    1.961 --     6 C    0.989    30 H    0.830
     8   6 C    3.917 --     9 O    1.489     6 C    1.182    10 N    1.075
     9   8 O    1.815 --     8 C    1.489    10 N    0.110
    10   7 N    3.241 --     8 C    1.075    11 C    0.962    12 C    0.924
                             9 O    0.110
    11   6 C    3.964 --    31 H    0.983    33 H    0.979    32 H    0.975
                            10 N    0.962
    12   6 C    3.946 --    26 N    1.001    13 C    0.974    14 C    0.949
                            10 N    0.924
    13   6 C    3.996 --    36 H    0.983    34 H    0.983    35 H    0.983
                            12 C    0.974
    14   6 C    3.920 --    15 C    0.999    16 C    0.991    12 C    0.949
                            17 N    0.914
    15   6 C    3.993 --    14 C    0.999    37 H    0.984    38 H    0.978
                            39 H    0.978
    16   6 C    3.994 --    14 C    0.991    42 H    0.984    41 H    0.983
                            40 H    0.981
    17   7 N    3.392 --    18 C    1.296    14 C    0.914    43 H    0.892
                            19 O    0.186
    18   6 C    3.924 --    19 O    1.565    17 N    1.296    20 C    0.979
    19   8 O    1.889 --    18 C    1.565    17 N    0.186
    20   6 C    3.869 --    21 N    1.618    25 O    1.062    18 C    0.979
    21   7 N    3.012 --    20 C    1.618    22 N    1.191
    22   7 N    2.980 --    23 C    1.615    21 N    1.191
    23   6 C    3.874 --    22 N    1.615    25 O    1.080    24 C    1.030
    24   6 C    3.988 --    23 C    1.030    45 H    0.983    46 H    0.967
                            44 H    0.962
    25   8 O    2.324 --    23 C    1.080    20 C    1.062
    26   7 N    2.912 --     5 C    1.396    12 C    1.001     6 C    0.185
    27   1 H    1.011 --     1 C    0.980
    28   1 H    1.011 --     1 C    0.980
    29   1 H    1.014 --     1 C    0.987
    30   1 H    0.891 --     7 O    0.830
    31   1 H    1.019 --    11 C    0.983
    32   1 H    1.022 --    11 C    0.975
    33   1 H    1.007 --    11 C    0.979
    34   1 H    1.008 --    13 C    0.983
    35   1 H    1.010 --    13 C    0.983
    36   1 H    1.005 --    13 C    0.983
    37   1 H    1.005 --    15 C    0.984
    38   1 H    1.014 --    15 C    0.978
    39   1 H    1.008 --    15 C    0.978
    40   1 H    1.033 --    16 C    0.981
    41   1 H    1.010 --    16 C    0.983
    42   1 H    1.011 --    16 C    0.984
    43   1 H    0.978 --    17 N    0.892
    44   1 H    0.998 --    24 C    0.962
    45   1 H    0.999 --    24 C    0.983
    46   1 H    0.998 --    24 C    0.967
 ---------------------------------------------------------------------------

           -------------------------------------------------
          | TOTAL ENERGY              -87.060402902976 Eh   |
          | GRADIENT NORM               0.000761134702 Eh/α |
          | HOMO-LUMO GAP               0.603717407520 eV   |
           -------------------------------------------------

 * finished run on 2023/06/20 at 15:20:17.851
