   * xtb version 6.5.1 (579679a) compiled by 'ehlert@majestix' on 2022-07-11
          program call               : /lustre/hpc/kemi/ree/PhD/git/ReactivityQM/dep/xtb-6.5.1/bin/xtb --gfn 1 /lustre/hpc/kemi/ree/PhD/git/ReactivityQM/calculations/R01/reac02prodN02/conf20/R01_reac02prodN02_conf20_gfn1.xyz --opt --vfukui --chrg 1 --uhf 0 --alpb DMSO

   ID    Z sym.   atoms
    1    6 C      1, 3-6, 8, 9, 12, 13, 15
    2    7 N      2, 7, 17
    3    8 O      10, 11, 14, 16
    4    1 H      18-33

      * Solvation model:               ALPB
        Solvent                        DMSO
        Solvent mass                       7.8130E+01 g/mol
          :  Hamiltonian                  GFN1-xTB          :
 * total energy  :   -57.8618380 Eh     change       -0.4362732E-11 Eh
 * total energy  :   -57.8712619 Eh     change       -0.9423832E-02 Eh
 * total energy  :   -57.8739010 Eh     change       -0.2639185E-02 Eh
 * total energy  :   -57.8742489 Eh     change       -0.3478235E-03 Eh
 * total energy  :   -57.8744690 Eh     change       -0.2201705E-03 Eh
 * total energy  :   -57.8746033 Eh     change       -0.1342526E-03 Eh
 * total energy  :   -57.8747551 Eh     change       -0.1518389E-03 Eh
 * total energy  :   -57.8748735 Eh     change       -0.1183987E-03 Eh
 * total energy  :   -57.8749617 Eh     change       -0.8821052E-04 Eh
 * total energy  :   -57.8750220 Eh     change       -0.6026279E-04 Eh
 * total energy  :   -57.8750649 Eh     change       -0.4289179E-04 Eh
 * total energy  :   -57.8751138 Eh     change       -0.4886064E-04 Eh
 * total energy  :   -57.8751529 Eh     change       -0.3917050E-04 Eh
 * total energy  :   -57.8751826 Eh     change       -0.2965813E-04 Eh
 * total energy  :   -57.8752079 Eh     change       -0.2536578E-04 Eh
 * total energy  :   -57.8752204 Eh     change       -0.1246267E-04 Eh
 * total energy  :   -57.8752293 Eh     change       -0.8843063E-05 Eh
 * total energy  :   -57.8752345 Eh     change       -0.5223313E-05 Eh
 * total energy  :   -57.8752386 Eh     change       -0.4151414E-05 Eh
   *** GEOMETRY OPTIMIZATION CONVERGED AFTER 19 ITERATIONS ***

 final structure:
================
33
 xtb: 6.5.1 (579679a)
C            2.33994430213468        2.33094169773100        0.59500272017017
N            1.40853476665332        1.19049222587207        0.74162088887716
C            1.79022906023613       -0.10903340363341        0.07858140883710
C            2.32050043331394        0.15084259690135       -1.33310047355457
C            2.81520303164029       -0.82029124124977        0.95584654037646
C            0.47496722087912       -0.85401908297843       -0.03098737576173
N           -0.60908703102794       -0.15619404174824       -0.02925806623042
C           -1.81671392903133       -0.79849214114465       -0.17816318323661
C           -3.03651579480683        0.04282840193370       -0.18268732327420
O           -4.15343275969032       -0.42330134590073       -0.31103562478608
O           -2.79395095263308        1.33540881129830       -0.03930888269959
C           -3.93276940901983        2.20902646144696       -0.03299748803299
C           -1.89585730535667       -2.16206045590267       -0.32258497295774
O           -3.03478529479182       -2.82922779556660       -0.46116723107273
C           -0.66795211968463       -2.97201883841699       -0.33446213915243
O           -0.59642533772547       -4.17620916544340       -0.45669588726946
N            0.48161938072664       -2.20085703518632       -0.19255854341742
H            2.35964473782447        2.64783791427079       -0.44341715793556
H            1.96438901148650        3.13374023686334        1.22450961319969
H            3.32982836488572        2.02765488770037        0.92448483452809
H            0.48107479588366        1.43860362617379        0.36363885836578
H            1.27599209074537        1.00780791659210        1.73327902761612
H            1.61555732388523        0.76260479971076       -1.89454832576113
H            3.28861765155469        0.64584833356161       -1.29748660420290
H            2.43787422337529       -0.80555258603123       -1.84123495808401
H            2.37626412365683       -1.09194323325542        1.91461731177758
H            3.67264426788117       -0.17235090245569        1.12758874369561
H            3.16605331275701       -1.72156576403150        0.45621499773052
H           -4.56334394317065        1.98730842692763        0.83088246083707
H           -3.54150859259721        3.22185343351205        0.03049532478717
H           -4.50893573466090        2.07643059134661       -0.95148763753658
H           -3.80178536194177       -2.20849869239029       -0.44366870439764
H            1.35412246661837       -2.70761463650713       -0.19991015143534

          :  Hamiltonian                  GFN1-xTB          :
         :: total energy             -57.875238628182 Eh    ::
         :: gradient norm              0.000667718645 Eh/a0 ::
         :: HOMO-LUMO gap              2.925768231546 eV    ::
         :: SCC energy               -58.453468311104 Eh    ::
         :: -> Gsolv                  -0.120393837779 Eh    ::
         :: repulsion energy           0.597184131369 Eh    ::

    * Orbital Energies and Occupations

         #    Occupation            Energy/Eh            Energy/eV
      -------------------------------------------------------------
         1        2.0000           -0.8850532             -24.0835
       ...           ...                  ...                  ...
        35        2.0000           -0.5632355             -15.3264
        36        2.0000           -0.5539456             -15.0736
        37        2.0000           -0.5472984             -14.8927
        38        2.0000           -0.5463353             -14.8665
        39        2.0000           -0.5324342             -14.4883
        40        2.0000           -0.5316917             -14.4681
        41        2.0000           -0.5227978             -14.2261
        42        2.0000           -0.5103004             -13.8860
        43        2.0000           -0.5044925             -13.7279
        44        2.0000           -0.5038944             -13.7117
        45        2.0000           -0.4836608             -13.1611
        46        2.0000           -0.4666815             -12.6991
        47        2.0000           -0.4482825             -12.1984 (HOMO)
        48                         -0.3407624              -9.2726 (LUMO)
        49                         -0.3079212              -8.3790
        50                         -0.2562757              -6.9736
        51                         -0.1790708              -4.8728
        52                         -0.1761669              -4.7937
        53                         -0.1707377              -4.6460
        54                         -0.1657246              -4.5096
        55                         -0.1498800              -4.0784
        56                         -0.1427283              -3.8838
        57                         -0.1363071              -3.7091
        58                         -0.1209778              -3.2920
       ...                                ...                  ...
       100                          0.7190012              19.5650
      -------------------------------------------------------------
                  HL-Gap            0.1075200 Eh            2.9258 eV

Wiberg/Mayer (AO) data.
largest (>0.10) Wiberg bond orders for each atom

     #   Z sym  total        # sym  WBO       # sym  WBO       # sym  WBO
 ---------------------------------------------------------------------------
     1   6 C    3.896 --    18 H    0.984    20 H    0.982    19 H    0.979
                             2 N    0.920
     2   7 N    3.599 --     1 C    0.920    22 H    0.893     3 C    0.887
                            21 H    0.860
     3   6 C    3.907 --     5 C    0.999     4 C    0.985     6 C    0.980
                             2 N    0.887
     4   6 C    3.981 --     3 C    0.985    23 H    0.981    24 H    0.979
                            25 H    0.978
     5   6 C    3.983 --     3 C    0.999    26 H    0.981    27 H    0.977
                            28 H    0.975
     6   6 C    3.943 --     7 N    1.583    17 N    1.192     3 C    0.980
     7   7 N    3.067 --     6 C    1.583     8 C    1.160
     8   6 C    3.957 --    13 C    1.489     7 N    1.160     9 C    1.016
     9   6 C    3.853 --    10 O    1.613    11 O    1.141     8 C    1.016
    10   8 O    1.951 --     9 C    1.613    11 O    0.132
    11   8 O    2.217 --     9 C    1.141    12 C    0.885    10 O    0.132
    12   6 C    3.859 --    30 H    0.986    31 H    0.979    29 H    0.978
                            11 O    0.885
    13   6 C    3.923 --     8 C    1.489    14 O    1.145    15 C    1.046
    14   8 O    2.110 --    13 C    1.145    32 H    0.769
    15   6 C    3.903 --    16 O    1.631    17 N    1.097    13 C    1.046
    16   8 O    1.928 --    15 C    1.631    17 N    0.132
    17   7 N    3.461 --     6 C    1.192    15 C    1.097    33 H    0.879
                            16 O    0.132
    18   1 H    0.994 --     1 C    0.984
    19   1 H    0.989 --     1 C    0.979
    20   1 H    0.993 --     1 C    0.982
    21   1 H    0.951 --     2 N    0.860
    22   1 H    0.922 --     2 N    0.893
    23   1 H    0.995 --     4 C    0.981
    24   1 H    0.994 --     4 C    0.979
    25   1 H    0.995 --     4 C    0.978
    26   1 H    0.993 --     5 C    0.981
    27   1 H    0.994 --     5 C    0.977
    28   1 H    0.993 --     5 C    0.975
    29   1 H    1.004 --    12 C    0.978
    30   1 H    1.009 --    12 C    0.986
    31   1 H    1.005 --    12 C    0.979
    32   1 H    0.845 --    14 O    0.769
    33   1 H    0.921 --    17 N    0.879
 ---------------------------------------------------------------------------

           -------------------------------------------------
          | TOTAL ENERGY              -57.875238628182 Eh   |
          | GRADIENT NORM               0.000667718645 Eh/α |
          | HOMO-LUMO GAP               2.925768231546 eV   |
           -------------------------------------------------

 * finished run on 2023/06/20 at 15:03:46.891
