   * xtb version 6.5.1 (579679a) compiled by 'ehlert@majestix' on 2022-07-11
          program call               : /lustre/hpc/kemi/ree/PhD/git/ReactivityQM/dep/xtb-6.5.1/bin/xtb --gfn 1 /lustre/hpc/kemi/ree/PhD/git/ReactivityQM/calculations/R03/reac02prodE04/conf16/R03_reac02prodE04_conf16_gfn1.xyz --opt --vfukui --chrg -1 --uhf 0 --alpb DMSO

   ID    Z sym.   atoms
    1    6 C      1, 3, 5, 6, 8-11, 13, 15, 18, 19, 22, 23, 25
    2    8 O      2, 4, 14, 20, 24, 26
    3    7 N      7, 12, 16, 17, 21
    4    1 H      27-46

      * Solvation model:               ALPB
        Solvent                        DMSO
        Solvent mass                       7.8130E+01 g/mol
          :  Hamiltonian                  GFN1-xTB          :
 * total energy  :   -87.0226707 Eh     change       -0.9706014E-11 Eh
 * total energy  :   -87.0379934 Eh     change       -0.1532271E-01 Eh
 * total energy  :   -87.0446215 Eh     change       -0.6628134E-02 Eh
 * total energy  :   -87.0463430 Eh     change       -0.1721472E-02 Eh
 * total energy  :   -87.0475050 Eh     change       -0.1161967E-02 Eh
 * total energy  :   -87.0479743 Eh     change       -0.4693029E-03 Eh
 * total energy  :   -87.0483090 Eh     change       -0.3347212E-03 Eh
 * total energy  :   -87.0485904 Eh     change       -0.2814117E-03 Eh
 * total energy  :   -87.0488871 Eh     change       -0.2967188E-03 Eh
 * total energy  :   -87.0492309 Eh     change       -0.3437913E-03 Eh
 * total energy  :   -87.0512073 Eh     change       -0.2950805E-04 Eh
 * total energy  :   -87.0512421 Eh     change       -0.3481179E-04 Eh
 * total energy  :   -87.0512613 Eh     change       -0.1920180E-04 Eh
 * total energy  :   -87.0512793 Eh     change       -0.1799715E-04 Eh
 * total energy  :   -87.0512987 Eh     change       -0.1940889E-04 Eh
 * total energy  :   -87.0513071 Eh     change       -0.8380475E-05 Eh
 * total energy  :   -87.0513152 Eh     change       -0.8173343E-05 Eh
 * total energy  :   -87.0513177 Eh     change       -0.2485949E-05 Eh
 * total energy  :   -87.0513225 Eh     change       -0.4758834E-05 Eh
   *** GEOMETRY OPTIMIZATION CONVERGED AFTER 42 ITERATIONS ***

 final structure:
================
46
 xtb: 6.5.1 (579679a)
C           -4.08253084641617        3.13851423760175        0.14261353417604
O           -3.34029105761355        2.30968137521885       -0.74913127375341
C           -2.50176207597301        1.41897435047208       -0.18277766589092
O           -2.35725817370992        1.34698122866092        1.02330431567462
C           -1.90561281344793        0.43959315014310       -1.20558222780364
C           -1.58856546741865        1.13058560701269       -2.53698099503257
N           -0.68313546995694       -0.12499552855436       -0.65819156166287
C           -0.72330127553658       -1.15184611008364        0.12150937305198
C            0.65406893527007       -1.57402454372807        0.68013202542075
C            0.69725348901825       -1.74080905568860        2.20528017240464
C            1.13973056144545       -2.83851481038109       -0.04514186227982
N            1.56081718590206       -0.47324988509753        0.33334534640830
C            2.88091085195922       -0.44441799574359        0.52873825045052
O            3.55812214382049       -1.30654456568469        1.07377884884078
C            3.46395727246532        0.82453569680453       -0.00011522627215
N            2.81054522024300        1.78594085756945       -0.57814431798792
N            3.72460584960416        2.74859393822826       -0.89635489409483
C            4.87618285283501        2.31072583129951       -0.49221911681975
C            6.18748335745044        2.98662877064936       -0.60712263320979
O            4.77963121086357        1.10161085867920        0.08232064345565
N           -1.84848708362252       -1.86685617078734        0.37263902922407
C           -1.97559875528890       -2.91901385814683        1.36808490140622
C           -3.00825052675481       -1.71485826353195       -0.52634626275040
O           -3.89090210211940       -2.62051656553557       -0.52120689116905
C           -2.96404964571679       -0.61537291509542       -1.32121527959965
O           -4.00773904487200       -0.36623387096507       -2.24490182729001
H           -4.68418933061494        2.52892457926876        0.82247253375865
H           -3.40753168764706        3.76637004508332        0.73102161119056
H           -4.72978176054367        3.76344514685848       -0.46957972079987
H           -2.50096391737559        1.51395787561220       -2.99081323152200
H           -1.12952013506109        0.41186659960621       -3.21508793387386
H           -0.89502604098309        1.95524474528093       -2.37618887944600
H            1.73068941896146       -1.68867232067448        2.54439865679760
H            0.30410740438277       -2.70599186000224        2.50971617025858
H            0.12954679037662       -0.94813206284307        2.69116237731182
H            0.44515204676995       -3.66131714517270        0.10464281216664
H            1.22351354235198       -2.64003285155609       -1.11316668387073
H            2.11488550305887       -3.13518394771369        0.33762165577505
H            1.11453183790166        0.28189529402344       -0.19440480818187
H            6.63665840522992        3.10284229653021        0.37884871705144
H            6.86415278661720        2.38852421752067       -1.21718792420253
H            6.05406274713183        3.96358418604173       -1.06484948662782
H           -1.22265339292485       -3.69765202346229        1.24457732119061
H           -1.91299240665376       -2.50496799741972        2.37620977424211
H           -2.95945748528645       -3.37772020031538        1.24234301817433
H           -4.63101091812445       -1.10209433997587       -2.15297438430296

          :  Hamiltonian                  GFN1-xTB          :
         :: total energy             -87.051322472528 Eh    ::
         :: gradient norm              0.000761357991 Eh/a0 ::
         :: HOMO-LUMO gap              0.402407694838 eV    ::
         :: SCC energy               -87.848695633773 Eh    ::
         :: -> Gsolv                  -0.113593239971 Eh    ::
         :: repulsion energy           0.827351657693 Eh    ::

    * Orbital Energies and Occupations

         #    Occupation            Energy/Eh            Energy/eV
      -------------------------------------------------------------
         1        2.0000           -0.8564867             -23.3062
       ...           ...                  ...                  ...
        59        2.0000           -0.4735391             -12.8857
        60        2.0000           -0.4678836             -12.7318
        61        2.0000           -0.4632055             -12.6045
        62        2.0000           -0.4577459             -12.4559
        63        2.0000           -0.4524859             -12.3128
        64        2.0000           -0.4511309             -12.2759
        65        2.0000           -0.4409295             -11.9983
        66        2.0000           -0.4377701             -11.9123
        67        2.0000           -0.4297461             -11.6940
        68        2.0000           -0.3974223             -10.8144
        69        2.0000           -0.3862802             -10.5112
        70        2.0000           -0.3762963             -10.2395
        71        1.9992           -0.3126827              -8.5085 (HOMO)
        72        0.0008           -0.2978945              -8.1061 (LUMO)
        73                         -0.2508794              -6.8268
        74                         -0.2373109              -6.4576
        75                         -0.2223684              -6.0510
        76                         -0.1864564              -5.0737
        77                         -0.1407120              -3.8290
        78                         -0.1334760              -3.6321
        79                         -0.1296795              -3.5288
        80                         -0.1251008              -3.4042
        81                         -0.1139320              -3.1002
        82                         -0.1005023              -2.7348
       ...                                ...                  ...
       144                          0.7310177              19.8920
      -------------------------------------------------------------
                  HL-Gap            0.0147882 Eh            0.4024 eV

Wiberg/Mayer (AO) data.
largest (>0.10) Wiberg bond orders for each atom

     #   Z sym  total        # sym  WBO       # sym  WBO       # sym  WBO
 ---------------------------------------------------------------------------
     1   6 C    3.890 --    29 H    0.987    28 H    0.981    27 H    0.981
                             2 O    0.911
     2   8 O    2.176 --     3 C    1.074     1 C    0.911     4 O    0.117
     3   6 C    3.812 --     4 O    1.636     2 O    1.074     5 C    0.917
     4   8 O    1.894 --     3 C    1.636     2 O    0.117
     5   6 C    3.965 --     6 C    0.988     7 N    0.972    25 C    0.957
                             3 C    0.917
     6   6 C    3.996 --    32 H    0.988     5 C    0.988    31 H    0.987
                            30 H    0.985
     7   7 N    3.010 --     8 C    1.626     5 C    0.972    21 N    0.172
     8   6 C    3.949 --     7 N    1.626    21 N    1.222     9 C    0.960
     9   6 C    3.931 --    10 C    0.990    11 C    0.983     8 C    0.960
                            12 N    0.924
    10   6 C    3.993 --     9 C    0.990    35 H    0.985    34 H    0.982
                            33 H    0.979
    11   6 C    3.993 --    37 H    0.986     9 C    0.983    38 H    0.981
                            36 H    0.980
    12   7 N    3.385 --    13 C    1.304     9 C    0.924    39 H    0.858
                            14 O    0.189
    13   6 C    3.924 --    14 O    1.559    12 N    1.304    15 C    0.979
    14   8 O    1.884 --    13 C    1.559    12 N    0.189
    15   6 C    3.869 --    16 N    1.619    20 O    1.061    13 C    0.979
    16   7 N    3.010 --    15 C    1.619    17 N    1.191
    17   7 N    2.980 --    18 C    1.615    16 N    1.191
    18   6 C    3.874 --    17 N    1.615    20 O    1.080    19 C    1.030
    19   6 C    3.988 --    18 C    1.030    42 H    0.983    40 H    0.966
                            41 H    0.964
    20   8 O    2.324 --    18 C    1.080    15 C    1.061
    21   7 N    3.375 --     8 C    1.222    22 C    0.957    23 C    0.885
                             7 N    0.172
    22   6 C    3.955 --    44 H    0.982    43 H    0.977    45 H    0.970
                            21 N    0.957
    23   6 C    3.917 --    25 C    1.521    24 O    1.361    21 N    0.885
    24   8 O    1.735 --    23 C    1.361    25 C    0.167
    25   6 C    3.801 --    23 C    1.521     5 C    0.957    26 O    0.948
                            24 O    0.167
    26   8 O    1.920 --    25 C    0.948    46 H    0.855
    27   1 H    1.011 --     1 C    0.981
    28   1 H    1.012 --     1 C    0.981
    29   1 H    1.014 --     1 C    0.987
    30   1 H    1.016 --     6 C    0.985
    31   1 H    1.012 --     6 C    0.987
    32   1 H    1.010 --     6 C    0.988
    33   1 H    1.010 --    10 C    0.979
    34   1 H    1.007 --    10 C    0.982
    35   1 H    1.004 --    10 C    0.985
    36   1 H    1.006 --    11 C    0.980
    37   1 H    1.005 --    11 C    0.986
    38   1 H    1.011 --    11 C    0.981
    39   1 H    0.984 --    12 N    0.858
    40   1 H    0.998 --    19 C    0.966
    41   1 H    0.998 --    19 C    0.964
    42   1 H    0.999 --    19 C    0.983
    43   1 H    1.011 --    22 C    0.977
    44   1 H    1.011 --    22 C    0.982
    45   1 H    1.022 --    22 C    0.970
    46   1 H    0.891 --    26 O    0.855
 ---------------------------------------------------------------------------

           -------------------------------------------------
          | TOTAL ENERGY              -87.051322472528 Eh   |
          | GRADIENT NORM               0.000761357991 Eh/α |
          | HOMO-LUMO GAP               0.402407694838 eV   |
           -------------------------------------------------

 * finished run on 2023/06/20 at 15:17:45.720
