   * xtb version 6.5.1 (579679a) compiled by 'ehlert@majestix' on 2022-07-11
          program call               : /lustre/hpc/kemi/ree/PhD/git/ReactivityQM/dep/xtb-6.5.1/bin/xtb --gfn 1 /lustre/hpc/kemi/ree/PhD/git/ReactivityQM/calculations/R03/reac02prodE01/conf01/R03_reac02prodE01_conf01_gfn1.xyz --opt --vfukui --chrg -1 --uhf 0 --alpb DMSO

   ID    Z sym.   atoms
    1    6 C      1, 3, 5, 7-10, 12, 13, 15, 18, 19, 22, 23, 25
    2    8 O      2, 4, 14, 20, 24, 26
    3    7 N      6, 11, 16, 17, 21
    4    1 H      27-46

      * Solvation model:               ALPB
        Solvent                        DMSO
        Solvent mass                       7.8130E+01 g/mol
          :  Hamiltonian                  GFN1-xTB          :
 * total energy  :   -87.0238751 Eh     change       -0.5144329E-11 Eh
 * total energy  :   -87.0385808 Eh     change       -0.1470577E-01 Eh
 * total energy  :   -87.0438691 Eh     change       -0.5288263E-02 Eh
 * total energy  :   -87.0449930 Eh     change       -0.1123949E-02 Eh
 * total energy  :   -87.0454935 Eh     change       -0.5004691E-03 Eh
 * total energy  :   -87.0457384 Eh     change       -0.2449146E-03 Eh
 * total energy  :   -87.0459338 Eh     change       -0.1953277E-03 Eh
 * total energy  :   -87.0460845 Eh     change       -0.1507001E-03 Eh
 * total energy  :   -87.0462126 Eh     change       -0.1281082E-03 Eh
 * total energy  :   -87.0463212 Eh     change       -0.1085916E-03 Eh
 * total energy  :   -87.0485117 Eh     change        0.1824018E-03 Eh
 * total energy  :   -87.0486862 Eh     change       -0.1744182E-03 Eh
 * total energy  :   -87.0487016 Eh     change       -0.1546697E-04 Eh
 * total energy  :   -87.0487155 Eh     change       -0.1391607E-04 Eh
 * total energy  :   -87.0486527 Eh     change        0.6285479E-04 Eh
 * total energy  :   -87.0487150 Eh     change       -0.6230552E-04 Eh
 * total energy  :   -87.0487249 Eh     change       -0.9898492E-05 Eh
 * total energy  :   -87.0487316 Eh     change       -0.6753516E-05 Eh
 * total energy  :   -87.0487363 Eh     change       -0.4671517E-05 Eh
   *** GEOMETRY OPTIMIZATION CONVERGED AFTER 92 ITERATIONS ***

 final structure:
================
46
 xtb: 6.5.1 (579679a)
C           -5.90401960764744        1.57299604423145        2.21919308257838
O           -5.13399768311417        1.26710050268655        1.04950195996447
C           -3.93232088352872        0.70769432944435        1.27316674580612
O           -3.52396435700827        0.47818070950999        2.38713536049955
C           -3.17807468127179        0.40693743742548        0.02742866484980
N           -1.97128037480478       -0.18415496767535        0.26153436212712
C           -1.16868767988192       -0.51227914228559       -0.70332873863770
C            0.13034707212144       -1.22080241949980       -0.30002945509577
C            0.23403290351237       -1.20413244200429        1.23745565625604
C            0.03566341587673       -2.68009759645904       -0.78202062105171
N            1.23476589186806       -0.50529308541048       -0.93942341711365
C            2.68135463215511       -0.95439612698723       -0.58462749394542
C            3.44689889603450       -0.79107893757986       -1.93949307748064
O            2.80085330964453       -2.11765928416384       -0.02720204193812
C            3.19487844141651        0.19794045810791        0.34605916010354
N            2.54857647119921        0.82218267494874        1.28073307867141
N            3.44345500069343        1.67664056920264        1.89370719548193
C            4.57114172321457        1.51011988336443        1.28914375945477
C            5.85631611304531        2.19703060162941        1.56624045461648
O            4.48885483709113        0.59352501633750        0.30464323042877
N           -1.50732864088193       -0.26615099364972       -2.01085147309779
C           -0.65741954865728       -0.59198847172892       -3.15962213542194
C           -2.72231217428276        0.29791406511604       -2.37064662773229
O           -3.01056466353326        0.46806780016351       -3.55134109183823
C           -3.59261794826168        0.65798772026008       -1.25448288452255
O           -4.75952893437099        1.21461622452594       -1.62194927610789
H           -5.38592837148829        2.32316282710763        2.82086673935190
H           -6.85883732258142        1.96117990117954        1.87528451484958
H           -6.05355466509260        0.66908163979301        2.81391346108580
H           -0.62621201488667       -1.70910351355665        1.67607500704175
H            1.14287795816482       -1.71813827597751        1.54730695022173
H            0.26683481685591       -0.17751312232520        1.60155807493314
H            0.07948670160338       -2.74141106805492       -1.86705667012554
H            0.86045130127925       -3.26102381796454       -0.37204706001479
H           -0.90549321520960       -3.11425545478986       -0.44416962697049
H            1.15593061559375        0.48167403364569       -0.70158781562476
H            4.50533753284652       -0.98718929801995       -1.77652833759434
H            3.05202318121425       -1.51939102359022       -2.64513617541146
H            3.31852050621889        0.21104616147029       -2.34370720269241
H            6.22858968033853        2.67630654259056        0.66161749390711
H            6.60521342185165        1.47944680362429        1.90058637957654
H            5.70833189969747        2.94775699649255        2.33832784762549
H           -1.02269696672459       -1.50347303968237       -3.63319086683563
H           -0.72222694594056        0.22751607721872       -3.87553634448775
H            0.37482036988688       -0.71434617726174       -2.83884230110460
H           -5.32849301425547        1.42777223861269       -0.86521144457671

          :  Hamiltonian                  GFN1-xTB          :
         :: total energy             -87.048736316174 Eh    ::
         :: gradient norm              0.000879321763 Eh/a0 ::
         :: HOMO-LUMO gap              0.937920018340 eV    ::
         :: SCC energy               -87.839585012128 Eh    ::
         :: -> Gsolv                  -0.118824968041 Eh    ::
         :: repulsion energy           0.820686557722 Eh    ::

    * Orbital Energies and Occupations

         #    Occupation            Energy/Eh            Energy/eV
      -------------------------------------------------------------
         1        2.0000           -0.8387308             -22.8230
       ...           ...                  ...                  ...
        59        2.0000           -0.4644086             -12.6372
        60        2.0000           -0.4632472             -12.6056
        61        2.0000           -0.4560563             -12.4099
        62        2.0000           -0.4485327             -12.2052
        63        2.0000           -0.4421967             -12.0328
        64        2.0000           -0.4386559             -11.9364
        65        2.0000           -0.4288320             -11.6691
        66        2.0000           -0.4174225             -11.3586
        67        2.0000           -0.4153590             -11.3025
        68        2.0000           -0.4136143             -11.2550
        69        2.0000           -0.3798818             -10.3371
        70        2.0000           -0.3528370              -9.6012
        71        2.0000           -0.3474231              -9.4539 (HOMO)
        72                         -0.3129551              -8.5159 (LUMO)
        73                         -0.2649562              -7.2098
        74                         -0.2310888              -6.2882
        75                         -0.2290516              -6.2328
        76                         -0.2139669              -5.8223
        77                         -0.1455197              -3.9598
        78                         -0.1356306              -3.6907
        79                         -0.1300270              -3.5382
        80                         -0.1240083              -3.3744
        81                         -0.0996584              -2.7118
        82                         -0.0914864              -2.4895
       ...                                ...                  ...
       144                          0.7350714              20.0023
      -------------------------------------------------------------
                  HL-Gap            0.0344679 Eh            0.9379 eV

Wiberg/Mayer (AO) data.
largest (>0.10) Wiberg bond orders for each atom

     #   Z sym  total        # sym  WBO       # sym  WBO       # sym  WBO
 ---------------------------------------------------------------------------
     1   6 C    3.866 --    28 H    0.986    27 H    0.980    29 H    0.980
                             2 O    0.890
     2   8 O    2.197 --     3 C    1.080     1 C    0.890     4 O    0.127
     3   6 C    3.842 --     4 O    1.668     2 O    1.080     5 C    1.010
     4   8 O    1.928 --     3 C    1.668     2 O    0.127
     5   6 C    3.966 --    25 C    1.485     6 N    1.196     3 C    1.010
     6   7 N    3.027 --     7 C    1.553     5 C    1.196
     7   6 C    3.908 --     6 N    1.553    21 N    1.173     8 C    0.967
     8   6 C    3.962 --     9 C    0.988    10 C    0.980    11 N    0.975
                             7 C    0.967
     9   6 C    3.995 --     8 C    0.988    30 H    0.986    32 H    0.983
                            31 H    0.978
    10   6 C    3.993 --    35 H    0.988    33 H    0.983     8 C    0.980
                            34 H    0.973
    11   7 N    3.020 --     8 C    0.975    36 H    0.949    12 C    0.828
    12   6 C    3.933 --    14 O    1.227    13 C    0.941    15 C    0.881
                            11 N    0.828
    13   6 C    3.992 --    39 H    0.991    38 H    0.987    37 H    0.986
                            12 C    0.941
    14   8 O    1.573 --    12 C    1.227
    15   6 C    3.808 --    16 N    1.648    20 O    1.049    12 C    0.881
    16   7 N    2.992 --    15 C    1.648    17 N    1.148
    17   7 N    2.976 --    18 C    1.655    16 N    1.148
    18   6 C    3.887 --    17 N    1.655    20 O    1.062    19 C    1.024
    19   6 C    3.992 --    18 C    1.024    42 H    0.985    40 H    0.971
                            41 H    0.969
    20   8 O    2.296 --    18 C    1.062    15 C    1.049
    21   7 N    3.515 --     7 C    1.173    23 C    1.132    22 C    0.929
                            24 O    0.137
    22   6 C    3.921 --    43 H    0.977    44 H    0.977    45 H    0.964
                            21 N    0.929
    23   6 C    3.918 --    24 O    1.559    21 N    1.132    25 C    1.078
    24   8 O    1.874 --    23 C    1.559    21 N    0.137
    25   6 C    3.917 --     5 C    1.485    26 O    1.090    23 C    1.078
    26   8 O    2.072 --    25 C    1.090    46 H    0.809
    27   1 H    1.007 --     1 C    0.980
    28   1 H    1.010 --     1 C    0.986
    29   1 H    1.008 --     1 C    0.980
    30   1 H    1.016 --     9 C    0.986
    31   1 H    1.033 --     9 C    0.978
    32   1 H    1.031 --     9 C    0.983
    33   1 H    1.008 --    10 C    0.983
    34   1 H    1.031 --    10 C    0.973
    35   1 H    1.007 --    10 C    0.988
    36   1 H    0.986 --    11 N    0.949
    37   1 H    1.016 --    13 C    0.986
    38   1 H    1.019 --    13 C    0.987
    39   1 H    1.011 --    13 C    0.991
    40   1 H    1.001 --    19 C    0.971
    41   1 H    1.001 --    19 C    0.969
    42   1 H    1.002 --    19 C    0.985
    43   1 H    1.006 --    22 C    0.977
    44   1 H    1.010 --    22 C    0.977
    45   1 H    1.034 --    22 C    0.964
    46   1 H    0.859 --    26 O    0.809
 ---------------------------------------------------------------------------

           -------------------------------------------------
          | TOTAL ENERGY              -87.048736316174 Eh   |
          | GRADIENT NORM               0.000879321763 Eh/α |
          | HOMO-LUMO GAP               0.937920018340 eV   |
           -------------------------------------------------

 * finished run on 2023/06/20 at 15:15:13.066
