   * xtb version 6.5.1 (579679a) compiled by 'ehlert@majestix' on 2022-07-11
          program call               : /lustre/hpc/kemi/ree/PhD/git/ReactivityQM/dep/xtb-6.5.1/bin/xtb --gfn 1 /lustre/hpc/kemi/ree/PhD/git/ReactivityQM/calculations/R01/reac02prodN02/conf04/R01_reac02prodN02_conf04_gfn1.xyz --opt --vfukui --chrg 1 --uhf 0 --alpb DMSO

   ID    Z sym.   atoms
    1    6 C      1, 3-6, 8, 9, 12, 13, 15
    2    7 N      2, 7, 17
    3    8 O      10, 11, 14, 16
    4    1 H      18-33

      * Solvation model:               ALPB
        Solvent                        DMSO
        Solvent mass                       7.8130E+01 g/mol
          :  Hamiltonian                  GFN1-xTB          :
 * total energy  :   -57.8620297 Eh     change       -0.4696687E-11 Eh
 * total energy  :   -57.8703750 Eh     change       -0.8345327E-02 Eh
 * total energy  :   -57.8726085 Eh     change       -0.2233495E-02 Eh
 * total energy  :   -57.8730186 Eh     change       -0.4101444E-03 Eh
 * total energy  :   -57.8733204 Eh     change       -0.3018058E-03 Eh
 * total energy  :   -57.8734977 Eh     change       -0.1772389E-03 Eh
 * total energy  :   -57.8736550 Eh     change       -0.1573583E-03 Eh
 * total energy  :   -57.8737806 Eh     change       -0.1255835E-03 Eh
 * total energy  :   -57.8738595 Eh     change       -0.7887238E-04 Eh
 * total energy  :   -57.8739056 Eh     change       -0.4614963E-04 Eh
 * total energy  :   -57.8739338 Eh     change       -0.2819930E-04 Eh
 * total energy  :   -57.8739589 Eh     change       -0.2509319E-04 Eh
 * total energy  :   -57.8739795 Eh     change       -0.2062274E-04 Eh
 * total energy  :   -57.8739937 Eh     change       -0.1418616E-04 Eh
 * total energy  :   -57.8740124 Eh     change       -0.1868892E-04 Eh
 * total energy  :   -57.8740210 Eh     change       -0.8577952E-05 Eh
 * total energy  :   -57.8740248 Eh     change       -0.3754065E-05 Eh
   *** GEOMETRY OPTIMIZATION CONVERGED AFTER 17 ITERATIONS ***

 final structure:
================
33
 xtb: 6.5.1 (579679a)
C           -1.50671319559345        2.16774231488209       -0.32979240053654
N           -1.58428427169640        1.17100674177784        0.76536481546711
C           -1.82935639769830       -0.25219539076802        0.34106458743403
C           -2.10371405637108       -1.04291497337799        1.62509476820841
C           -3.01349064220425       -0.32606682525163       -0.61733634464903
C           -0.52319240329265       -0.71944119312454       -0.25916128930036
N            0.54988207633512       -0.08148661895358        0.06114906592234
C            1.77128385652021       -0.50405838769118       -0.41558040579533
C            2.95302914387832        0.30334698606915        0.01071746919516
O            4.09209422073904        0.08349960645016       -0.32162864682517
O            2.60076803226934        1.30648852715213        0.81515642912061
C            3.66253958754199        2.13961222820976        1.29767573335744
C            1.85298014928376       -1.60489449668042       -1.22482202788843
O            2.99200222570218       -2.07719035403424       -1.72601956888016
C            0.64302305644783       -2.34547714768156       -1.58815718459253
O            0.65010969093485       -3.33385599418186       -2.29837251721745
N           -0.51769959465110       -1.82538198614887       -1.04991512666157
H           -2.48480929472881        2.27232606636496       -0.78785825881058
H           -0.77102501525045        1.82721722692850       -1.05370271533153
H           -1.19627634036627        3.11097540344223        0.11267344272086
H           -2.30261079038066        1.45608457298457        1.42398843809249
H           -0.67618950658730        1.16917071225982        1.24456909687161
H           -2.19769941626680       -2.10008626900484        1.38305722193537
H           -1.28371522803452       -0.91218768088428        2.32975722280403
H           -3.03040170862704       -0.70107173933846        2.08211073440626
H           -3.31466625747908       -1.36564813468552       -0.73596032797278
H           -2.75750611119971        0.07804795926511       -1.59473719196474
H           -3.85602382305033        0.22728710533634       -0.20646414589136
H            3.20699469470915        2.85557256816316        1.97788327995318
H            4.13903141805950        2.65832740754886        0.46204490290264
H            4.40514487416901        1.53366417304401        1.82302695215410
H            2.80659877262993       -2.86401338903439       -2.27120257825450
H           -1.37610374574120       -2.30440001903875       -1.27462442997434

          :  Hamiltonian                  GFN1-xTB          :
         :: total energy             -57.874024751879 Eh    ::
         :: gradient norm              0.000633649723 Eh/a0 ::
         :: HOMO-LUMO gap              3.001076163109 eV    ::
         :: SCC energy               -58.456218758539 Eh    ::
         :: -> Gsolv                  -0.123776735972 Eh    ::
         :: repulsion energy           0.601508638955 Eh    ::

    * Orbital Energies and Occupations

         #    Occupation            Energy/Eh            Energy/eV
      -------------------------------------------------------------
         1        2.0000           -0.8873219             -24.1453
       ...           ...                  ...                  ...
        35        2.0000           -0.5603423             -15.2477
        36        2.0000           -0.5533459             -15.0573
        37        2.0000           -0.5489133             -14.9367
        38        2.0000           -0.5461766             -14.8622
        39        2.0000           -0.5357887             -14.5796
        40        2.0000           -0.5314377             -14.4612
        41        2.0000           -0.5215571             -14.1923
        42        2.0000           -0.5095517             -13.8656
        43        2.0000           -0.5028292             -13.6827
        44        2.0000           -0.4988108             -13.5733
        45        2.0000           -0.4836514             -13.1608
        46        2.0000           -0.4689538             -12.7609
        47        2.0000           -0.4498801             -12.2419 (HOMO)
        48                         -0.3395925              -9.2408 (LUMO)
        49                         -0.3086851              -8.3997
        50                         -0.2539196              -6.9095
        51                         -0.1821343              -4.9561
        52                         -0.1755688              -4.7775
        53                         -0.1717520              -4.6736
        54                         -0.1642328              -4.4690
        55                         -0.1458258              -3.9681
        56                         -0.1430306              -3.8921
        57                         -0.1380676              -3.7570
        58                         -0.1217685              -3.3135
       ...                                ...                  ...
       100                          0.7372186              20.0607
      -------------------------------------------------------------
                  HL-Gap            0.1102875 Eh            3.0011 eV

Wiberg/Mayer (AO) data.
largest (>0.10) Wiberg bond orders for each atom

     #   Z sym  total        # sym  WBO       # sym  WBO       # sym  WBO
 ---------------------------------------------------------------------------
     1   6 C    3.896 --    18 H    0.984    19 H    0.983    20 H    0.980
                             2 N    0.918
     2   7 N    3.603 --     1 C    0.918    21 H    0.891     3 C    0.889
                            22 H    0.875
     3   6 C    3.906 --     5 C    0.998     6 C    0.985     4 C    0.981
                             2 N    0.889
     4   6 C    3.980 --    24 H    0.981     3 C    0.981    25 H    0.979
                            23 H    0.978
     5   6 C    3.983 --     3 C    0.998    27 H    0.981    28 H    0.979
                            26 H    0.975
     6   6 C    3.942 --     7 N    1.587    17 N    1.182     3 C    0.985
     7   7 N    3.052 --     6 C    1.587     8 C    1.162
     8   6 C    3.957 --    13 C    1.505     7 N    1.162     9 C    0.996
     9   6 C    3.856 --    10 O    1.669    11 O    1.113     8 C    0.996
    10   8 O    1.935 --     9 C    1.669    11 O    0.137
    11   8 O    2.197 --     9 C    1.113    12 C    0.892    10 O    0.137
    12   6 C    3.866 --    29 H    0.986    31 H    0.979    30 H    0.979
                            11 O    0.892
    13   6 C    3.922 --     8 C    1.505    14 O    1.127    15 C    1.054
    14   8 O    2.105 --    13 C    1.127    32 H    0.802
    15   6 C    3.906 --    16 O    1.603    17 N    1.118    13 C    1.054
    16   8 O    1.926 --    15 C    1.603    17 N    0.132
    17   7 N    3.466 --     6 C    1.182    15 C    1.118    33 H    0.876
                            16 O    0.132
    18   1 H    0.993 --     1 C    0.984
    19   1 H    1.000 --     1 C    0.983
    20   1 H    0.989 --     1 C    0.980
    21   1 H    0.916 --     2 N    0.891
    22   1 H    0.948 --     2 N    0.875
    23   1 H    0.994 --     4 C    0.978
    24   1 H    0.994 --     4 C    0.981
    25   1 H    0.992 --     4 C    0.979
    26   1 H    0.994 --     5 C    0.975
    27   1 H    0.995 --     5 C    0.981
    28   1 H    0.992 --     5 C    0.979
    29   1 H    1.010 --    12 C    0.986
    30   1 H    1.005 --    12 C    0.979
    31   1 H    1.006 --    12 C    0.979
    32   1 H    0.838 --    14 O    0.802
    33   1 H    0.918 --    17 N    0.876
 ---------------------------------------------------------------------------

           -------------------------------------------------
          | TOTAL ENERGY              -57.874024751879 Eh   |
          | GRADIENT NORM               0.000633649723 Eh/α |
          | HOMO-LUMO GAP               3.001076163109 eV   |
           -------------------------------------------------

 * finished run on 2023/06/20 at 15:03:40.271
