   * xtb version 6.5.1 (579679a) compiled by 'ehlert@majestix' on 2022-07-11
          program call               : /lustre/hpc/kemi/ree/PhD/git/ReactivityQM/dep/xtb-6.5.1/bin/xtb --gfn 1 /lustre/hpc/kemi/ree/PhD/git/ReactivityQM/calculations/R01/reac01prodE01/conf02/R01_reac01prodE01_conf02_gfn1.xyz --opt --vfukui --chrg -1 --uhf 0 --alpb DMSO

   ID    Z sym.   atoms
    1    6 C      1, 3, 4, 6, 9, 10
    2    8 O      2, 5, 11
    3    7 N      7, 8
    4    1 H      12-20

      * Solvation model:               ALPB
        Solvent                        DMSO
        Solvent mass                       7.8130E+01 g/mol
          :  Hamiltonian                  GFN1-xTB          :
 * total energy  :   -38.3270994 Eh     change       -0.4682477E-11 Eh
 * total energy  :   -38.3343229 Eh     change       -0.7223506E-02 Eh
 * total energy  :   -38.3373697 Eh     change       -0.3046738E-02 Eh
 * total energy  :   -38.3379918 Eh     change       -0.6221232E-03 Eh
 * total energy  :   -38.3382702 Eh     change       -0.2784038E-03 Eh
 * total energy  :   -38.3383690 Eh     change       -0.9881806E-04 Eh
 * total energy  :   -38.3384380 Eh     change       -0.6899190E-04 Eh
 * total energy  :   -38.3384622 Eh     change       -0.2422805E-04 Eh
 * total energy  :   -38.3384708 Eh     change       -0.8603511E-05 Eh
 * total energy  :   -38.3384754 Eh     change       -0.4592556E-05 Eh
   *** GEOMETRY OPTIMIZATION CONVERGED AFTER 10 ITERATIONS ***

 final structure:
================
20
 xtb: 6.5.1 (579679a)
C           -2.27367188382701        0.87183675230686        0.62522384194424
O           -2.36326920684664        0.67775452009727       -0.75957015731668
C           -1.32969377729217       -0.20257139737244       -1.43142950333085
C           -1.41853713188900       -1.61333054363107       -0.76175678060623
O           -1.46822484917005       -0.19800176298070       -2.70815400022746
C            0.05528175928431        0.42579906189627       -0.99792798982182
N            0.49925976715233        1.61634294019565       -1.25957228668980
N            1.82028714413966        1.65336678433976       -0.85982498737016
C            2.08981466431002        0.48197561799970       -0.39190363875005
C            3.37455709268134        0.00612211410650        0.17579921714987
O            1.02701832369557       -0.34435153957099       -0.44976763013590
H           -1.24091093936989        1.07151319225229        0.95279429348790
H           -2.88571574758285        1.74352668435861        0.88210849501598
H           -2.65226100134561        0.01091628014093        1.19660278612642
H           -2.43117519017735       -1.99189592637715       -0.88597402070410
H           -0.72646395696018       -2.27333382790094       -1.28134218645451
H           -1.16193633261360       -1.58915933001950        0.29437158825260
H            4.13982533505142        0.76500026105607        0.03197486382147
H            3.68222632076735       -0.91950416589367       -0.30885693620491
H            3.26358760999228       -0.19200671500346        1.24194503181401

          :  Hamiltonian                  GFN1-xTB          :
         :: total energy             -38.338475428141 Eh    ::
         :: gradient norm              0.000743565232 Eh/a0 ::
         :: HOMO-LUMO gap              3.256243347229 eV    ::
         :: SCC energy               -38.647933738462 Eh    ::
         :: -> Gsolv                  -0.111686336628 Eh    ::
         :: repulsion energy           0.318287780026 Eh    ::

    * Orbital Energies and Occupations

         #    Occupation            Energy/Eh            Energy/eV
      -------------------------------------------------------------
         1        2.0000           -0.8217656             -22.3614
       ...           ...                  ...                  ...
        19        2.0000           -0.5136798             -13.9779
        20        2.0000           -0.5017482             -13.6533
        21        2.0000           -0.4822277             -13.1221
        22        2.0000           -0.4761692             -12.9572
        23        2.0000           -0.4625748             -12.5873
        24        2.0000           -0.4562087             -12.4141
        25        2.0000           -0.4484575             -12.2032
        26        2.0000           -0.4371910             -11.8966
        27        2.0000           -0.4171300             -11.3507
        28        2.0000           -0.4156842             -11.3113
        29        2.0000           -0.4091159             -11.1326
        30        2.0000           -0.3663943              -9.9701
        31        2.0000           -0.3485613              -9.4848 (HOMO)
        32                         -0.2288965              -6.2286 (LUMO)
        33                         -0.2135712              -5.8116
        34                         -0.1297976              -3.5320
        35                         -0.1103033              -3.0015
        36                         -0.0875457              -2.3822
        37                         -0.0627346              -1.7071
        38                         -0.0616699              -1.6781
        39                         -0.0512787              -1.3954
        40                         -0.0446083              -1.2139
        41                         -0.0254778              -0.6933
        42                         -0.0172207              -0.4686
       ...                                ...                  ...
        62                          0.6114941              16.6396
      -------------------------------------------------------------
                  HL-Gap            0.1196647 Eh            3.2562 eV

Wiberg/Mayer (AO) data.
largest (>0.10) Wiberg bond orders for each atom

     #   Z sym  total        # sym  WBO       # sym  WBO       # sym  WBO
 ---------------------------------------------------------------------------
     1   6 C    3.941 --     2 O    0.982    13 H    0.981    14 H    0.979
                            12 H    0.975
     2   8 O    1.943 --     1 C    0.982     3 C    0.781
     3   6 C    3.895 --     5 O    1.262     4 C    0.940     6 C    0.862
                             2 O    0.781
     4   6 C    3.993 --    17 H    0.988    15 H    0.987    16 H    0.986
                             3 C    0.940
     5   8 O    1.538 --     3 C    1.262
     6   6 C    3.801 --     7 N    1.653    11 O    1.042     3 C    0.862
     7   7 N    2.965 --     6 C    1.653     8 N    1.152
     8   7 N    2.976 --     9 C    1.654     7 N    1.152
     9   6 C    3.887 --     8 N    1.654    11 O    1.062    10 C    1.024
    10   6 C    3.993 --     9 C    1.024    18 H    0.985    19 H    0.972
                            20 H    0.968
    11   8 O    2.292 --     9 C    1.062     6 C    1.042
    12   1 H    1.018 --     1 C    0.975
    13   1 H    1.022 --     1 C    0.981
    14   1 H    1.018 --     1 C    0.979
    15   1 H    1.013 --     4 C    0.987
    16   1 H    1.018 --     4 C    0.986
    17   1 H    1.009 --     4 C    0.988
    18   1 H    1.002 --    10 C    0.985
    19   1 H    1.001 --    10 C    0.972
    20   1 H    1.002 --    10 C    0.968
 ---------------------------------------------------------------------------

           -------------------------------------------------
          | TOTAL ENERGY              -38.338475428141 Eh   |
          | GRADIENT NORM               0.000743565232 Eh/α |
          | HOMO-LUMO GAP               3.256243347229 eV   |
           -------------------------------------------------

 * finished run on 2023/06/20 at 14:52:30.495
