   * xtb version 6.5.1 (579679a) compiled by 'ehlert@majestix' on 2022-07-11
          program call               : /lustre/hpc/kemi/ree/PhD/git/ReactivityQM/dep/xtb-6.5.1/bin/xtb --gfn 1 /lustre/hpc/kemi/ree/PhD/git/ReactivityQM/calculations/R02methylcation/reac01prodE10/conf18/R02methylcation_reac01prodE10_conf18_gfn1.xyz --opt --vfukui --chrg -2 --uhf 0 --alpb DMSO

   ID    Z sym.   atoms
    1    6 C      1, 3, 5, 7-10, 12, 14, 17-19, 22, 24
    2    8 O      2, 4, 13, 20, 23, 25
    3    7 N      6, 11, 15, 16, 21
    4    1 H      26-42

      * Solvation model:               ALPB
        Solvent                        DMSO
        Solvent mass                       7.8130E+01 g/mol
          :  Hamiltonian                  GFN1-xTB          :
 * total energy  :   -83.5626811 Eh     change       -0.5231016E-10 Eh
 * total energy  :   -83.5782191 Eh     change       -0.1553797E-01 Eh
 * total energy  :   -83.5842713 Eh     change       -0.6052273E-02 Eh
 * total energy  :   -83.5852588 Eh     change       -0.9875044E-03 Eh
 * total energy  :   -83.5861065 Eh     change       -0.8476207E-03 Eh
 * total energy  :   -83.5864322 Eh     change       -0.3256809E-03 Eh
 * total energy  :   -83.5868407 Eh     change       -0.4085363E-03 Eh
 * total energy  :   -83.5870140 Eh     change       -0.1733559E-03 Eh
 * total energy  :   -83.5871075 Eh     change       -0.9344401E-04 Eh
 * total energy  :   -83.5871534 Eh     change       -0.4594936E-04 Eh
 * total energy  :   -83.5874357 Eh     change       -0.3297852E-04 Eh
 * total energy  :   -83.5874730 Eh     change       -0.3733447E-04 Eh
 * total energy  :   -83.5874861 Eh     change       -0.1311778E-04 Eh
 * total energy  :   -83.5875019 Eh     change       -0.1576758E-04 Eh
 * total energy  :   -83.5875079 Eh     change       -0.5966377E-05 Eh
 * total energy  :   -83.5875248 Eh     change       -0.1692796E-04 Eh
 * total energy  :   -83.5875297 Eh     change       -0.4959561E-05 Eh
 * total energy  :   -83.5875361 Eh     change       -0.6352444E-05 Eh
 * total energy  :   -83.5875387 Eh     change       -0.2616973E-05 Eh
   *** GEOMETRY OPTIMIZATION CONVERGED AFTER 28 ITERATIONS ***

 final structure:
================
42
 xtb: 6.5.1 (579679a)
C            6.59558425093219        2.92242757339636        0.54801329569364
O            5.35938196560612        2.70864631636826       -0.10831780290147
C            4.64426571028911        1.61972084102844        0.31818370150368
O            5.09312523485202        0.91264324590111        1.22345025367960
C            3.38908313737730        1.40766960969122       -0.36433276338883
N            2.70642245120035        0.29052244775427        0.09927099748322
C            1.57135612272367       -0.04124173195177       -0.39494963899992
C            0.82171152871084       -1.26627634040840        0.11123070577075
C            1.68076871389208       -1.94840218563328        1.18513565937162
C            0.58570302142579       -2.22992312175588       -1.07076200383325
N           -0.43535896204934       -0.78992599915741        0.69912639433511
C           -1.45480149718980       -1.79859807599785        0.99516025869147
O           -1.11182947714566       -2.97659736318697        1.36679886806711
C           -2.73405999351028       -1.32837423194262        0.91768080501021
N           -3.94093117945634       -2.01722166243178        1.17007921621294
N           -4.87567374479881       -1.12582684079434        0.87568241224734
C           -6.26291948079764       -1.49598229049906        1.01737330367394
C           -4.42007825505803        0.04473092605702        0.48005835867322
C           -5.20446163389809        1.23566796441118        0.06776922584347
O           -3.05110598965210        0.03333591811245        0.47645992414275
N            0.98352391306488        0.69945203937588       -1.40202180378522
C            1.54964920924052        1.81988501384122       -1.96200778700840
O            0.95283404499808        2.40926184627664       -2.87279932986576
C            2.87712990402975        2.23759739259347       -1.40317600533275
O            3.43613438175439        3.25700053372267       -1.87181374507608
H            7.26352637326996        2.06365208951754        0.41770860931745
H            6.44838417996905        3.08901035073781        1.62103730821439
H            7.04963963336809        3.80699145472623        0.10159011014053
H            1.19380616195856       -2.85265918373806        1.54660685832314
H            1.83167530387106       -1.26760333719937        2.02391678825420
H            2.65347461535798       -2.21197688285875        0.76864248819335
H            0.14929957337286       -3.16250275546813       -0.71452213857959
H            1.53280872853424       -2.44998276214200       -1.56380651815366
H           -0.09219856718791       -1.78425178650562       -1.79792843137103
H           -0.84812195354922       -0.07897632307206        0.10011143864337
H           -6.72470430037986       -0.91260079834708        1.81379971901854
H           -6.79310831595452       -1.30880708637111        0.08476656605988
H           -6.30598594786578       -2.55470089522949        1.26315718500658
H           -5.89346378610700        1.54513832817751        0.85584515892562
H           -4.52172382346897        2.05609192150675       -0.14546338220387
H           -5.79695359324436        1.03143969841830       -0.82721876710399
H            0.09819434151520        0.41154414307393       -1.78640149289540

          :  Hamiltonian                  GFN1-xTB          :
         :: total energy             -83.587538718063 Eh    ::
         :: gradient norm              0.000569543342 Eh/a0 ::
         :: HOMO-LUMO gap              0.132997367107 eV    ::
         :: SCC energy               -84.324034918018 Eh    ::
         :: -> Gsolv                  -0.287774320162 Eh    ::
         :: repulsion energy           0.761600302930 Eh    ::

    * Orbital Energies and Occupations

         #    Occupation            Energy/Eh            Energy/eV
      -------------------------------------------------------------
         1        2.0000           -0.8030999             -21.8535
       ...           ...                  ...                  ...
        56        2.0000           -0.4456957             -12.1280
        57        2.0000           -0.4399686             -11.9722
        58        2.0000           -0.4321126             -11.7584
        59        2.0000           -0.4186849             -11.3930
        60        2.0000           -0.4157660             -11.3136
        61        2.0000           -0.4063991             -11.0587
        62        2.0000           -0.3922869             -10.6747
        63        2.0000           -0.3734815             -10.1629
        64        2.0000           -0.3699055             -10.0656
        65        2.0000           -0.3587149              -9.7611
        66        2.0000           -0.3491688              -9.5014
        67        2.0000           -0.3446851              -9.3794
        68        1.8581           -0.2582414              -7.0271 (HOMO)
        69        0.1419           -0.2533539              -6.8941 (LUMO)
        70                         -0.2249829              -6.1221
        71                         -0.2136237              -5.8130
        72                         -0.1780140              -4.8440
        73                         -0.1392171              -3.7883
        74                         -0.1230907              -3.3495
        75                         -0.1153645              -3.1392
        76                         -0.1056043              -2.8736
        77                         -0.0979470              -2.6653
        78                         -0.0887892              -2.4161
        79                         -0.0845242              -2.3000
       ...                                ...                  ...
       134                          0.7520414              20.4641
      -------------------------------------------------------------
                  HL-Gap            0.0048876 Eh            0.1330 eV

Wiberg/Mayer (AO) data.
largest (>0.10) Wiberg bond orders for each atom

     #   Z sym  total        # sym  WBO       # sym  WBO       # sym  WBO
 ---------------------------------------------------------------------------
     1   6 C    3.908 --    28 H    0.987    27 H    0.980    26 H    0.980
                             2 O    0.936
     2   8 O    2.131 --     3 C    1.015     1 C    0.936     4 O    0.100
     3   6 C    3.811 --     4 O    1.538     5 C    1.153     2 O    1.015
     4   8 O    1.804 --     3 C    1.538     2 O    0.100
     5   6 C    3.899 --    24 C    1.255     3 C    1.153     6 N    1.136
                            25 O    0.122
     6   7 N    3.012 --     7 C    1.639     5 C    1.136
     7   6 C    3.925 --     6 N    1.639    21 N    1.094     8 C    0.974
     8   6 C    3.967 --     9 C    0.998    10 C    0.978     7 C    0.974
                            11 N    0.964
     9   6 C    3.996 --     8 C    0.998    31 H    0.988    30 H    0.986
                            29 H    0.980
    10   6 C    3.993 --    33 H    0.988    34 H    0.984    32 H    0.980
                             8 C    0.978
    11   7 N    3.042 --     8 C    0.964    12 C    0.940    35 H    0.940
    12   6 C    3.889 --    14 C    1.488    13 O    1.304    11 N    0.940
    13   8 O    1.635 --    12 C    1.304    14 C    0.141
    14   6 C    3.662 --    12 C    1.488    15 N    1.090    20 O    0.837
                            13 O    0.141
    15   7 N    2.742 --    16 N    1.187    14 C    1.090    18 C    0.302
    16   7 N    3.634 --    18 C    1.370    15 N    1.187    17 C    0.951
    17   6 C    3.954 --    38 H    0.985    37 H    0.982    36 H    0.980
                            16 N    0.951
    18   6 C    3.833 --    16 N    1.370    20 O    1.029    19 C    1.025
                            15 N    0.302
    19   6 C    3.993 --    18 C    1.025    40 H    0.983    39 H    0.973
                            41 H    0.970
    20   8 O    2.083 --    18 C    1.029    14 C    0.837
    21   7 N    3.405 --    22 C    1.147     7 C    1.094    42 H    0.902
                            23 O    0.126
    22   6 C    3.834 --    23 O    1.532    21 N    1.147    24 C    0.998
    23   8 O    1.795 --    22 C    1.532    21 N    0.126
    24   6 C    3.911 --    25 O    1.483     5 C    1.255    22 C    0.998
    25   8 O    1.769 --    24 C    1.483     5 C    0.122
    26   1 H    1.017 --     1 C    0.980
    27   1 H    1.017 --     1 C    0.980
    28   1 H    1.017 --     1 C    0.987
    29   1 H    1.035 --     9 C    0.980
    30   1 H    1.022 --     9 C    0.986
    31   1 H    1.017 --     9 C    0.988
    32   1 H    1.023 --    10 C    0.980
    33   1 H    1.007 --    10 C    0.988
    34   1 H    1.006 --    10 C    0.984
    35   1 H    0.984 --    11 N    0.940
    36   1 H    1.003 --    17 C    0.980
    37   1 H    1.002 --    17 C    0.982
    38   1 H    1.013 --    17 C    0.985
    39   1 H    1.003 --    19 C    0.973
    40   1 H    1.002 --    19 C    0.983
    41   1 H    1.002 --    19 C    0.970
    42   1 H    0.955 --    21 N    0.902
 ---------------------------------------------------------------------------

           -------------------------------------------------
          | TOTAL ENERGY              -83.587538718063 Eh   |
          | GRADIENT NORM               0.000569543342 Eh/α |
          | HOMO-LUMO GAP               0.132997367107 eV   |
           -------------------------------------------------

 * finished run on 2023/06/21 at 17:22:17.139
