   * xtb version 6.5.1 (579679a) compiled by 'ehlert@majestix' on 2022-07-11
          program call               : /lustre/hpc/kemi/ree/PhD/git/ReactivityQM/dep/xtb-6.5.1/bin/xtb --gfn 1 /lustre/hpc/kemi/ree/PhD/git/ReactivityQM/calculations/R02methylcation/reac01prodE02/conf18/R02methylcation_reac01prodE02_conf18_gfn1.xyz --opt --vfukui --chrg -2 --uhf 0 --alpb DMSO

   ID    Z sym.   atoms
    1    6 C      1, 3, 4, 6, 8-11, 13, 15, 18, 19, 22, 24
    2    8 O      2, 5, 14, 20, 23, 25
    3    7 N      7, 12, 16, 17, 21
    4    1 H      26-42

      * Solvation model:               ALPB
        Solvent                        DMSO
        Solvent mass                       7.8130E+01 g/mol
          :  Hamiltonian                  GFN1-xTB          :
 * total energy  :   -83.5953323 Eh     change       -0.5727969E-09 Eh
 * total energy  :   -83.6080390 Eh     change       -0.1270673E-01 Eh
 * total energy  :   -83.6134659 Eh     change       -0.5426834E-02 Eh
 * total energy  :   -83.6149230 Eh     change       -0.1457119E-02 Eh
 * total energy  :   -83.6161198 Eh     change       -0.1196809E-02 Eh
 * total energy  :   -83.6168235 Eh     change       -0.7036679E-03 Eh
 * total energy  :   -83.6173331 Eh     change       -0.5096769E-03 Eh
 * total energy  :   -83.6176510 Eh     change       -0.3178560E-03 Eh
 * total energy  :   -83.6178363 Eh     change       -0.1852671E-03 Eh
 * total energy  :   -83.6179976 Eh     change       -0.1613045E-03 Eh
 * total energy  :   -83.6196909 Eh     change       -0.8765217E-05 Eh
 * total energy  :   -83.6196976 Eh     change       -0.6771072E-05 Eh
 * total energy  :   -83.6197031 Eh     change       -0.5475166E-05 Eh
 * total energy  :   -83.6197167 Eh     change       -0.1362569E-04 Eh
 * total energy  :   -83.6197230 Eh     change       -0.6266730E-05 Eh
 * total energy  :   -83.6197345 Eh     change       -0.1145066E-04 Eh
 * total energy  :   -83.6197402 Eh     change       -0.5710130E-05 Eh
 * total energy  :   -83.6197459 Eh     change       -0.5740876E-05 Eh
 * total energy  :   -83.6197503 Eh     change       -0.4421535E-05 Eh
   *** GEOMETRY OPTIMIZATION CONVERGED AFTER 70 ITERATIONS ***

 final structure:
================
42
 xtb: 6.5.1 (579679a)
C           -4.06151888291250       -1.97313354901297        1.84850980082098
O           -3.35651534815979       -1.82391163755506        0.65534794598113
C           -3.89171474909343       -0.66809042663061       -0.29481767393262
C           -4.74829020370462       -1.48122914671670       -1.32001311075578
O           -4.55496613729320        0.23721215727430        0.34498441873221
C           -2.54079449310183       -0.15974223917221       -0.92022407309489
N           -1.66853193810299        0.28764959874334        0.03105540721171
C           -0.52855974368264        0.79816390109477       -0.28639342055823
C            0.41499015402404        1.32262358057586        0.77619333715502
C            0.48268316219655        2.85615308856634        0.70046309265712
C           -0.06335537170167        0.86168086299819        2.15620795617428
N            1.75844082070343        0.76788008428006        0.50468770911659
C            2.84196302167354        1.03470533292469        1.24596645346353
O            2.87346665439480        1.73258349036822        2.25118671212755
C            4.07582208263489        0.37632067386702        0.73144427673574
N            5.26734594078359        0.43057590414423        1.24390953151798
N            6.07732104269743       -0.31609542272932        0.43869042133280
C            5.33021334329933       -0.77847216707774       -0.51500492157048
C            5.74107856729607       -1.63772396617244       -1.64693182774283
O            4.05404308112963       -0.37973166745489       -0.38853673315215
N           -0.15015924476587        0.93644094206110       -1.60723512935274
C           -0.94188293530062        0.53623589129720       -2.65985369892811
O           -0.51341281387039        0.69698676497788       -3.81612644993649
C           -2.26185337888648       -0.06286823031526       -2.29637613696869
O           -3.02142722109009       -0.43773531595761       -3.24431025371307
H           -4.53279052902413       -1.02788981149489        2.17561471908607
H           -4.86056809165260       -2.73513515794825        1.77539735127348
H           -3.37319840632579       -2.29354412169089        2.64464094197210
H           -4.16770179542065       -2.26334667751393       -1.80640774550939
H           -5.57775801471993       -1.93538778047244       -0.77652658747561
H           -5.15588839539944       -0.80496122555750       -2.06987172019895
H           -0.52004333473359        3.26693178785289        0.81319762260465
H            0.88424503171134        3.16393437563964       -0.26345334693454
H            1.11746632843212        3.25519836985479        1.48934355312320
H            0.56937861168187        1.26992469831756        2.94096763432266
H           -1.08770360125172        1.20141677419929        2.30884923864610
H           -0.04544332427601       -0.22647850746782        2.21046624917144
H            1.87518622209240        0.18558846375960       -0.31006833033017
H            6.78476716372629       -1.91753222888271       -1.53013408978558
H            5.12273047494818       -2.53422207527972       -1.68195808838957
H            5.61399362617502       -1.10133904009762       -2.58741742960389
H            0.73894262487618        1.34036165240384       -1.84059660527116

          :  Hamiltonian                  GFN1-xTB          :
         :: total energy             -83.619750328719 Eh    ::
         :: gradient norm              0.000677878498 Eh/a0 ::
         :: HOMO-LUMO gap              0.317955414680 eV    ::
         :: SCC energy               -84.358807907904 Eh    ::
         :: -> Gsolv                  -0.303183539723 Eh    ::
         :: repulsion energy           0.764668206569 Eh    ::

    * Orbital Energies and Occupations

         #    Occupation            Energy/Eh            Energy/eV
      -------------------------------------------------------------
         1        2.0000           -0.8571585             -23.3245
       ...           ...                  ...                  ...
        56        2.0000           -0.4426767             -12.0458
        57        2.0000           -0.4381865             -11.9237
        58        2.0000           -0.4309770             -11.7275
        59        2.0000           -0.4275678             -11.6347
        60        2.0000           -0.4132683             -11.2456
        61        2.0000           -0.4065415             -11.0626
        62        2.0000           -0.4011387             -10.9155
        63        2.0000           -0.3791822             -10.3181
        64        2.0000           -0.3751403             -10.2081
        65        2.0000           -0.3490310              -9.4976
        66        2.0000           -0.3346669              -9.1067
        67        2.0000           -0.3164720              -8.6116
        68        1.9957           -0.3101209              -8.4388 (HOMO)
        69        0.0043           -0.2984362              -8.1209 (LUMO)
        70                         -0.2497596              -6.7963
        71                         -0.2163004              -5.8858
        72                         -0.2002568              -5.4493
        73                         -0.1866192              -5.0782
        74                         -0.1384849              -3.7684
        75                         -0.1082392              -2.9453
        76                         -0.1033966              -2.8136
        77                         -0.0916711              -2.4945
        78                         -0.0894921              -2.4352
        79                         -0.0825759              -2.2470
       ...                                ...                  ...
       134                          0.7457276              20.2923
      -------------------------------------------------------------
                  HL-Gap            0.0116846 Eh            0.3180 eV

Wiberg/Mayer (AO) data.
largest (>0.10) Wiberg bond orders for each atom

     #   Z sym  total        # sym  WBO       # sym  WBO       # sym  WBO
 ---------------------------------------------------------------------------
     1   6 C    3.948 --     2 O    1.002    28 H    0.981    27 H    0.978
                            26 H    0.966
     2   8 O    1.899 --     1 C    1.002     3 C    0.701
     3   6 C    3.887 --     5 O    1.270     4 C    0.946     6 C    0.914
                             2 O    0.701
     4   6 C    3.989 --    29 H    0.990    30 H    0.987    31 H    0.984
                             3 C    0.946
     5   8 O    1.554 --     3 C    1.270
     6   6 C    3.924 --    24 C    1.347     7 N    1.241     3 C    0.914
                            25 O    0.138
     7   7 N    3.036 --     8 C    1.563     6 C    1.241
     8   6 C    3.923 --     7 N    1.563    21 N    1.091     9 C    0.978
     9   6 C    3.922 --    11 C    0.996    10 C    0.983     8 C    0.978
                            12 N    0.900
    10   6 C    3.991 --    32 H    0.986    33 H    0.985     9 C    0.983
                            34 H    0.982
    11   6 C    3.993 --     9 C    0.996    37 H    0.986    35 H    0.985
                            36 H    0.983
    12   7 N    3.371 --    13 C    1.293     9 C    0.900    38 H    0.898
                            14 O    0.184
    13   6 C    3.921 --    14 O    1.562    12 N    1.293    15 C    0.985
    14   8 O    1.882 --    13 C    1.562    12 N    0.184
    15   6 C    3.865 --    16 N    1.624    20 O    1.047    13 C    0.985
    16   7 N    2.993 --    15 C    1.624    17 N    1.193
    17   7 N    2.980 --    18 C    1.615    16 N    1.193
    18   6 C    3.871 --    17 N    1.615    20 O    1.073    19 C    1.031
    19   6 C    3.988 --    18 C    1.031    39 H    0.983    40 H    0.966
                            41 H    0.962
    20   8 O    2.315 --    18 C    1.073    15 C    1.047
    21   7 N    3.413 --    22 C    1.143     8 C    1.091    42 H    0.907
                            23 O    0.127
    22   6 C    3.879 --    23 O    1.504    21 N    1.143    24 C    1.024
    23   8 O    1.796 --    22 C    1.504    21 N    0.127
    24   6 C    3.956 --    25 O    1.395     6 C    1.347    22 C    1.024
    25   8 O    1.737 --    24 C    1.395     6 C    0.138
    26   1 H    1.038 --     1 C    0.966
    27   1 H    1.022 --     1 C    0.978
    28   1 H    1.027 --     1 C    0.981
    29   1 H    1.029 --     4 C    0.990
    30   1 H    1.022 --     4 C    0.987
    31   1 H    1.037 --     4 C    0.984
    32   1 H    1.006 --    10 C    0.986
    33   1 H    1.006 --    10 C    0.985
    34   1 H    1.011 --    10 C    0.982
    35   1 H    1.013 --    11 C    0.985
    36   1 H    1.020 --    11 C    0.983
    37   1 H    1.012 --    11 C    0.986
    38   1 H    0.948 --    12 N    0.898
    39   1 H    0.999 --    19 C    0.983
    40   1 H    0.997 --    19 C    0.966
    41   1 H    0.997 --    19 C    0.962
    42   1 H    0.957 --    21 N    0.907
 ---------------------------------------------------------------------------

           -------------------------------------------------
          | TOTAL ENERGY              -83.619750328719 Eh   |
          | GRADIENT NORM               0.000677878498 Eh/α |
          | HOMO-LUMO GAP               0.317955414680 eV   |
           -------------------------------------------------

 * finished run on 2023/06/21 at 17:07:14.785
