   * xtb version 6.5.1 (579679a) compiled by 'ehlert@majestix' on 2022-07-11
          program call               : /lustre/hpc/kemi/ree/PhD/git/ReactivityQM/dep/xtb-6.5.1/bin/xtb --gfn 1 /lustre/hpc/kemi/ree/PhD/git/ReactivityQM/calculations/R02oxygendeprot/reac01prodN06/conf16/R02oxygendeprot_reac01prodN06_conf16_gfn1.xyz --opt --vfukui --chrg 0 --uhf 0 --alpb DMSO

   ID    Z sym.   atoms
    1    6 C      1, 3, 5, 7-10, 12, 14, 16, 17, 20, 22, 24
    2    8 O      2, 4, 13, 15, 23, 25
    3    7 N      6, 11, 18, 19, 21
    4    1 H      26-42

      * Solvation model:               ALPB
        Solvent                        DMSO
        Solvent mass                       7.8130E+01 g/mol
          :  Hamiltonian                  GFN1-xTB          :
 * total energy  :   -82.9549155 Eh     change       -0.7105427E-13 Eh
 * total energy  :   -82.9690382 Eh     change       -0.1412270E-01 Eh
 * total energy  :   -82.9759276 Eh     change       -0.6889325E-02 Eh
 * total energy  :   -82.9775082 Eh     change       -0.1580640E-02 Eh
 * total energy  :   -82.9789031 Eh     change       -0.1394931E-02 Eh
 * total energy  :   -82.9795967 Eh     change       -0.6936192E-03 Eh
 * total energy  :   -82.9801261 Eh     change       -0.5293399E-03 Eh
 * total energy  :   -82.9805804 Eh     change       -0.4542719E-03 Eh
 * total energy  :   -82.9809164 Eh     change       -0.3360149E-03 Eh
 * total energy  :   -82.9811274 Eh     change       -0.2109848E-03 Eh
 * total energy  :   -82.9821294 Eh     change       -0.1838255E-04 Eh
 * total energy  :   -82.9821414 Eh     change       -0.1197148E-04 Eh
 * total energy  :   -82.9821579 Eh     change       -0.1647550E-04 Eh
 * total energy  :   -82.9821745 Eh     change       -0.1656939E-04 Eh
 * total energy  :   -82.9821866 Eh     change       -0.1213749E-04 Eh
 * total energy  :   -82.9821963 Eh     change       -0.9681818E-05 Eh
 * total energy  :   -82.9822065 Eh     change       -0.1028005E-04 Eh
 * total energy  :   -82.9822161 Eh     change       -0.9526353E-05 Eh
 * total energy  :   -82.9822211 Eh     change       -0.4983306E-05 Eh
   *** GEOMETRY OPTIMIZATION CONVERGED AFTER 37 ITERATIONS ***

 final structure:
================
42
 xtb: 6.5.1 (579679a)
C           -5.89658741814667        1.72916095380527        0.50146975291267
O           -4.69357607171882        0.99616135865017        0.30305851560731
C           -4.61543281504585        0.29042640111158       -0.86178690039811
O           -5.53444218284837        0.30936763140107       -1.66244037938656
C           -3.35803628681787       -0.43704958692298       -0.98783145771244
N           -2.47426953528097       -0.27603429591968        0.05599491474397
C           -1.34424425869657       -0.88335090156626        0.06104911531439
C           -0.40482929544465       -0.70158522833554        1.23973681026014
C           -1.02391344719760        0.28063972026536        2.23498978356180
C           -0.10037900301669       -2.03233330945148        1.93368353490618
N            0.84912212170255       -0.06901032788667        0.76251063569969
C            1.84920572757098       -0.69216806567583        0.14163087404859
O            1.90737816206389       -1.86290571205202       -0.19999484547851
C            2.99974752852660        0.22339722230304       -0.13851944260062
O            2.99704672005129        1.51458295802149        0.17868965998727
C            4.20023341082640        1.99193961343762       -0.18932828413715
C            4.54560270137402        3.40668532379094        0.02872143225072
N            4.93408101216994        1.05816727663971       -0.71555183170930
N            4.17042416953972       -0.05284206198727       -0.67810405482004
C            4.72107924818885       -1.29552539558926       -1.17651331431323
N           -0.95651451297247       -1.71020218110270       -0.96889558774431
C           -1.72078275252339       -1.94299022887552       -2.08632064834114
O           -1.29684414966589       -2.67611285435571       -2.97349311676688
C           -3.06802764282997       -1.25307386072299       -2.11747626053899
O           -3.80919303780392       -1.43273118057474       -3.09592561025278
H           -6.04483400002345        2.45484911235110       -0.30453608974493
H           -5.79662363491091        2.24988536035229        1.45254598779298
H           -6.75859866238549        1.05499528834871        0.53648945399296
H           -0.34127490731737        0.45158846058465        3.06456040714415
H           -1.95710197966282       -0.13107841118950        2.61706610769917
H           -1.24052446845014        1.22842428597411        1.74398693107999
H            0.25738283458283       -2.77945338935886        1.22946602717234
H            0.65538239796541       -1.88249468678627        2.70213744488964
H           -1.01262679413804       -2.40099543127716        2.40132003311507
H            0.96525689953887        0.90865534417274        0.97409154446211
H            3.81261897949565        4.04584822338593       -0.46409919468427
H            4.51631235943665        3.62858312753264        1.09610579785129
H            5.53966538379167        3.60916798661149       -0.36206048559183
H            3.98739656684832       -2.08619379010741       -1.04143182737251
H            5.62955114881830       -1.51130079487851       -0.61655412888643
H            4.96322904375742       -1.16652299498018       -2.23064033138102
H           -0.05205955935346       -2.15657295915256       -0.93548397263285

          :  Hamiltonian                  GFN1-xTB          :
         :: total energy             -82.982221059159 Eh    ::
         :: gradient norm              0.000474246873 Eh/a0 ::
         :: HOMO-LUMO gap              0.205340765510 eV    ::
         :: SCC energy               -83.768960598802 Eh    ::
         :: -> Gsolv                  -0.115805400748 Eh    ::
         :: repulsion energy           0.812123778118 Eh    ::

    * Orbital Energies and Occupations

         #    Occupation            Energy/Eh            Energy/eV
      -------------------------------------------------------------
         1        2.0000           -0.9275772             -25.2407
       ...           ...                  ...                  ...
        55        2.0000           -0.5101500             -13.8819
        56        2.0000           -0.5051062             -13.7446
        57        2.0000           -0.5011536             -13.6371
        58        2.0000           -0.4916108             -13.3774
        59        2.0000           -0.4863158             -13.2333
        60        2.0000           -0.4743690             -12.9082
        61        2.0000           -0.4704000             -12.8002
        62        2.0000           -0.4640830             -12.6283
        63        2.0000           -0.4484153             -12.2020
        64        2.0000           -0.4446652             -12.1000
        65        2.0000           -0.4264379             -11.6040
        66        2.0000           -0.3861798             -10.5085
        67        1.9630           -0.3749634             -10.2033 (HOMO)
        68        0.0370           -0.3674173              -9.9979 (LUMO)
        69                         -0.3156209              -8.5885
        70                         -0.2774594              -7.5501
        71                         -0.2519800              -6.8567
        72                         -0.2445793              -6.6553
        73                         -0.2036709              -5.5422
        74                         -0.1654257              -4.5015
        75                         -0.1633790              -4.4458
        76                         -0.1315338              -3.5792
        77                         -0.1259260              -3.4266
        78                         -0.1245160              -3.3883
       ...                                ...                  ...
       134                          0.7632986              20.7704
      -------------------------------------------------------------
                  HL-Gap            0.0075461 Eh            0.2053 eV

Wiberg/Mayer (AO) data.
largest (>0.10) Wiberg bond orders for each atom

     #   Z sym  total        # sym  WBO       # sym  WBO       # sym  WBO
 ---------------------------------------------------------------------------
     1   6 C    3.895 --    27 H    0.987    28 H    0.980    26 H    0.980
                             2 O    0.922
     2   8 O    2.143 --     3 C    1.037     1 C    0.922     4 O    0.112
     3   6 C    3.847 --     4 O    1.604     5 C    1.100     2 O    1.037
     4   8 O    1.871 --     3 C    1.604     2 O    0.112
     5   6 C    3.876 --    24 C    1.249     6 N    1.173     3 C    1.100
                            25 O    0.118
     6   7 N    3.028 --     7 C    1.611     5 C    1.173
     7   6 C    3.919 --     6 N    1.611    21 N    1.109     8 C    0.965
     8   6 C    3.911 --     9 C    1.001    10 C    0.990     7 C    0.965
                            11 N    0.888
     9   6 C    3.990 --     8 C    1.001    29 H    0.986    31 H    0.982
                            30 H    0.981
    10   6 C    3.987 --     8 C    0.990    33 H    0.984    34 H    0.983
                            32 H    0.979
    11   7 N    3.397 --    12 C    1.319    35 H    0.889     8 C    0.888
                            13 O    0.197
    12   6 C    3.917 --    13 O    1.549    11 N    1.319    14 C    0.970
    13   8 O    1.924 --    12 C    1.549    11 N    0.197
    14   6 C    3.797 --    19 N    1.425    15 O    1.109    12 C    0.970
    15   8 O    2.347 --    14 C    1.109    16 C    1.064
    16   6 C    3.839 --    18 N    1.587    15 O    1.064    17 C    1.042
    17   6 C    3.972 --    16 C    1.042    38 H    0.978    36 H    0.952
                            37 H    0.949
    18   7 N    2.959 --    16 C    1.587    19 N    1.146
    19   7 N    3.613 --    14 C    1.425    18 N    1.146    20 C    0.911
    20   6 C    3.882 --    39 H    0.972    40 H    0.966    41 H    0.966
                            19 N    0.911
    21   7 N    3.427 --    22 C    1.156     7 C    1.109    42 H    0.880
                            23 O    0.134
    22   6 C    3.874 --    23 O    1.590    21 N    1.156    24 C    0.963
    23   8 O    1.861 --    22 C    1.590    21 N    0.134
    24   6 C    3.931 --    25 O    1.541     5 C    1.249    22 C    0.963
    25   8 O    1.822 --    24 C    1.541     5 C    0.118
    26   1 H    1.013 --     1 C    0.980
    27   1 H    1.015 --     1 C    0.987
    28   1 H    1.012 --     1 C    0.980
    29   1 H    0.999 --     9 C    0.986
    30   1 H    1.009 --     9 C    0.981
    31   1 H    1.008 --     9 C    0.982
    32   1 H    1.008 --    10 C    0.979
    33   1 H    0.999 --    10 C    0.984
    34   1 H    1.001 --    10 C    0.983
    35   1 H    0.930 --    11 N    0.889
    36   1 H    0.990 --    17 C    0.952
    37   1 H    0.989 --    17 C    0.949
    38   1 H    0.991 --    17 C    0.978
    39   1 H    1.005 --    20 C    0.972
    40   1 H    0.991 --    20 C    0.966
    41   1 H    0.991 --    20 C    0.966
    42   1 H    0.947 --    21 N    0.880
 ---------------------------------------------------------------------------

           -------------------------------------------------
          | TOTAL ENERGY              -82.982221059159 Eh   |
          | GRADIENT NORM               0.000474246873 Eh/α |
          | HOMO-LUMO GAP               0.205340765510 eV   |
           -------------------------------------------------

 * finished run on 2023/06/21 at 17:21:50.509
