   * xtb version 6.5.1 (579679a) compiled by 'ehlert@majestix' on 2022-07-11
          program call               : /lustre/hpc/kemi/ree/PhD/git/ReactivityQM/dep/xtb-6.5.1/bin/xtb --gfn 1 /lustre/hpc/kemi/ree/PhD/git/ReactivityQM/calculations/R02methylcation/reac01prodN12/conf05/R02methylcation_reac01prodN12_conf05_gfn1.xyz --opt --vfukui --chrg 0 --uhf 0 --alpb DMSO

   ID    Z sym.   atoms
    1    6 C      1, 3, 5, 7-10, 12, 14, 15, 18, 19, 22, 24
    2    8 O      2, 4, 13, 20, 23, 25
    3    7 N      6, 11, 16, 17, 21
    4    1 H      26-42

      * Solvation model:               ALPB
        Solvent                        DMSO
        Solvent mass                       7.8130E+01 g/mol
          :  Hamiltonian                  GFN1-xTB          :
 * total energy  :   -82.9343410 Eh     change       -0.6688197E-09 Eh
 * total energy  :   -82.9448638 Eh     change       -0.1052275E-01 Eh
 * total energy  :   -82.9488005 Eh     change       -0.3936719E-02 Eh
 * total energy  :   -82.9494035 Eh     change       -0.6029461E-03 Eh
 * total energy  :   -82.9497854 Eh     change       -0.3819151E-03 Eh
 * total energy  :   -82.9499318 Eh     change       -0.1464185E-03 Eh
 * total energy  :   -82.9500408 Eh     change       -0.1090182E-03 Eh
 * total energy  :   -82.9501265 Eh     change       -0.8567288E-04 Eh
 * total energy  :   -82.9502110 Eh     change       -0.8447139E-04 Eh
 * total energy  :   -82.9502905 Eh     change       -0.7952727E-04 Eh
 * total energy  :   -82.9505814 Eh     change       -0.2818038E-04 Eh
 * total energy  :   -82.9506069 Eh     change       -0.2545470E-04 Eh
 * total energy  :   -82.9506276 Eh     change       -0.2070287E-04 Eh
 * total energy  :   -82.9506456 Eh     change       -0.1803936E-04 Eh
 * total energy  :   -82.9506535 Eh     change       -0.7872818E-05 Eh
 * total energy  :   -82.9506671 Eh     change       -0.1359169E-04 Eh
 * total energy  :   -82.9506718 Eh     change       -0.4741016E-05 Eh
 * total energy  :   -82.9506831 Eh     change       -0.1127388E-04 Eh
 * total energy  :   -82.9506880 Eh     change       -0.4942985E-05 Eh
   *** GEOMETRY OPTIMIZATION CONVERGED AFTER 26 ITERATIONS ***

 final structure:
================
42
 xtb: 6.5.1 (579679a)
C            5.98704645651848        2.87399270787362        0.48051752669154
O            4.99082551272221        2.23067729622775       -0.31288205589327
C            4.03396466173984        1.57829541031097        0.35749243444949
O            4.00138794167870        1.54312145217263        1.57302255029842
C            3.04429397106525        0.89694168231540       -0.50589531032387
N            2.11974114214758        0.19509502865058        0.19621114735094
C            1.20644551863132       -0.50273160749297       -0.40604797621018
C            0.22669780657846       -1.30349865866055        0.42805727746628
C            0.37260056543184       -2.80410870160343        0.15204577868848
C            0.46111698729597       -1.01279727432496        1.91075198839234
N           -1.16221436832826       -0.86462713622275        0.13618611201910
C           -1.85144167275949       -1.18330606589125       -0.94982971102847
O           -1.45710463284515       -1.76019726573887       -1.94111154746656
C           -3.36269103519929       -0.73874420676892       -0.90691497176886
C           -4.21834439820925       -2.00053394455783       -1.03537203769154
N           -3.57625151833106        0.19163449509194       -1.96529124054364
N           -3.96139663146723        1.31731133218099       -1.45857110438417
C           -4.02810453212612        1.18351393967657       -0.13287354651300
C           -4.42930203891809        2.22584992776528        0.82172515853798
O           -3.67579158738829       -0.01864131659077        0.26711563651627
N            1.13535638197633       -0.57016449247237       -1.76323450452167
C            1.96713078933592        0.12770778496552       -2.61477061879580
O            1.81402375131367        0.04925409641247       -3.82130233621538
C            3.04495624156027        0.95135315935099       -1.94006002421394
O            3.83279018313440        1.59419501725781       -2.63674636526726
H            6.51592308310174        2.13882722018139        1.09249201401740
H            6.67813993043472        3.35453479449194       -0.20972381413344
H            5.52830272515960        3.61942405355551        1.13492672570045
H            0.25936094957834       -3.02753708419438       -0.90634528340476
H           -0.38418683304865       -3.35060407330025        0.71081931324525
H            1.35945679960645       -3.13079655710677        0.47665712679984
H            1.47353336749401       -1.30620245235616        2.18406534654414
H            0.34237816042898        0.05103883075279        2.11050858241862
H           -0.24825062486337       -1.57402811421042        2.51480719560015
H           -1.65595083448372       -0.44407123315622        0.90690071937693
H           -4.05831405754684       -2.62982982820732       -0.16376883993282
H           -5.26625326836758       -1.71714769992385       -1.09450254680574
H           -3.92140224309079       -2.53233743704273       -1.93690156911042
H           -5.25827575083320        2.80277011390553        0.41368239022583
H           -4.70479634942133        1.77840755401227        1.77349722213735
H           -3.59468784814920        2.91164089121643        0.98477058313475
H            0.41929029844126       -1.14368063854205       -2.19497642538121

          :  Hamiltonian                  GFN1-xTB          :
         :: total energy             -82.950688041523 Eh    ::
         :: gradient norm              0.000919098290 Eh/a0 ::
         :: HOMO-LUMO gap              0.079784772483 eV    ::
         :: SCC energy               -83.718702449760 Eh    ::
         :: -> Gsolv                  -0.079888602320 Eh    ::
         :: repulsion energy           0.794457459103 Eh    ::

    * Orbital Energies and Occupations

         #    Occupation            Energy/Eh            Energy/eV
      -------------------------------------------------------------
         1        2.0000           -0.8908241             -24.2406
       ...           ...                  ...                  ...
        55        2.0000           -0.5141090             -13.9896
        56        2.0000           -0.5074584             -13.8086
        57        2.0000           -0.5067386             -13.7891
        58        2.0000           -0.4945006             -13.4560
        59        2.0000           -0.4870739             -13.2540
        60        2.0000           -0.4866676             -13.2429
        61        2.0000           -0.4786843             -13.0257
        62        2.0000           -0.4759786             -12.9520
        63        2.0000           -0.4726388             -12.8612
        64        2.0000           -0.4671780             -12.7126
        65        2.0000           -0.4511290             -12.2758
        66        2.0000           -0.4148033             -11.2874
        67        1.6478           -0.4000354             -10.8855 (HOMO)
        68        0.3522           -0.3971033             -10.8057 (LUMO)
        69                         -0.3017005              -8.2097
        70                         -0.2919891              -7.9454
        71                         -0.2802255              -7.6253
        72                         -0.2760260              -7.5111
        73                         -0.2276668              -6.1951
        74                         -0.1591944              -4.3319
        75                         -0.1479875              -4.0269
        76                         -0.1411165              -3.8400
        77                         -0.1333480              -3.6286
        78                         -0.1321756              -3.5967
       ...                                ...                  ...
       134                          0.7466391              20.3171
      -------------------------------------------------------------
                  HL-Gap            0.0029320 Eh            0.0798 eV

Wiberg/Mayer (AO) data.
largest (>0.10) Wiberg bond orders for each atom

     #   Z sym  total        # sym  WBO       # sym  WBO       # sym  WBO
 ---------------------------------------------------------------------------
     1   6 C    3.880 --    27 H    0.986    28 H    0.979    26 H    0.979
                             2 O    0.906
     2   8 O    2.186 --     3 C    1.097     1 C    0.906     4 O    0.127
     3   6 C    3.841 --     4 O    1.623     2 O    1.097     5 C    1.038
     4   8 O    1.870 --     3 C    1.623     2 O    0.127
     5   6 C    3.738 --     6 N    1.265    24 C    1.186     3 C    1.038
     6   7 N    2.994 --     7 C    1.507     5 C    1.265
     7   6 C    3.831 --     6 N    1.507    21 N    1.178     8 C    0.978
     8   6 C    3.918 --    10 C    1.001     9 C    0.984     7 C    0.978
                            11 N    0.887
     9   6 C    3.982 --     8 C    0.984    31 H    0.983    30 H    0.983
                            29 H    0.979
    10   6 C    3.987 --     8 C    1.001    34 H    0.984    33 H    0.982
                            32 H    0.980
    11   7 N    3.363 --    12 C    1.339     8 C    0.887    35 H    0.886
                            13 O    0.175
    12   6 C    3.874 --    13 O    1.606    11 N    1.339    14 C    0.823
    13   8 O    1.969 --    12 C    1.606    11 N    0.175
    14   6 C    3.847 --    16 N    1.056    15 C    0.931    20 O    0.903
                            12 C    0.823
    15   6 C    3.934 --    36 H    0.981    37 H    0.980    38 H    0.978
                            14 C    0.931
    16   7 N    2.702 --    17 N    1.478    14 C    1.056
    17   7 N    2.966 --    16 N    1.478    18 C    1.343
    18   6 C    3.682 --    17 N    1.343    20 O    1.166    19 C    1.054
    19   6 C    3.971 --    18 C    1.054    40 H    0.973    39 H    0.959
                            41 H    0.933
    20   8 O    2.239 --    18 C    1.166    14 C    0.903
    21   7 N    3.430 --     7 C    1.178    22 C    1.126    42 H    0.862
                            23 O    0.117
    22   6 C    3.848 --    23 O    1.631    21 N    1.126    24 C    0.953
    23   8 O    1.862 --    22 C    1.631    21 N    0.117
    24   6 C    3.879 --    25 O    1.591     5 C    1.186    22 C    0.953
    25   8 O    1.787 --    24 C    1.591
    26   1 H    1.008 --     1 C    0.979
    27   1 H    1.012 --     1 C    0.986
    28   1 H    1.009 --     1 C    0.979
    29   1 H    1.005 --     9 C    0.979
    30   1 H    0.998 --     9 C    0.983
    31   1 H    0.999 --     9 C    0.983
    32   1 H    1.007 --    10 C    0.980
    33   1 H    1.004 --    10 C    0.982
    34   1 H    0.998 --    10 C    0.984
    35   1 H    0.934 --    11 N    0.886
    36   1 H    0.995 --    15 C    0.981
    37   1 H    0.994 --    15 C    0.980
    38   1 H    1.000 --    15 C    0.978
    39   1 H    0.987 --    19 C    0.959
    40   1 H    0.990 --    19 C    0.973
    41   1 H    0.977 --    19 C    0.933
    42   1 H    0.937 --    21 N    0.862
 ---------------------------------------------------------------------------

           -------------------------------------------------
          | TOTAL ENERGY              -82.950688041523 Eh   |
          | GRADIENT NORM               0.000919098290 Eh/α |
          | HOMO-LUMO GAP               0.079784772483 eV   |
           -------------------------------------------------

 * finished run on 2023/06/21 at 17:44:20.975
