   * xtb version 6.5.1 (579679a) compiled by 'ehlert@majestix' on 2022-07-11
          program call               : /lustre/hpc/kemi/ree/PhD/git/ReactivityQM/dep/xtb-6.5.1/bin/xtb --gfn 1 /lustre/hpc/kemi/ree/PhD/git/ReactivityQM/calculations/RaltegravirCLI/reac02prodE11/conf17/RaltegravirCLI_reac02prodE11_conf17_gfn1.xyz --opt --vfukui --chrg -1 --uhf 0 --alpb DMSO

   ID    Z sym.   atoms
    1    6 C      1, 3-6, 9, 10, 13-17, 19-21, 23, 24
    2    7 N      2, 7, 8, 12
    3    8 O      11, 22, 25
    4    9 F      18
    5    1 H      26-47

      * Solvation model:               ALPB
        Solvent                        DMSO
        Solvent mass                       7.8130E+01 g/mol
          :  Hamiltonian                  GFN1-xTB          :
 * total energy  :   -80.1864388 Eh     change       -0.1372769E-10 Eh
 * total energy  :   -80.1959471 Eh     change       -0.9508288E-02 Eh
 * total energy  :   -80.1989734 Eh     change       -0.3026312E-02 Eh
 * total energy  :   -80.2000037 Eh     change       -0.1030244E-02 Eh
 * total energy  :   -80.2015722 Eh     change       -0.1568488E-02 Eh
 * total energy  :   -80.2037124 Eh     change       -0.2140212E-02 Eh
 * total energy  :   -80.2062649 Eh     change       -0.2552532E-02 Eh
 * total energy  :   -80.2081050 Eh     change       -0.1840126E-02 Eh
 * total energy  :   -80.2048538 Eh     change        0.3251199E-02 Eh
 * total energy  :   -80.2136593 Eh     change       -0.8805487E-02 Eh
 * total energy  :   -80.2287973 Eh     change       -0.1521573E-04 Eh
 * total energy  :   -80.2288183 Eh     change       -0.2098061E-04 Eh
 * total energy  :   -80.2288270 Eh     change       -0.8719710E-05 Eh
 * total energy  :   -80.2288344 Eh     change       -0.7469754E-05 Eh
 * total energy  :   -80.2288417 Eh     change       -0.7281954E-05 Eh
 * total energy  :   -80.2288490 Eh     change       -0.7233501E-05 Eh
 * total energy  :   -80.2288561 Eh     change       -0.7104032E-05 Eh
 * total energy  :   -80.2288612 Eh     change       -0.5089467E-05 Eh
 * total energy  :   -80.2288639 Eh     change       -0.2720406E-05 Eh
   *** GEOMETRY OPTIMIZATION CONVERGED AFTER 73 ITERATIONS ***

 final structure:
================
47
 xtb: 6.5.1 (579679a)
C           -2.23246994332929        0.70573168352967       -1.95782873749217
N           -2.35579593738838        1.11419380471173       -0.54907465406621
C           -2.13782595009759        0.02654186274871        0.36581539449992
C           -3.32647771974570       -0.87501568611595        0.68924097315894
C           -3.17093397495609       -2.22757022315380       -0.02530768693278
C           -4.66039694703610       -0.21903272693352        0.32712494844905
N           -3.32889899366635       -1.14272666550435        2.13354720224177
N           -1.03998735607408       -0.19544664729733        0.97261971141611
C            0.11296145810102        0.56649417138502        0.70636025500122
C            1.35540192845676       -0.01921159817030        1.17037981550605
O            1.43643838350995       -1.11128631634694        1.75394234586521
N            2.48923500280665        0.74829181291284        0.97519707112367
C            3.79576726863688        0.13203688050573        1.14138255948129
C            4.18388332283756       -0.67168330953859       -0.08395357777210
C            3.72388945306101       -1.97841161973524       -0.24285429573605
C            4.05491894127533       -2.71415647757405       -1.37154406519573
C            4.85008643109571       -2.11759500152996       -2.33322581962206
F            5.18036110011535       -2.82740440524576       -3.43036054077003
C            5.32488908200510       -0.82517850976459       -2.21172020075330
C            4.98152055386274       -0.10436826929849       -1.07513637819294
C           -0.01751525814968        1.77628343891886        0.03007068596820
O            0.88063965008607        2.54032274854696       -0.40241959030474
C           -1.47881137883320        2.24663153246196       -0.19958527639672
C           -2.02494410175813        2.88684809835737        1.09076786013239
O           -1.47036118341188        3.19845637272662       -1.23008447864227
H           -2.55428378081474        1.52928527480743       -2.59557733385578
H           -1.20218605618904        0.43136898137073       -2.21427415575839
H           -2.88333196090614       -0.14890716914614       -2.13739961614622
H           -2.18927588534505       -2.64884478262202        0.19378231768929
H           -3.26858864728790       -2.10951567347300       -1.10366403232792
H           -3.93783167065382       -2.91927737537767        0.32406260219037
H           -4.71830742084991        0.77848499918906        0.76368098884598
H           -5.48412596795847       -0.82044653287240        0.71193152033702
H           -4.76949586972420       -0.12846543727436       -0.75253420499125
H           -2.37371700988599       -1.35995027393184        2.41354603759092
H           -3.59702828208587       -0.29705519315202        2.62272451125235
H            2.44020316751739        1.48196471084521        0.27680210031885
H            3.76099423830361       -0.51855187515372        2.02218074783426
H            4.52885908199894        0.92438211863407        1.31804335110453
H            3.10235542191114       -2.42597036189352        0.52556001652600
H            3.71027458872057       -3.73155962778233       -1.50460155005933
H            5.94983191035583       -0.39658571852728       -2.98398898362091
H            5.34958445447790        0.90865910064550       -0.95965711448853
H           -0.52053320175958        3.40454626868318       -1.37473331339407
H           -2.02319258943288        2.16505032968472        1.90536598901332
H           -1.40178850496990        3.73770244089469        1.35983880719379
H           -3.04399084683411        3.23094184585879        0.91895579377831

          :  Hamiltonian                  GFN1-xTB          :
         :: total energy             -80.228863870690 Eh    ::
         :: gradient norm              0.000402607942 Eh/a0 ::
         :: HOMO-LUMO gap              2.184984758877 eV    ::
         :: SCC energy               -81.079517084547 Eh    ::
         :: -> Gsolv                  -0.093742510551 Eh    ::
         :: repulsion energy           0.882163353768 Eh    ::

    * Orbital Energies and Occupations

         #    Occupation            Energy/Eh            Energy/eV
      -------------------------------------------------------------
         1        2.0000           -0.8525675             -23.1995
       ...           ...                  ...                  ...
        56        2.0000           -0.4589042             -12.4874
        57        2.0000           -0.4571304             -12.4392
        58        2.0000           -0.4453552             -12.1187
        59        2.0000           -0.4375032             -11.9051
        60        2.0000           -0.4314880             -11.7414
        61        2.0000           -0.4241410             -11.5415
        62        2.0000           -0.4115170             -11.1979
        63        2.0000           -0.4018800             -10.9357
        64        2.0000           -0.4001686             -10.8891
        65        2.0000           -0.3917451             -10.6599
        66        2.0000           -0.3813591             -10.3773
        67        2.0000           -0.3596214              -9.7858
        68        2.0000           -0.3397767              -9.2458 (HOMO)
        69                         -0.2594800              -7.0608 (LUMO)
        70                         -0.2519132              -6.8549
        71                         -0.2337696              -6.3612
        72                         -0.2151908              -5.8556
        73                         -0.1314852              -3.5779
        74                         -0.1185170              -3.2250
        75                         -0.1118403              -3.0433
        76                         -0.1095524              -2.9811
        77                         -0.1026377              -2.7929
        78                         -0.1015560              -2.7635
        79                         -0.0950222              -2.5857
       ...                                ...                  ...
       144                          0.7012435              19.0818
      -------------------------------------------------------------
                  HL-Gap            0.0802967 Eh            2.1850 eV

Wiberg/Mayer (AO) data.
largest (>0.10) Wiberg bond orders for each atom

     #   Z sym  total        # sym  WBO       # sym  WBO       # sym  WBO
 ---------------------------------------------------------------------------
     1   6 C    3.970 --    26 H    0.986    28 H    0.984    27 H    0.984
                             2 N    0.953
     2   7 N    3.096 --     3 C    0.991     1 C    0.953    23 C    0.938
     3   6 C    3.945 --     8 N    1.748     2 N    0.991     4 C    0.967
     4   6 C    3.966 --     6 C    1.001     5 C    0.986     7 N    0.976
                             3 C    0.967
     5   6 C    3.996 --    31 H    0.986     4 C    0.986    29 H    0.985
                            30 H    0.984
     6   6 C    3.997 --     4 C    1.001    33 H    0.987    32 H    0.985
                            34 H    0.984
     7   7 N    2.953 --     4 C    0.976    36 H    0.953    35 H    0.942
     8   7 N    3.050 --     3 C    1.748     9 C    1.071
     9   6 C    3.892 --    21 C    1.365    10 C    1.136     8 N    1.071
                            22 O    0.120
    10   6 C    3.902 --    11 O    1.506    12 N    1.143     9 C    1.136
    11   8 O    1.816 --    10 C    1.506    12 N    0.118
    12   7 N    3.234 --    10 C    1.143    13 C    0.961    37 H    0.892
                            11 O    0.118
    13   6 C    3.969 --    14 C    0.993    39 H    0.979    38 H    0.972
                            12 N    0.961
    14   6 C    3.987 --    20 C    1.421    15 C    1.413    13 C    0.993
    15   6 C    3.992 --    16 C    1.446    14 C    1.413    40 H    0.968
                            19 C    0.111
    16   6 C    3.992 --    15 C    1.446    17 C    1.400    41 H    0.971
                            20 C    0.109
    17   6 C    3.856 --    19 C    1.405    16 C    1.400    18 F    0.915
    18   9 F    1.040 --    17 C    0.915
    19   6 C    3.992 --    20 C    1.439    17 C    1.405    42 H    0.970
                            15 C    0.111
    20   6 C    3.994 --    19 C    1.439    14 C    1.421    43 H    0.972
                            16 C    0.109
    21   6 C    3.928 --    22 O    1.463     9 C    1.365    23 C    0.912
    22   8 O    1.865 --    21 C    1.463     9 C    0.120
    23   6 C    3.890 --    24 C    0.975    25 O    0.967     2 N    0.938
                            21 C    0.912
    24   6 C    3.995 --    46 H    0.987    45 H    0.986    47 H    0.985
                            23 C    0.975
    25   8 O    1.905 --    23 C    0.967    44 H    0.823
    26   1 H    1.025 --     1 C    0.986
    27   1 H    1.005 --     1 C    0.984
    28   1 H    1.017 --     1 C    0.984
    29   1 H    1.011 --     5 C    0.985
    30   1 H    1.010 --     5 C    0.984
    31   1 H    1.011 --     5 C    0.986
    32   1 H    1.013 --     6 C    0.985
    33   1 H    1.007 --     6 C    0.987
    34   1 H    1.009 --     6 C    0.984
    35   1 H    0.987 --     7 N    0.942
    36   1 H    0.972 --     7 N    0.953
    37   1 H    0.967 --    12 N    0.892
    38   1 H    1.019 --    13 C    0.972
    39   1 H    1.009 --    13 C    0.979
    40   1 H    1.019 --    15 C    0.968
    41   1 H    1.000 --    16 C    0.971
    42   1 H    0.999 --    19 C    0.970
    43   1 H    1.001 --    20 C    0.972
    44   1 H    0.890 --    25 O    0.823
    45   1 H    1.010 --    24 C    0.986
    46   1 H    1.009 --    24 C    0.987
    47   1 H    1.013 --    24 C    0.985
 ---------------------------------------------------------------------------

           -------------------------------------------------
          | TOTAL ENERGY              -80.228863870690 Eh   |
          | GRADIENT NORM               0.000402607942 Eh/α |
          | HOMO-LUMO GAP               2.184984758877 eV   |
           -------------------------------------------------

 * finished run on 2023/06/20 at 15:13:28.893
