   * xtb version 6.5.1 (579679a) compiled by 'ehlert@majestix' on 2022-07-11
          program call               : /lustre/hpc/kemi/ree/PhD/git/ReactivityQM/dep/xtb-6.5.1/bin/xtb --gfn 1 /lustre/hpc/kemi/ree/PhD/git/ReactivityQM/calculations/R02deprot/reac01prodE01/conf11/R02deprot_reac01prodE01_conf11_gfn1.xyz --opt --vfukui --chrg -2 --uhf 0 --alpb DMSO

   ID    Z sym.   atoms
    1    6 C      1, 3, 5, 7-10, 12, 13, 15, 18, 19, 22, 24
    2    8 O      2, 4, 14, 20, 23, 25
    3    7 N      6, 11, 16, 17, 21
    4    1 H      26-42

      * Solvation model:               ALPB
        Solvent                        DMSO
        Solvent mass                       7.8130E+01 g/mol
          :  Hamiltonian                  GFN1-xTB          :
 * total energy  :   -83.6116524 Eh     change       -0.5526601E-10 Eh
 * total energy  :   -83.6250348 Eh     change       -0.1338243E-01 Eh
 * total energy  :   -83.6293930 Eh     change       -0.4358230E-02 Eh
 * total energy  :   -83.6303115 Eh     change       -0.9184075E-03 Eh
 * total energy  :   -83.6309126 Eh     change       -0.6011432E-03 Eh
 * total energy  :   -83.6311811 Eh     change       -0.2685185E-03 Eh
 * total energy  :   -83.6313190 Eh     change       -0.1378710E-03 Eh
 * total energy  :   -83.6313743 Eh     change       -0.5535839E-04 Eh
 * total energy  :   -83.6314048 Eh     change       -0.3047298E-04 Eh
 * total energy  :   -83.6314289 Eh     change       -0.2406414E-04 Eh
 * total energy  :   -83.6321108 Eh     change       -0.1299900E-04 Eh
 * total energy  :   -83.6321269 Eh     change       -0.1614513E-04 Eh
 * total energy  :   -83.6321503 Eh     change       -0.2335956E-04 Eh
 * total energy  :   -83.6321575 Eh     change       -0.7231190E-05 Eh
 * total energy  :   -83.6321647 Eh     change       -0.7155171E-05 Eh
 * total energy  :   -83.6321721 Eh     change       -0.7422266E-05 Eh
 * total energy  :   -83.6321771 Eh     change       -0.5056289E-05 Eh
 * total energy  :   -83.6321839 Eh     change       -0.6739648E-05 Eh
 * total energy  :   -83.6321872 Eh     change       -0.3289675E-05 Eh
   *** GEOMETRY OPTIMIZATION CONVERGED AFTER 49 ITERATIONS ***

 final structure:
================
42
 xtb: 6.5.1 (579679a)
C           -6.24855707677675       -1.37657044809673       -0.51108122981358
O           -4.91930701862080       -0.96650809680427       -0.20955854998116
C           -4.67626944836229       -0.64249008341664        1.07083326350848
O           -5.55789609588263       -0.69962636578233        1.92002189084882
C           -3.29250458935702       -0.23000504849606        1.33459621468722
N           -2.42690319580855       -0.22708810314057        0.28104446433724
C           -1.17689682192972        0.12843222058535        0.52824841558474
C           -0.23582100965527        0.15940520649195       -0.68540740024405
C           -0.58127647605377        1.45614945760634       -1.44882394762516
C           -0.55328881020132       -1.06120244794006       -1.56958082844723
N            1.14045191155871        0.06611397626123       -0.19351759016795
C            2.26380283170654        0.73171937179907       -0.98530641936279
C            2.53010976472653       -0.11106641560982       -2.27489655209424
O            2.14677267753418        2.01624277679826       -1.18487783922983
C            3.48251481497276        0.43135171081859       -0.02850308722700
N            3.52661228117356        0.62261447278698        1.25306948227029
N            4.82310393429635        0.36629695555315        1.65973252218787
C            5.47604901361074        0.04422021724704        0.59568427088741
C            6.90525688895788       -0.33987593147364        0.49254756781285
O            4.69842425822256        0.06496897384344       -0.50556986933452
N           -0.69023676941979        0.50656520469439        1.70411286245495
C           -1.48218614298407        0.54145361883448        2.80793017092261
O           -1.05008178322444        0.89060477983484        3.92381723390481
C           -2.87898508765772        0.13644837299849        2.59807895698993
O           -3.69768717450328        0.14672594153303        3.68158175509176
H           -6.50772732365925       -2.27597762394928        0.05387293424679
H           -6.95935133107913       -0.58438499137165       -0.26127860095242
H           -6.28276991075951       -1.58472149265925       -1.57892485991962
H           -0.02441704575588        1.52807682752853       -2.38163470057497
H           -0.35095784692897        2.32985590225801       -0.83885007577877
H           -1.64837853943743        1.45445874439210       -1.67787434333923
H           -1.62679054659418       -1.12343359328616       -1.74969065705483
H           -0.22857023499727       -1.97242908577277       -1.06552070530884
H           -0.04870482976048       -0.99619956682414       -2.53156703793612
H            1.15510989662048        0.53683149333055        0.72232847527110
H            3.49233851100546        0.18535754813910       -2.68985822590829
H            2.54522323234523       -1.17779305958723       -2.05607246760642
H            1.76376137901732        0.10466391045803       -3.01625620298158
H            7.42532552736636        0.31157263041609       -0.20902363268232
H            7.37401483777877       -0.26568778597502        1.47068552069595
H            6.99359305512029       -1.36401833907047        0.12942364940887
H           -4.59690170660509       -0.13758283495865        3.42606417245966

          :  Hamiltonian                  GFN1-xTB          :
         :: total energy             -83.632187162027 Eh    ::
         :: gradient norm              0.000878286949 Eh/a0 ::
         :: HOMO-LUMO gap              1.579823260909 eV    ::
         :: SCC energy               -84.356869511201 Eh    ::
         :: -> Gsolv                  -0.282972217653 Eh    ::
         :: repulsion energy           0.750524832684 Eh    ::

    * Orbital Energies and Occupations

         #    Occupation            Energy/Eh            Energy/eV
      -------------------------------------------------------------
         1        2.0000           -0.8134909             -22.1362
       ...           ...                  ...                  ...
        56        2.0000           -0.4377674             -11.9123
        57        2.0000           -0.4301092             -11.7039
        58        2.0000           -0.4274167             -11.6306
        59        2.0000           -0.4146165             -11.2823
        60        2.0000           -0.4072233             -11.0811
        61        2.0000           -0.4035653             -10.9816
        62        2.0000           -0.4013412             -10.9211
        63        2.0000           -0.3836558             -10.4398
        64        2.0000           -0.3582518              -9.7485
        65        2.0000           -0.3545842              -9.6487
        66        2.0000           -0.3532484              -9.6124
        67        2.0000           -0.3336951              -9.0803
        68        2.0000           -0.3290930              -8.9551 (HOMO)
        69                         -0.2710356              -7.3753 (LUMO)
        70                         -0.2211180              -6.0169
        71                         -0.2092624              -5.6943
        72                         -0.2031393              -5.5277
        73                         -0.1793758              -4.8811
        74                         -0.1281657              -3.4876
        75                         -0.1250091              -3.4017
        76                         -0.0953620              -2.5949
        77                         -0.0915890              -2.4923
        78                         -0.0760478              -2.0694
        79                         -0.0722377              -1.9657
       ...                                ...                  ...
       134                          0.7323938              19.9294
      -------------------------------------------------------------
                  HL-Gap            0.0580574 Eh            1.5798 eV

Wiberg/Mayer (AO) data.
largest (>0.10) Wiberg bond orders for each atom

     #   Z sym  total        # sym  WBO       # sym  WBO       # sym  WBO
 ---------------------------------------------------------------------------
     1   6 C    3.888 --    28 H    0.987    26 H    0.980    27 H    0.980
                             2 O    0.913
     2   8 O    2.188 --     3 C    1.090     1 C    0.913     4 O    0.116
     3   6 C    3.831 --     4 O    1.582     2 O    1.090     5 C    1.054
     4   8 O    1.911 --     3 C    1.582     2 O    0.116
     5   6 C    3.964 --    24 C    1.447     6 N    1.216     3 C    1.054
     6   7 N    2.993 --     7 C    1.433     5 C    1.216
     7   6 C    3.946 --     6 N    1.433    21 N    1.382     8 C    0.968
     8   6 C    3.970 --    10 C    0.989    11 N    0.982     9 C    0.973
                             7 C    0.968
     9   6 C    3.996 --    31 H    0.987    30 H    0.984    29 H    0.982
                             8 C    0.973
    10   6 C    3.996 --     8 C    0.989    33 H    0.987    32 H    0.983
                            34 H    0.983
    11   7 N    2.975 --     8 C    0.982    35 H    0.931    12 C    0.868
    12   6 C    3.938 --    14 O    1.201    13 C    0.944    15 C    0.871
                            11 N    0.868
    13   6 C    3.991 --    37 H    0.990    36 H    0.986    38 H    0.981
                            12 C    0.944
    14   8 O    1.531 --    12 C    1.201
    15   6 C    3.792 --    16 N    1.654    20 O    1.041    12 C    0.871
    16   7 N    2.969 --    15 C    1.654    17 N    1.147
    17   7 N    2.976 --    18 C    1.658    16 N    1.147
    18   6 C    3.889 --    17 N    1.658    20 O    1.061    19 C    1.023
    19   6 C    3.993 --    18 C    1.023    40 H    0.985    39 H    0.972
                            41 H    0.970
    20   8 O    2.289 --    18 C    1.061    15 C    1.041
    21   7 N    3.005 --     7 C    1.382    22 C    1.239    23 O    0.125
    22   6 C    3.932 --    23 O    1.479    21 N    1.239    24 C    1.079
    23   8 O    1.767 --    22 C    1.479    21 N    0.125
    24   6 C    3.902 --     5 C    1.447    22 C    1.079    25 O    1.061
    25   8 O    2.039 --    24 C    1.061    42 H    0.811
    26   1 H    1.011 --     1 C    0.980
    27   1 H    1.011 --     1 C    0.980
    28   1 H    1.014 --     1 C    0.987
    29   1 H    1.028 --     9 C    0.982
    30   1 H    1.030 --     9 C    0.984
    31   1 H    1.015 --     9 C    0.987
    32   1 H    1.027 --    10 C    0.983
    33   1 H    1.018 --    10 C    0.987
    34   1 H    1.013 --    10 C    0.983
    35   1 H    1.014 --    11 N    0.931
    36   1 H    1.019 --    13 C    0.986
    37   1 H    1.014 --    13 C    0.990
    38   1 H    1.019 --    13 C    0.981
    39   1 H    1.002 --    19 C    0.972
    40   1 H    1.003 --    19 C    0.985
    41   1 H    1.002 --    19 C    0.970
    42   1 H    0.880 --    25 O    0.811
 ---------------------------------------------------------------------------

           -------------------------------------------------
          | TOTAL ENERGY              -83.632187162027 Eh   |
          | GRADIENT NORM               0.000878286949 Eh/α |
          | HOMO-LUMO GAP               1.579823260909 eV   |
           -------------------------------------------------

 * finished run on 2023/06/20 at 17:32:32.416
