   * xtb version 6.5.1 (579679a) compiled by 'ehlert@majestix' on 2022-07-11
          program call               : /lustre/hpc/kemi/ree/PhD/git/ReactivityQM/dep/xtb-6.5.1/bin/xtb --gfn 1 /lustre/hpc/kemi/ree/PhD/git/ReactivityQM/calculations/R02/reac01prodE04/conf11/R02_reac01prodE04_conf11_gfn1.xyz --opt --vfukui --chrg -1 --uhf 0 --alpb DMSO

   ID    Z sym.   atoms
    1    6 C      1, 3, 5, 6, 8-11, 13, 15, 18, 19, 22, 24
    2    8 O      2, 4, 14, 20, 23, 25
    3    7 N      7, 12, 16, 17, 21
    4    1 H      26-43

      * Solvation model:               ALPB
        Solvent                        DMSO
        Solvent mass                       7.8130E+01 g/mol
          :  Hamiltonian                  GFN1-xTB          :
 * total energy  :   -83.8470855 Eh     change       -0.1327152E-09 Eh
 * total energy  :   -83.8622972 Eh     change       -0.1521170E-01 Eh
 * total energy  :   -83.8688625 Eh     change       -0.6565291E-02 Eh
 * total energy  :   -83.8702223 Eh     change       -0.1359779E-02 Eh
 * total energy  :   -83.8710127 Eh     change       -0.7904188E-03 Eh
 * total energy  :   -83.8713420 Eh     change       -0.3292482E-03 Eh
 * total energy  :   -83.8715663 Eh     change       -0.2242938E-03 Eh
 * total energy  :   -83.8717386 Eh     change       -0.1723476E-03 Eh
 * total energy  :   -83.8719114 Eh     change       -0.1728252E-03 Eh
 * total energy  :   -83.8720889 Eh     change       -0.1774484E-03 Eh
 * total energy  :   -83.8731064 Eh     change       -0.1533796E-04 Eh
 * total energy  :   -83.8731000 Eh     change        0.6460476E-05 Eh
 * total energy  :   -83.8731163 Eh     change       -0.1638402E-04 Eh
 * total energy  :   -83.8731246 Eh     change       -0.8223871E-05 Eh
 * total energy  :   -83.8731322 Eh     change       -0.7674035E-05 Eh
 * total energy  :   -83.8731489 Eh     change       -0.1664657E-04 Eh
 * total energy  :   -83.8731557 Eh     change       -0.6768677E-05 Eh
 * total energy  :   -83.8731616 Eh     change       -0.5972129E-05 Eh
 * total energy  :   -83.8731650 Eh     change       -0.3405312E-05 Eh
   *** GEOMETRY OPTIMIZATION CONVERGED AFTER 44 ITERATIONS ***

 final structure:
================
43
 xtb: 6.5.1 (579679a)
C           -3.31931303530595        2.49464027143087        0.63059156338118
O           -2.78517379148506        1.19497015268013        0.38705589264533
C           -3.68568236124451        0.21551728569272        0.18517938817202
O           -4.88300378166424        0.42795884020490        0.21725637939946
C           -3.04984867820757       -1.12627379418507       -0.20649310774666
C           -3.99903027178379       -2.26359212142311        0.20155347362147
N           -1.78254364441286       -1.30267429125805        0.49698047939505
C           -0.68430670786099       -1.05126865516150       -0.10765405727984
C            0.61740783874262       -1.25362665939829        0.66074307431381
C            1.25162432800840       -2.57644132561615        0.20733712665719
C            0.34901263493297       -1.26237232155471        2.16849209915143
N            1.50830192783746       -0.13569596080051        0.32495138696805
C            2.76732112410456       -0.01409966460589        0.77697954394446
O            3.34055346712419       -0.79015301119019        1.52605024922274
C            3.40741108489220        1.21760204734434        0.23866343134267
N            2.85373370307201        2.08734213926857       -0.55208771065377
N            3.79381040475293        3.04248300033148       -0.80668412333585
C            4.86012096505566        2.69318493907519       -0.15561612149338
C            6.16089610540628        3.39674983534474       -0.10964637481305
O            4.68060319603154        1.55082882980380        0.52499414074454
N           -0.56761628569597       -0.61832005043182       -1.38977714517373
C           -1.68694052580750       -0.77310462347944       -2.31487308343280
O           -1.42838483179784       -0.68564139226098       -3.54808901160059
C           -2.86952442714372       -1.03387371937641       -1.69983110763453
O           -4.04459242601069       -1.23722619125131       -2.46841618013003
H           -3.97312777892269        2.47930614677218        1.50722266393819
H           -3.89204896478064        2.84247369309999       -0.23411450006959
H           -2.47561836310027        3.15869030392368        0.80954042530628
H           -3.58719752565921       -3.21689110023169       -0.12569037786017
H           -4.11247222229839       -2.28132046257607        1.28519972905210
H           -4.97551319548701       -2.11819998564752       -0.25893791653995
H            0.54377124373006       -3.38810271442297        0.37036948670543
H            2.15863203293616       -2.78028580249033        0.77330111851980
H            1.49903391281054       -2.52827887298968       -0.85213496163811
H            1.26807647104163       -1.45323571981133        2.71905817684438
H           -0.37523036082143       -2.04287141594759        2.39795511358925
H           -0.06232659847558       -0.30210341898768        2.47787561419593
H            1.15090900877677        0.59427989539131       -0.27710741093103
H            6.95176864145164        2.74073930696257       -0.47239440672989
H            6.39902707508269        3.67630517240975        0.91629378299483
H            6.11547941201398        4.28922189648832       -0.72834307690068
H            0.33435764384550       -0.66743286836799       -1.83508076201927
H           -3.77235744367931       -1.19920561275952       -3.39610890411499

          :  Hamiltonian                  GFN1-xTB          :
         :: total energy             -83.873165030832 Eh    ::
         :: gradient norm              0.000323060721 Eh/a0 ::
         :: HOMO-LUMO gap              0.260751606865 eV    ::
         :: SCC energy               -84.638754264719 Eh    ::
         :: -> Gsolv                  -0.115772595197 Eh    ::
         :: repulsion energy           0.792603848573 Eh    ::

    * Orbital Energies and Occupations

         #    Occupation            Energy/Eh            Energy/eV
      -------------------------------------------------------------
         1        2.0000           -0.8572983             -23.3283
       ...           ...                  ...                  ...
        56        2.0000           -0.4763982             -12.9635
        57        2.0000           -0.4696854             -12.7808
        58        2.0000           -0.4690729             -12.7641
        59        2.0000           -0.4596203             -12.5069
        60        2.0000           -0.4543349             -12.3631
        61        2.0000           -0.4520881             -12.3019
        62        2.0000           -0.4443401             -12.0911
        63        2.0000           -0.4394498             -11.9580
        64        2.0000           -0.4341607             -11.8141
        65        2.0000           -0.3989307             -10.8555
        66        2.0000           -0.3902950             -10.6205
        67        2.0000           -0.3788755             -10.3097
        68        1.9872           -0.3110833              -8.4650 (HOMO)
        69        0.0128           -0.3015009              -8.2043 (LUMO)
        70                         -0.2514080              -6.8412
        71                         -0.2390817              -6.5057
        72                         -0.2213439              -6.0231
        73                         -0.1894992              -5.1565
        74                         -0.1400372              -3.8106
        75                         -0.1314434              -3.5768
        76                         -0.1304085              -3.5486
        77                         -0.1125821              -3.0635
        78                         -0.1087987              -2.9606
        79                         -0.0977686              -2.6604
       ...                                ...                  ...
       136                          0.7295216              19.8513
      -------------------------------------------------------------
                  HL-Gap            0.0095824 Eh            0.2608 eV

Wiberg/Mayer (AO) data.
largest (>0.10) Wiberg bond orders for each atom

     #   Z sym  total        # sym  WBO       # sym  WBO       # sym  WBO
 ---------------------------------------------------------------------------
     1   6 C    3.890 --    28 H    0.987    26 H    0.981    27 H    0.981
                             2 O    0.912
     2   8 O    2.175 --     3 C    1.082     1 C    0.912     4 O    0.119
     3   6 C    3.808 --     4 O    1.641     2 O    1.082     5 C    0.920
     4   8 O    1.905 --     3 C    1.641     2 O    0.119
     5   6 C    3.964 --     6 C    0.985     7 N    0.970    24 C    0.957
                             3 C    0.920
     6   6 C    3.996 --    30 H    0.988    29 H    0.987    31 H    0.985
                             5 C    0.985
     7   7 N    2.978 --     8 C    1.679     5 C    0.970    21 N    0.166
     8   6 C    3.952 --     7 N    1.679    21 N    1.190     9 C    0.967
     9   6 C    3.927 --    11 C    0.994    10 C    0.983     8 C    0.967
                            12 N    0.914
    10   6 C    3.993 --    32 H    0.986    34 H    0.985     9 C    0.983
                            33 H    0.981
    11   6 C    3.993 --     9 C    0.994    37 H    0.986    35 H    0.984
                            36 H    0.983
    12   7 N    3.362 --    13 C    1.275     9 C    0.914    38 H    0.895
                            14 O    0.182
    13   6 C    3.917 --    14 O    1.576    12 N    1.275    15 C    0.986
    14   8 O    1.893 --    13 C    1.576    12 N    0.182
    15   6 C    3.866 --    16 N    1.611    20 O    1.061    13 C    0.986
    16   7 N    3.008 --    15 C    1.611    17 N    1.194
    17   7 N    2.980 --    18 C    1.611    16 N    1.194
    18   6 C    3.871 --    17 N    1.611    20 O    1.081    19 C    1.030
    19   6 C    3.987 --    18 C    1.030    41 H    0.983    39 H    0.964
                            40 H    0.964
    20   8 O    2.324 --    18 C    1.081    15 C    1.061
    21   7 N    3.308 --     8 C    1.190    42 H    0.911    22 C    0.897
                             7 N    0.166
    22   6 C    3.913 --    24 C    1.522    23 O    1.363    21 N    0.897
    23   8 O    1.705 --    22 C    1.363    24 C    0.173
    24   6 C    3.784 --    22 C    1.522     5 C    0.957    25 O    0.945
                            23 O    0.173
    25   8 O    1.914 --    24 C    0.945    43 H    0.858
    26   1 H    1.012 --     1 C    0.981
    27   1 H    1.011 --     1 C    0.981
    28   1 H    1.014 --     1 C    0.987
    29   1 H    1.012 --     6 C    0.987
    30   1 H    1.010 --     6 C    0.988
    31   1 H    1.016 --     6 C    0.985
    32   1 H    1.004 --    10 C    0.986
    33   1 H    1.011 --    10 C    0.981
    34   1 H    1.004 --    10 C    0.985
    35   1 H    1.011 --    11 C    0.984
    36   1 H    1.019 --    11 C    0.983
    37   1 H    1.010 --    11 C    0.986
    38   1 H    0.962 --    12 N    0.895
    39   1 H    0.997 --    19 C    0.964
    40   1 H    0.997 --    19 C    0.964
    41   1 H    0.999 --    19 C    0.983
    42   1 H    0.960 --    21 N    0.911
    43   1 H    0.890 --    25 O    0.858
 ---------------------------------------------------------------------------

           -------------------------------------------------
          | TOTAL ENERGY              -83.873165030832 Eh   |
          | GRADIENT NORM               0.000323060721 Eh/α |
          | HOMO-LUMO GAP               0.260751606865 eV   |
           -------------------------------------------------

 * finished run on 2023/06/20 at 14:57:41.491
