   * xtb version 6.5.1 (579679a) compiled by 'ehlert@majestix' on 2022-07-11
          program call               : /lustre/hpc/kemi/ree/PhD/git/ReactivityQM/dep/xtb-6.5.1/bin/xtb --gfn 1 /lustre/hpc/kemi/ree/PhD/git/ReactivityQM/calculations/R02methylcation/reac01prodE13/conf03/R02methylcation_reac01prodE13_conf03_gfn1.xyz --opt --vfukui --chrg -2 --uhf 0 --alpb DMSO

   ID    Z sym.   atoms
    1    6 C      1, 3, 5, 6, 8, 10, 12-15, 17, 19, 22, 23
    2    8 O      2, 4, 7, 9, 18, 24
    3    7 N      11, 16, 20, 21, 25
    4    1 H      26-42

      * Solvation model:               ALPB
        Solvent                        DMSO
        Solvent mass                       7.8130E+01 g/mol
          :  Hamiltonian                  GFN1-xTB          :
 * total energy  :   -83.5715982 Eh     change       -0.8384404E-12 Eh
 * total energy  :   -83.5842544 Eh     change       -0.1265624E-01 Eh
 * total energy  :   -83.5888216 Eh     change       -0.4567155E-02 Eh
 * total energy  :   -83.5899427 Eh     change       -0.1121143E-02 Eh
 * total energy  :   -83.5909250 Eh     change       -0.9822846E-03 Eh
 * total energy  :   -83.5913651 Eh     change       -0.4400914E-03 Eh
 * total energy  :   -83.5916368 Eh     change       -0.2716770E-03 Eh
 * total energy  :   -83.5918274 Eh     change       -0.1906596E-03 Eh
 * total energy  :   -83.5919331 Eh     change       -0.1056669E-03 Eh
 * total energy  :   -83.5919832 Eh     change       -0.5004899E-04 Eh
 * total energy  :   -83.5922284 Eh     change       -0.8078690E-05 Eh
 * total energy  :   -83.5922397 Eh     change       -0.1134278E-04 Eh
 * total energy  :   -83.5922480 Eh     change       -0.8259145E-05 Eh
 * total energy  :   -83.5922686 Eh     change       -0.2061234E-04 Eh
 * total energy  :   -83.5922819 Eh     change       -0.1330034E-04 Eh
 * total energy  :   -83.5922919 Eh     change       -0.9992919E-05 Eh
 * total energy  :   -83.5922883 Eh     change        0.3549538E-05 Eh
 * total energy  :   -83.5922996 Eh     change       -0.1125451E-04 Eh
 * total energy  :   -83.5923024 Eh     change       -0.2788659E-05 Eh
   *** GEOMETRY OPTIMIZATION CONVERGED AFTER 33 ITERATIONS ***

 final structure:
================
42
 xtb: 6.5.1 (579679a)
C           -5.28316120460116       -1.88636856266684       -1.60377050901074
O           -4.07971278134806       -1.37043023991874       -1.08116330032080
C           -4.02698412987598        0.04362109217966       -1.00238208142544
O           -5.02362528757970        0.68245778230780       -1.38468407932834
C           -2.80600800864921        0.51373063924188       -0.47668064253919
C           -2.50311031287534        1.94968482020527       -0.29889251195525
O           -3.30988418689090        2.87693156559061       -0.61615038540016
C           -1.23841382730386        2.20360225248691        0.24814343216244
O           -0.68718560425790        3.46231138159881        0.47954863651242
C           -1.45161656345746        4.34381658621411        1.29067412316135
N           -0.37836775184140        1.16195839170427        0.62741144487294
C           -0.72466733635864       -0.13846461643207        0.36659737049414
C            0.26814332197377       -1.20660141278241        0.79437645302973
C            0.18027153157475       -1.34286334720472        2.32425052615814
C           -0.07622632476741       -2.53690394676084        0.10940136566025
N            1.60543942419825       -0.74259222087952        0.40855205549574
C            2.72758111626850       -1.56212751301396        0.58737294772446
O            2.75070630658467       -2.52045243763936        1.39300774812066
C            3.85872808822394       -1.16372678324983       -0.18751897456832
N            5.07681347662732       -1.71711957981024       -0.20377341901102
N            5.81205541406429       -1.01001441981239       -1.11316171979363
C            5.04824293080358       -0.08802875795865       -1.60258350212906
C            5.40921589718768        0.92724898594001       -2.62691970554124
O            3.79647150730947       -0.10596106168276       -1.08097652017502
N           -1.86295962095539       -0.46321512587406       -0.13260131729525
H           -5.45805639121141       -1.54064730254635       -2.63147113518644
H           -5.20026253045455       -2.97494644589670       -1.60448405523112
H           -6.14754220455241       -1.59418959595154       -0.99250434204351
H           -2.40187790144702        4.60675984729898        0.80929849295753
H           -0.85558104846120        5.24840329370313        1.42521762534233
H           -1.65854501788335        3.90370575381599        2.27451858459412
H            0.54550757371357        1.39931570993951        0.94468024654477
H           -0.84680932984414       -1.57133676504645        2.60961778514987
H            0.83078467420580       -2.13762064370545        2.68506331340838
H            0.47530930247266       -0.40525247271723        2.79438147253006
H           -1.11249958395178       -2.79691562352256        0.32620367117173
H            0.57445211064815       -3.33257816513886        0.46869251992727
H            0.03922862493222       -2.44101785798230       -0.97026884766183
H            1.62324248739395       -0.22233048787102       -0.45911625868964
H            6.28436593796838        1.49259009483674       -2.30686846495604
H            4.57762738603661        1.61164970300458       -2.77889169598933
H            5.64890683638323        0.44391648600149       -3.57466534677122

          :  Hamiltonian                  GFN1-xTB          :
         :: total energy             -83.592302380705 Eh    ::
         :: gradient norm              0.000635158333 Eh/a0 ::
         :: HOMO-LUMO gap              0.035598715191 eV    ::
         :: SCC energy               -84.318037447001 Eh    ::
         :: -> Gsolv                  -0.269184354889 Eh    ::
         :: repulsion energy           0.750570076228 Eh    ::

    * Orbital Energies and Occupations

         #    Occupation            Energy/Eh            Energy/eV
      -------------------------------------------------------------
         1        2.0000           -0.8021350             -21.8272
       ...           ...                  ...                  ...
        56        2.0000           -0.4349207             -11.8348
        57        2.0000           -0.4275132             -11.6332
        58        2.0000           -0.4269355             -11.6175
        59        2.0000           -0.4076023             -11.0914
        60        2.0000           -0.4069255             -11.0730
        61        2.0000           -0.4029228             -10.9641
        62        2.0000           -0.3969884             -10.8026
        63        2.0000           -0.3926606             -10.6848
        64        2.0000           -0.3894871             -10.5985
        65        2.0000           -0.3830662             -10.4238
        66        2.0000           -0.3415290              -9.2935
        67        2.0000           -0.3359630              -9.1420
        68        1.3313           -0.2677095              -7.2847 (HOMO)
        69        0.6687           -0.2664012              -7.2491 (LUMO)
        70                         -0.2099657              -5.7135
        71                         -0.2006321              -5.4595
        72                         -0.1633249              -4.4443
        73                         -0.1399585              -3.8085
        74                         -0.1238396              -3.3698
        75                         -0.1055679              -2.8726
        76                         -0.1052601              -2.8643
        77                         -0.0965622              -2.6276
        78                         -0.0917914              -2.4978
        79                         -0.0724453              -1.9713
       ...                                ...                  ...
       134                          0.7343447              19.9825
      -------------------------------------------------------------
                  HL-Gap            0.0013082 Eh            0.0356 eV

Wiberg/Mayer (AO) data.
largest (>0.10) Wiberg bond orders for each atom

     #   Z sym  total        # sym  WBO       # sym  WBO       # sym  WBO
 ---------------------------------------------------------------------------
     1   6 C    3.923 --    27 H    0.987    26 H    0.980    28 H    0.980
                             2 O    0.956
     2   8 O    2.048 --     1 C    0.956     3 C    0.923
     3   6 C    3.779 --     4 O    1.468     5 C    1.289     2 O    0.923
     4   8 O    1.720 --     3 C    1.468
     5   6 C    3.755 --     3 C    1.289    25 N    1.112     6 C    1.075
     6   6 C    3.920 --     7 O    1.394     8 C    1.327     5 C    1.075
     7   8 O    1.690 --     6 C    1.394     8 C    0.114
     8   6 C    3.526 --     6 C    1.327    11 N    1.025     9 O    0.952
                             7 O    0.114
     9   8 O    2.012 --     8 C    0.952    10 C    0.934
    10   6 C    3.908 --    30 H    0.987    31 H    0.983    29 H    0.978
                             9 O    0.934
    11   7 N    3.252 --    12 C    1.129     8 C    1.025    32 H    0.907
                            25 N    0.102
    12   6 C    3.928 --    25 N    1.610    11 N    1.129    13 C    0.974
    13   6 C    3.949 --    15 C    0.991    14 C    0.984    12 C    0.974
                            16 N    0.940
    14   6 C    3.991 --    33 H    0.988    35 H    0.986    13 C    0.984
                            34 H    0.980
    15   6 C    3.993 --    13 C    0.991    38 H    0.987    37 H    0.985
                            36 H    0.984
    16   7 N    3.147 --    17 C    1.084    13 C    0.940    39 H    0.919
                            18 O    0.108
    17   6 C    3.749 --    18 O    1.438    19 C    1.159    16 N    1.084
    18   8 O    1.682 --    17 C    1.438    16 N    0.108
    19   6 C    3.692 --    20 N    1.395    17 C    1.159    24 O    0.966
    20   7 N    2.723 --    19 C    1.395    21 N    1.192
    21   7 N    2.979 --    22 C    1.625    20 N    1.192
    22   6 C    3.811 --    21 N    1.625    24 O    1.043    23 C    1.022
    23   6 C    3.993 --    22 C    1.022    41 H    0.985    40 H    0.973
                            42 H    0.971
    24   8 O    2.180 --    22 C    1.043    19 C    0.966
    25   7 N    2.953 --    12 C    1.610     5 C    1.112    11 N    0.102
    26   1 H    1.021 --     1 C    0.980
    27   1 H    1.021 --     1 C    0.987
    28   1 H    1.021 --     1 C    0.980
    29   1 H    1.038 --    10 C    0.978
    30   1 H    1.020 --    10 C    0.987
    31   1 H    1.013 --    10 C    0.983
    32   1 H    0.960 --    11 N    0.907
    33   1 H    1.009 --    14 C    0.988
    34   1 H    1.023 --    14 C    0.980
    35   1 H    1.010 --    14 C    0.986
    36   1 H    1.022 --    15 C    0.984
    37   1 H    1.016 --    15 C    0.985
    38   1 H    1.011 --    15 C    0.987
    39   1 H    0.965 --    16 N    0.919
    40   1 H    1.003 --    23 C    0.973
    41   1 H    1.002 --    23 C    0.985
    42   1 H    1.002 --    23 C    0.971
 ---------------------------------------------------------------------------

           -------------------------------------------------
          | TOTAL ENERGY              -83.592302380705 Eh   |
          | GRADIENT NORM               0.000635158333 Eh/α |
          | HOMO-LUMO GAP               0.035598715191 eV   |
           -------------------------------------------------

 * finished run on 2023/06/21 at 17:25:50.894
