   * xtb version 6.5.1 (579679a) compiled by 'ehlert@majestix' on 2022-07-11
          program call               : /lustre/hpc/kemi/ree/PhD/git/ReactivityQM/dep/xtb-6.5.1/bin/xtb --gfn 1 /lustre/hpc/kemi/ree/PhD/git/ReactivityQM/calculations/R03/reac01prodE01/conf04/R03_reac01prodE01_conf04_gfn1.xyz --opt --vfukui --chrg -1 --uhf 0 --alpb DMSO

   ID    Z sym.   atoms
    1    6 C      1-3, 5-7, 9, 10
    2    7 N      4
    3    9 F      8
    4    1 H      11-21

      * Solvation model:               ALPB
        Solvent                        DMSO
        Solvent mass                       7.8130E+01 g/mol
          :  Hamiltonian                  GFN1-xTB          :
 * total energy  :   -31.4537999 Eh     change       -0.1790568E-11 Eh
 * total energy  :   -31.4555177 Eh     change       -0.1717843E-02 Eh
 * total energy  :   -31.4558026 Eh     change       -0.2848432E-03 Eh
 * total energy  :   -31.4558720 Eh     change       -0.6940119E-04 Eh
 * total energy  :   -31.4559309 Eh     change       -0.5896419E-04 Eh
 * total energy  :   -31.4559737 Eh     change       -0.4279160E-04 Eh
 * total energy  :   -31.4560124 Eh     change       -0.3872419E-04 Eh
 * total energy  :   -31.4560326 Eh     change       -0.2015228E-04 Eh
 * total energy  :   -31.4560430 Eh     change       -0.1039705E-04 Eh
 * total energy  :   -31.4560503 Eh     change       -0.7261401E-05 Eh
 * total energy  :   -31.4560609 Eh     change       -0.1069641E-04 Eh
 * total energy  :   -31.4560673 Eh     change       -0.6315216E-05 Eh
 * total energy  :   -31.4560691 Eh     change       -0.1880503E-05 Eh
   *** GEOMETRY OPTIMIZATION CONVERGED AFTER 13 ITERATIONS ***

 final structure:
================
21
 xtb: 6.5.1 (579679a)
C           -0.29086785634079       -1.38404682003957       -1.19806848789241
C           -0.14930946781933       -0.12798082074294       -0.28436727469771
C           -1.51818804193393        0.62343845774843       -0.27678366044368
N           -2.59345050617803       -0.16826510559315        0.34072096549370
C            0.90468234056616        0.80339217691918       -0.86272576273470
C            2.05647603047689        1.13176112249780       -0.19935823304265
C            2.30950512070502        0.63275270669024        1.07777509371065
F            3.49036478734739        0.99175928265100        1.72989411352330
C            1.38986058082397       -0.18791911810059        1.73532011429167
C            0.22215341968577       -0.55352877635816        1.12649770111196
H           -1.02312224303624       -2.08387923432552       -0.79242264577670
H            0.67184912528401       -1.89307868519596       -1.26116074296212
H           -0.59802233816919       -1.09694679601094       -2.20525936504393
H           -1.39419771904421        1.54004413572385        0.31277988221000
H           -1.79141662907709        0.91755592563744       -1.30395551010577
H           -2.90665039908298       -0.87136030892827       -0.31759487703961
H           -3.38319076942367        0.43887076992333        0.50664517508385
H            0.71053772000129        1.19984988007418       -1.85561334382158
H            2.78333867498280        1.79351420771154       -0.66525076179561
H            1.61044471405919       -0.53007577969528        2.74451149647840
H           -0.50079654382698       -1.17585722058661        1.64841712345295

          :  Hamiltonian                  GFN1-xTB          :
         :: total energy             -31.456069142567 Eh    ::
         :: gradient norm              0.000370482868 Eh/a0 ::
         :: HOMO-LUMO gap              2.364052545442 eV    ::
         :: SCC energy               -31.826014571889 Eh    ::
         :: -> Gsolv                  -0.083950240590 Eh    ::
         :: repulsion energy           0.380435790539 Eh    ::

    * Orbital Energies and Occupations

         #    Occupation            Energy/Eh            Energy/eV
      -------------------------------------------------------------
         1        2.0000           -0.7744967             -21.0751
       ...           ...                  ...                  ...
        16        2.0000           -0.4856192             -13.2144
        17        2.0000           -0.4791643             -13.0387
        18        2.0000           -0.4742000             -12.9036
        19        2.0000           -0.4628052             -12.5936
        20        2.0000           -0.4551518             -12.3853
        21        2.0000           -0.4357076             -11.8562
        22        2.0000           -0.4348496             -11.8329
        23        2.0000           -0.4163658             -11.3299
        24        2.0000           -0.4047621             -11.0141
        25        2.0000           -0.3939195             -10.7191
        26        2.0000           -0.3737682             -10.1707
        27        2.0000           -0.3701016             -10.0710
        28        2.0000           -0.2715577              -7.3895 (HOMO)
        29                         -0.1846804              -5.0254 (LUMO)
        30                         -0.1063913              -2.8951
        31                         -0.0855423              -2.3277
        32                         -0.0724668              -1.9719
        33                         -0.0717864              -1.9534
        34                         -0.0522443              -1.4216
        35                         -0.0474807              -1.2920
        36                         -0.0438852              -1.1942
        37                         -0.0337610              -0.9187
        38                         -0.0224115              -0.6098
        39                         -0.0152881              -0.4160
       ...                                ...                  ...
        62                          0.6500146              17.6878
      -------------------------------------------------------------
                  HL-Gap            0.0868773 Eh            2.3641 eV

Wiberg/Mayer (AO) data.
largest (>0.10) Wiberg bond orders for each atom

     #   Z sym  total        # sym  WBO       # sym  WBO       # sym  WBO
 ---------------------------------------------------------------------------
     1   6 C    3.991 --    12 H    0.988    13 H    0.986    11 H    0.985
                             2 C    0.967
     2   6 C    3.984 --    10 C    1.006     5 C    1.004     1 C    0.967
                             3 C    0.959
     3   6 C    3.964 --     4 N    0.985    14 H    0.983    15 H    0.976
                             2 C    0.959
     4   7 N    2.946 --     3 C    0.985    16 H    0.959    17 H    0.955
     5   6 C    3.924 --     6 C    1.586     2 C    1.004    18 H    0.976
                             7 C    0.109    10 C    0.108
     6   6 C    3.992 --     5 C    1.586     7 C    1.322    19 H    0.972
     7   6 C    3.740 --     6 C    1.322     9 C    1.309     8 F    0.829
                             5 C    0.109    10 C    0.105
     8   9 F    0.920 --     7 C    0.829
     9   6 C    3.991 --    10 C    1.602     7 C    1.309    20 H    0.972
    10   6 C    3.933 --     9 C    1.602     2 C    1.006    21 H    0.976
                             5 C    0.108     7 C    0.105
    11   1 H    1.012 --     1 C    0.985
    12   1 H    1.029 --     1 C    0.988
    13   1 H    1.010 --     1 C    0.986
    14   1 H    1.036 --     3 C    0.983
    15   1 H    1.009 --     3 C    0.976
    16   1 H    0.975 --     4 N    0.959
    17   1 H    0.971 --     4 N    0.955
    18   1 H    1.003 --     5 C    0.976
    19   1 H    1.008 --     6 C    0.972
    20   1 H    1.008 --     9 C    0.972
    21   1 H    1.014 --    10 C    0.976
 ---------------------------------------------------------------------------

           -------------------------------------------------
          | TOTAL ENERGY              -31.456069142567 Eh   |
          | GRADIENT NORM               0.000370482868 Eh/α |
          | HOMO-LUMO GAP               2.364052545442 eV   |
           -------------------------------------------------

 * finished run on 2023/06/20 at 15:12:34.976
