   * xtb version 6.5.1 (579679a) compiled by 'ehlert@majestix' on 2022-07-11
          program call               : /lustre/hpc/kemi/ree/PhD/git/ReactivityQM/dep/xtb-6.5.1/bin/xtb --gfn 1 /lustre/hpc/kemi/ree/PhD/git/ReactivityQM/calculations/R03/reac02prodN13/conf06/R03_reac02prodN13_conf06_gfn1.xyz --opt --vfukui --chrg 1 --uhf 0 --alpb DMSO

   ID    Z sym.   atoms
    1    6 C      1, 3, 5, 7-10, 12, 14, 17-19, 22, 23, 25
    2    8 O      2, 4, 13, 20, 24, 26
    3    7 N      6, 11, 15, 16, 21
    4    1 H      27-46

      * Solvation model:               ALPB
        Solvent                        DMSO
        Solvent mass                       7.8130E+01 g/mol
          :  Hamiltonian                  GFN1-xTB          :
 * total energy  :   -86.2789078 Eh     change       -0.1365876E-08 Eh
 * total energy  :   -86.2930819 Eh     change       -0.1417416E-01 Eh
 * total energy  :   -86.2984074 Eh     change       -0.5325514E-02 Eh
 * total energy  :   -86.2992198 Eh     change       -0.8123240E-03 Eh
 * total energy  :   -86.2996566 Eh     change       -0.4368095E-03 Eh
 * total energy  :   -86.2997836 Eh     change       -0.1270726E-03 Eh
 * total energy  :   -86.2999237 Eh     change       -0.1400654E-03 Eh
 * total energy  :   -86.3000403 Eh     change       -0.1166228E-03 Eh
 * total energy  :   -86.3001367 Eh     change       -0.9636157E-04 Eh
 * total energy  :   -86.3001945 Eh     change       -0.5780368E-04 Eh
 * total energy  :   -86.3003336 Eh     change       -0.3120709E-04 Eh
 * total energy  :   -86.3003532 Eh     change       -0.1959926E-04 Eh
 * total energy  :   -86.3003653 Eh     change       -0.1208416E-04 Eh
 * total energy  :   -86.3003743 Eh     change       -0.9011627E-05 Eh
 * total energy  :   -86.3003814 Eh     change       -0.7074267E-05 Eh
 * total energy  :   -86.3003887 Eh     change       -0.7309935E-05 Eh
 * total energy  :   -86.3003951 Eh     change       -0.6413581E-05 Eh
 * total energy  :   -86.3004016 Eh     change       -0.6430591E-05 Eh
 * total energy  :   -86.3004039 Eh     change       -0.2364854E-05 Eh
   *** GEOMETRY OPTIMIZATION CONVERGED AFTER 22 ITERATIONS ***

 final structure:
================
46
 xtb: 6.5.1 (579679a)
C           -5.44941390648042        2.22165965187504        3.62347091281191
O           -4.75408073020746        1.87622060300595        2.41899570278846
C           -3.74824126243708        1.01968492429644        2.53642517614612
O           -3.40395268259727        0.52432239852314        3.58310199009197
C           -3.07120815413189        0.72640856294887        1.23210137118390
N           -2.05319181922239       -0.17020571754978        1.32903526546009
C           -1.34993787992506       -0.53425499620524        0.30104182559041
C           -0.28891294170975       -1.59085902165569        0.57148249715974
C           -0.70025789058417       -2.91697260401488       -0.08410081438504
C           -0.12841285551235       -1.78215752078978        2.08684120085947
N            1.00076583281324       -1.10649747158570        0.04963782166436
C            2.10616480912784       -1.87006904875104        0.00558477599624
O            2.20695476967915       -3.04539801172095        0.27653126832552
C            3.30677420732823       -1.08053130833190       -0.44642468136755
N            4.57429231158108       -1.58504388570624       -0.52262372405954
N            5.33796139839732       -0.65380551962937       -0.90691458670581
C            4.59413028392904        0.54326686486976       -1.10796299044909
C            4.65240704794044        0.97921670015200       -2.57666068599964
C            5.06096435577910        1.64634780979253       -0.15090132759759
O            3.25726798301515        0.15577507666691       -0.77548865842869
N           -1.59601477796862       -0.04424904356153       -0.95024547287725
C           -0.87676463167002       -0.40996253840344       -2.17090121621519
C           -2.61688970571020        0.87179337189302       -1.16850188545862
O           -2.86208736850525        1.31656688081669       -2.28016188919553
C           -3.38121521856814        1.26826137972201        0.00932901590835
O           -4.35037562903255        2.15006829248428       -0.20617792183158
H           -6.19558047018657        2.96411017198247        3.34773460334317
H           -5.93008826284974        1.33537322666060        4.04438523373619
H           -4.74929068744298        2.63613464194139        4.35240129783206
H           -1.73493548642948       -3.13077806855861        0.18115196422670
H           -0.61635881092660       -2.86319636013574       -1.16610603119853
H           -0.06999734785369       -3.72730082575046        0.27659711481322
H           -1.06885957536191       -2.13169196539782        2.50927032028101
H            0.14151954532359       -0.83722393787472        2.55407367011089
H            0.65039260838962       -2.51710995852664        2.28031064322327
H            1.10486472088023       -0.11697337463488       -0.10150232393866
H            5.68211927996157        1.21843509895687       -2.83150697807244
H            4.02235821523064        1.85543479203603       -2.70614886991789
H            4.29144458078203        0.16868615941609       -3.20556351221522
H            4.42969999370172        2.52024261353807       -0.29078378499596
H            4.97843744900767        1.29132307666805        0.87410191257339
H            6.09530121537339        1.89337408373039       -0.37789518993907
H           -0.67728685191751        0.50633846621965       -2.72513141367177
H           -1.51274154703922       -1.05961810716613       -2.77245475293652
H            0.05475359741343       -0.90733123472006       -1.93443283934980
H           -4.36248071136005        2.39218867245871       -1.15185503332874

          :  Hamiltonian                  GFN1-xTB          :
         :: total energy             -86.300403936742 Eh    ::
         :: gradient norm              0.000283008012 Eh/a0 ::
         :: HOMO-LUMO gap              0.131558580228 eV    ::
         :: SCC energy               -87.123712758886 Eh    ::
         :: -> Gsolv                  -0.118653630449 Eh    ::
         :: repulsion energy           0.852207759104 Eh    ::

    * Orbital Energies and Occupations

         #    Occupation            Energy/Eh            Energy/eV
      -------------------------------------------------------------
         1        2.0000           -0.9333063             -25.3966
       ...           ...                  ...                  ...
        58        2.0000           -0.5322245             -14.4826
        59        2.0000           -0.5273353             -14.3495
        60        2.0000           -0.5199366             -14.1482
        61        2.0000           -0.5193281             -14.1316
        62        2.0000           -0.5125261             -13.9465
        63        2.0000           -0.5034249             -13.6989
        64        2.0000           -0.5000928             -13.6082
        65        2.0000           -0.4981304             -13.5548
        66        2.0000           -0.4932648             -13.4224
        67        2.0000           -0.4890610             -13.3080
        68        2.0000           -0.4763301             -12.9616
        69        2.0000           -0.4644613             -12.6386
        70        1.8544           -0.4462915             -12.1442 (HOMO)
        71        0.1456           -0.4414568             -12.0127 (LUMO)
        72                         -0.3573594              -9.7242
        73                         -0.3387940              -9.2191
        74                         -0.3047334              -8.2922
        75                         -0.2577981              -7.0150
        76                         -0.2538973              -6.9089
        77                         -0.1749711              -4.7612
        78                         -0.1611513              -4.3851
        79                         -0.1557872              -4.2392
        80                         -0.1544113              -4.2017
        81                         -0.1414780              -3.8498
       ...                                ...                  ...
       144                          0.7252010              19.7337
      -------------------------------------------------------------
                  HL-Gap            0.0048347 Eh            0.1316 eV

Wiberg/Mayer (AO) data.
largest (>0.10) Wiberg bond orders for each atom

     #   Z sym  total        # sym  WBO       # sym  WBO       # sym  WBO
 ---------------------------------------------------------------------------
     1   6 C    3.865 --    27 H    0.986    29 H    0.979    28 H    0.979
                             2 O    0.891
     2   8 O    2.211 --     3 C    1.129     1 C    0.891     4 O    0.139
     3   6 C    3.854 --     4 O    1.665     2 O    1.129     5 C    0.985
     4   8 O    1.926 --     3 C    1.665     2 O    0.139
     5   6 C    3.926 --    25 C    1.448     6 N    1.221     3 C    0.985
     6   7 N    2.997 --     7 C    1.532     5 C    1.221
     7   6 C    3.903 --     6 N    1.532    21 N    1.195     8 C    0.978
     8   6 C    3.910 --    10 C    0.979     7 C    0.978     9 C    0.976
                            11 N    0.907
     9   6 C    3.979 --    30 H    0.982    31 H    0.980     8 C    0.976
                            32 H    0.976
    10   6 C    3.979 --    34 H    0.983    35 H    0.982    33 H    0.980
                             8 C    0.979
    11   7 N    3.402 --    12 C    1.273     8 C    0.907    36 H    0.885
                            13 O    0.209
    12   6 C    3.923 --    13 O    1.616    11 N    1.273    14 C    0.951
    13   8 O    1.945 --    12 C    1.616    11 N    0.209
    14   6 C    3.727 --    20 O    1.306    15 N    1.225    12 C    0.951
    15   7 N    3.012 --    16 N    1.648    14 C    1.225
    16   7 N    2.897 --    15 N    1.648    17 C    1.055
    17   6 C    3.815 --    16 N    1.055    19 C    0.907    18 C    0.907
                            20 O    0.858
    18   6 C    3.941 --    39 H    0.979    37 H    0.977    38 H    0.976
                            17 C    0.907
    19   6 C    3.941 --    41 H    0.979    42 H    0.977    40 H    0.976
                            17 C    0.907
    20   8 O    2.345 --    14 C    1.306    17 C    0.858
    21   7 N    3.499 --     7 C    1.195    23 C    1.112    22 C    0.923
                            24 O    0.123
    22   6 C    3.910 --    45 H    0.977    43 H    0.972    44 H    0.970
                            21 N    0.923
    23   6 C    3.897 --    24 O    1.583    21 N    1.112    25 C    1.063
    24   8 O    1.887 --    23 C    1.583    21 N    0.123
    25   6 C    3.861 --     5 C    1.448    26 O    1.137    23 C    1.063
    26   8 O    2.085 --    25 C    1.137    46 H    0.796
    27   1 H    1.009 --     1 C    0.986
    28   1 H    1.005 --     1 C    0.979
    29   1 H    1.006 --     1 C    0.979
    30   1 H    0.998 --     9 C    0.982
    31   1 H    0.998 --     9 C    0.980
    32   1 H    1.006 --     9 C    0.976
    33   1 H    1.006 --    10 C    0.980
    34   1 H    1.005 --    10 C    0.983
    35   1 H    1.001 --    10 C    0.982
    36   1 H    0.925 --    11 N    0.885
    37   1 H    0.992 --    18 C    0.977
    38   1 H    0.991 --    18 C    0.976
    39   1 H    0.991 --    18 C    0.979
    40   1 H    0.992 --    19 C    0.976
    41   1 H    0.991 --    19 C    0.979
    42   1 H    0.992 --    19 C    0.977
    43   1 H    1.000 --    22 C    0.972
    44   1 H    0.995 --    22 C    0.970
    45   1 H    1.004 --    22 C    0.977
    46   1 H    0.836 --    26 O    0.796
 ---------------------------------------------------------------------------

           -------------------------------------------------
          | TOTAL ENERGY              -86.300403936742 Eh   |
          | GRADIENT NORM               0.000283008012 Eh/α |
          | HOMO-LUMO GAP               0.131558580228 eV   |
           -------------------------------------------------

 * finished run on 2023/06/20 at 15:48:59.581
