   * xtb version 6.5.1 (579679a) compiled by 'ehlert@majestix' on 2022-07-11
          program call               : /lustre/hpc/kemi/ree/PhD/git/ReactivityQM/dep/xtb-6.5.1/bin/xtb --gfn 1 /lustre/hpc/kemi/ree/PhD/git/ReactivityQM/calculations/RaltegravirCLI/reac02prodE06/conf15/RaltegravirCLI_reac02prodE06_conf15_gfn1.xyz --opt --vfukui --chrg -1 --uhf 0 --alpb DMSO

   ID    Z sym.   atoms
    1    6 C      1, 3-6, 9, 10, 13-18, 20-22, 24
    2    7 N      2, 7, 8, 12
    3    8 O      11, 23, 25
    4    9 F      19
    5    1 H      26-47

      * Solvation model:               ALPB
        Solvent                        DMSO
        Solvent mass                       7.8130E+01 g/mol
          :  Hamiltonian                  GFN1-xTB          :
 * total energy  :   -80.1738632 Eh     change       -0.8711254E-11 Eh
 * total energy  :   -80.1806271 Eh     change       -0.6763876E-02 Eh
 * total energy  :   -80.1823464 Eh     change       -0.1719330E-02 Eh
 * total energy  :   -80.1827166 Eh     change       -0.3701842E-03 Eh
 * total energy  :   -80.1830554 Eh     change       -0.3388611E-03 Eh
 * total energy  :   -80.1832386 Eh     change       -0.1831372E-03 Eh
 * total energy  :   -80.1834255 Eh     change       -0.1869529E-03 Eh
 * total energy  :   -80.1836182 Eh     change       -0.1926260E-03 Eh
 * total energy  :   -80.1838657 Eh     change       -0.2475040E-03 Eh
 * total energy  :   -80.1841953 Eh     change       -0.3296857E-03 Eh
 * total energy  :   -80.1880323 Eh     change       -0.6680130E-05 Eh
 * total energy  :   -80.1880381 Eh     change       -0.5767306E-05 Eh
 * total energy  :   -80.1880433 Eh     change       -0.5252554E-05 Eh
 * total energy  :   -80.1880485 Eh     change       -0.5153995E-05 Eh
 * total energy  :   -80.1880537 Eh     change       -0.5234976E-05 Eh
 * total energy  :   -80.1880590 Eh     change       -0.5317701E-05 Eh
 * total energy  :   -80.1880644 Eh     change       -0.5384652E-05 Eh
 * total energy  :   -80.1880696 Eh     change       -0.5129577E-05 Eh
 * total energy  :   -80.1880743 Eh     change       -0.4753516E-05 Eh
   *** GEOMETRY OPTIMIZATION CONVERGED AFTER 120 ITERATIONS ***

 final structure:
================
47
 xtb: 6.5.1 (579679a)
C           -4.07701952764777       -1.94552334726091        1.88407815961899
N           -2.91192256996526       -1.40434337014272        1.18961902316358
C           -2.96379810816471       -0.33957858074221        0.31698074404260
C           -4.26165969284135        0.41121721304501        0.03329622779762
C           -4.50867382878314        1.42317290023537        1.16223985150477
C           -4.12416307111407        1.16626682291001       -1.30022801731149
N           -5.39372510660782       -0.50969334625580       -0.04282738928901
N           -1.90777533782536        0.11873559620873       -0.26857186397552
C           -0.66572586942024       -0.44184190394538       -0.09216745309335
C            0.41188947232558        0.22469867219633       -0.86008570456150
O            0.23053305658347        1.31062470229194       -1.42854402783359
N            1.58970339360488       -0.43880793998166       -0.94244575087106
C            2.74711781462653        0.12873048740424       -1.59203463728538
C            3.78802237508310        0.77378475620257       -0.57906882149762
C            3.02725349481054        1.81431574054715        0.27670270202233
C            4.37862109299223       -0.30163545583173        0.29683804342785
C            5.68141231692681       -0.70223909935877        0.20657788814357
C            6.55319489649678       -0.06688012628087       -0.68009745877656
F            7.86552241737932       -0.48269320223670       -0.74462731292139
C            6.14469509649320        1.01485988822299       -1.45976609763757
C            4.85079287216396        1.45388547143913       -1.40583969039437
C           -0.55992254704439       -1.52940300221713        0.75190437952157
O            0.61471605813297       -2.17183134272214        1.02072965898478
C           -1.70287947811170       -2.05969448757185        1.42956985373251
O           -1.62800410817161       -3.03628887386223        2.19174021019202
H           -3.72439429749099       -2.55176182859291        2.71930877171053
H           -4.70430242127795       -1.14235372883658        2.25908148449064
H           -4.66144679970338       -2.56772701813309        1.20648200914133
H           -4.65636447120861        0.91935995432584        2.11588478174301
H           -5.39906848512213        2.00964845915879        0.94067918283776
H           -3.65672004034358        2.09734187571308        1.25006661104098
H           -3.90576588401492        0.46609277017572       -2.10563520476018
H           -3.31815078545515        1.89777805773573       -1.24356489197525
H           -5.05768663552205        1.67965093676994       -1.52313007169474
H           -5.36324830928402       -1.01703327279606       -0.91770683725937
H           -6.25432517592401        0.01813843228652       -0.03005064775108
H            1.71945258712457       -1.30405513843475       -0.44398796248446
H            3.26580709637491       -0.65926222870795       -2.14541106319233
H            2.41539705341096        0.89734329876162       -2.29830114005125
H            3.73704137461424        2.34602502134242        0.91061049854098
H            2.29390409781604        1.32148285377491        0.91597935109340
H            2.51314746823213        2.53637040109419       -0.35938948378210
H            3.70527754551859       -0.78307787650336        0.99891371750746
H            6.05638263785502       -1.50259330129539        0.83705859412125
H            6.87044582917968        1.51899320164006       -2.09062420308627
H            4.53804739302213        2.31007817955512       -1.99525593003339
H            0.40836611026586       -2.90027822132175        1.63502191715399

          :  Hamiltonian                  GFN1-xTB          :
         :: total energy             -80.188074313082 Eh    ::
         :: gradient norm              0.000150525783 Eh/a0 ::
         :: HOMO-LUMO gap              0.261001547985 eV    ::
         :: SCC energy               -81.044198733804 Eh    ::
         :: -> Gsolv                  -0.102422967348 Eh    ::
         :: repulsion energy           0.886770525708 Eh    ::

    * Orbital Energies and Occupations

         #    Occupation            Energy/Eh            Energy/eV
      -------------------------------------------------------------
         1        2.0000           -0.8012654             -21.8035
       ...           ...                  ...                  ...
        56        2.0000           -0.4560722             -12.4104
        57        2.0000           -0.4417471             -12.0206
        58        2.0000           -0.4407260             -11.9928
        59        2.0000           -0.4390701             -11.9477
        60        2.0000           -0.4307291             -11.7207
        61        2.0000           -0.4224734             -11.4961
        62        2.0000           -0.4161242             -11.3233
        63        2.0000           -0.4094473             -11.1416
        64        2.0000           -0.4044066             -11.0045
        65        2.0000           -0.4028170             -10.9612
        66        2.0000           -0.3951422             -10.7524
        67        2.0000           -0.3948695             -10.7449
        68        1.9872           -0.2978115              -8.1039 (HOMO)
        69        0.0128           -0.2882199              -7.8429 (LUMO)
        70                         -0.2501963              -6.8082
        71                         -0.2098224              -5.7096
        72                         -0.1996831              -5.4337
        73                         -0.1279020              -3.4804
        74                         -0.1257252              -3.4212
        75                         -0.1211922              -3.2978
        76                         -0.1159444              -3.1550
        77                         -0.1101793              -2.9981
        78                         -0.0930310              -2.5315
        79                         -0.0894408              -2.4338
       ...                                ...                  ...
       144                          0.7039164              19.1545
      -------------------------------------------------------------
                  HL-Gap            0.0095916 Eh            0.2610 eV

Wiberg/Mayer (AO) data.
largest (>0.10) Wiberg bond orders for each atom

     #   Z sym  total        # sym  WBO       # sym  WBO       # sym  WBO
 ---------------------------------------------------------------------------
     1   6 C    3.935 --    27 H    0.979    28 H    0.978    26 H    0.976
                             2 N    0.938
     2   7 N    3.426 --     3 C    1.151    24 C    1.089     1 C    0.938
                            25 O    0.113
     3   6 C    3.905 --     8 N    1.585     2 N    1.151     4 C    0.975
     4   6 C    3.966 --     6 C    0.990     5 C    0.984     7 N    0.982
                             3 C    0.975
     5   6 C    3.993 --    31 H    0.986     4 C    0.984    30 H    0.984
                            29 H    0.980
     6   6 C    3.995 --     4 C    0.990    34 H    0.987    32 H    0.985
                            33 H    0.982
     7   7 N    2.977 --     4 C    0.982    35 H    0.943    36 H    0.942
     8   7 N    3.024 --     3 C    1.585     9 C    1.177
     9   6 C    3.899 --    22 C    1.417     8 N    1.177    10 C    1.039
    10   6 C    3.899 --    11 O    1.504    12 N    1.235     9 C    1.039
    11   8 O    1.810 --    10 C    1.504    12 N    0.159
    12   7 N    3.359 --    10 C    1.235    13 C    0.966    37 H    0.899
                            11 O    0.159
    13   6 C    3.926 --    38 H    0.979    39 H    0.975    12 N    0.966
                            14 C    0.900
    14   6 C    3.983 --    16 C    1.023    21 C    1.021    15 C    0.977
                            13 C    0.900
    15   6 C    3.990 --    40 H    0.988    41 H    0.986    42 H    0.985
                            14 C    0.977
    16   6 C    3.911 --    17 C    1.600    14 C    1.023    43 H    0.974
    17   6 C    3.994 --    16 C    1.600    18 C    1.308    44 H    0.971
    18   6 C    3.653 --    20 C    1.318    17 C    1.308    19 F    0.858
    19   9 F    0.948 --    18 C    0.858
    20   6 C    3.993 --    21 C    1.589    18 C    1.318    45 H    0.971
    21   6 C    3.855 --    20 C    1.589    14 C    1.021    46 H    0.976
    22   6 C    3.854 --     9 C    1.417    24 C    1.160    23 O    1.035
    23   8 O    2.024 --    22 C    1.035    47 H    0.815
    24   6 C    3.870 --    25 O    1.484    22 C    1.160     2 N    1.089
    25   8 O    1.817 --    24 C    1.484     2 N    0.113
    26   1 H    1.013 --     1 C    0.976
    27   1 H    1.023 --     1 C    0.979
    28   1 H    1.019 --     1 C    0.978
    29   1 H    1.006 --     5 C    0.980
    30   1 H    1.001 --     5 C    0.984
    31   1 H    1.005 --     5 C    0.986
    32   1 H    1.009 --     6 C    0.985
    33   1 H    1.018 --     6 C    0.982
    34   1 H    1.005 --     6 C    0.987
    35   1 H    0.960 --     7 N    0.943
    36   1 H    0.957 --     7 N    0.942
    37   1 H    0.960 --    12 N    0.899
    38   1 H    1.024 --    13 C    0.979
    39   1 H    1.020 --    13 C    0.975
    40   1 H    1.020 --    15 C    0.988
    41   1 H    1.010 --    15 C    0.986
    42   1 H    1.013 --    15 C    0.985
    43   1 H    1.004 --    16 C    0.974
    44   1 H    1.006 --    17 C    0.971
    45   1 H    1.006 --    20 C    0.971
    46   1 H    1.003 --    21 C    0.976
    47   1 H    0.862 --    23 O    0.815
 ---------------------------------------------------------------------------

           -------------------------------------------------
          | TOTAL ENERGY              -80.188074313082 Eh   |
          | GRADIENT NORM               0.000150525783 Eh/α |
          | HOMO-LUMO GAP               0.261001547985 eV   |
           -------------------------------------------------

 * finished run on 2023/06/20 at 15:03:25.203
