   * xtb version 6.5.1 (579679a) compiled by 'ehlert@majestix' on 2022-07-11
          program call               : /lustre/hpc/kemi/ree/PhD/git/ReactivityQM/dep/xtb-6.5.1/bin/xtb --gfn 1 /lustre/hpc/kemi/ree/PhD/git/ReactivityQM/calculations/R01/reac02prodN12/conf20/R01_reac02prodN12_conf20_gfn1.xyz --opt --vfukui --chrg 1 --uhf 0 --alpb DMSO

   ID    Z sym.   atoms
    1    6 C      1, 3, 5, 7-10, 13, 15, 16
    2    8 O      2, 4, 14, 17
    3    7 N      6, 11, 12
    4    1 H      18-33

      * Solvation model:               ALPB
        Solvent                        DMSO
        Solvent mass                       7.8130E+01 g/mol
          :  Hamiltonian                  GFN1-xTB          :
 * total energy  :   -57.8372896 Eh     change       -0.4156675E-11 Eh
 * total energy  :   -57.8548892 Eh     change       -0.1759954E-01 Eh
 * total energy  :   -57.8605895 Eh     change       -0.5700335E-02 Eh
 * total energy  :   -57.8619609 Eh     change       -0.1371364E-02 Eh
 * total energy  :   -57.8628492 Eh     change       -0.8883179E-03 Eh
 * total energy  :   -57.8631210 Eh     change       -0.2718500E-03 Eh
 * total energy  :   -57.8632667 Eh     change       -0.1456337E-03 Eh
 * total energy  :   -57.8633437 Eh     change       -0.7705644E-04 Eh
 * total energy  :   -57.8633819 Eh     change       -0.3814261E-04 Eh
 * total energy  :   -57.8634137 Eh     change       -0.3183892E-04 Eh
 * total energy  :   -57.8643526 Eh     change       -0.4076629E-04 Eh
 * total energy  :   -57.8643645 Eh     change       -0.1190655E-04 Eh
 * total energy  :   -57.8644296 Eh     change       -0.6509622E-04 Eh
 * total energy  :   -57.8644464 Eh     change       -0.1681904E-04 Eh
 * total energy  :   -57.8644550 Eh     change       -0.8598787E-05 Eh
 * total energy  :   -57.8644622 Eh     change       -0.7134137E-05 Eh
 * total energy  :   -57.8644738 Eh     change       -0.1165972E-04 Eh
 * total energy  :   -57.8644818 Eh     change       -0.8000091E-05 Eh
 * total energy  :   -57.8644867 Eh     change       -0.4832624E-05 Eh
   *** GEOMETRY OPTIMIZATION CONVERGED AFTER 73 ITERATIONS ***

 final structure:
================
33
 xtb: 6.5.1 (579679a)
C            3.71500763542340       -2.73740111127104       -0.32239258567406
O            2.49400876038702       -1.99217508965370       -0.17877397145565
C            2.54870021594498       -0.70789100557726       -0.44007992257674
O            3.55180125504136       -0.12006435286219       -0.79331255336413
C            1.24257094749517        0.00180150773218       -0.25780861953488
N            0.17416149698320       -0.72600067741864        0.11353345384680
C           -0.97723387574865       -0.14137209377567        0.29084437084919
C           -2.20023438148161       -0.95027124855117        0.68079643061029
C           -1.78347967056418       -2.03113059978754        1.68628992929165
C           -2.76461942537918       -1.58664112160405       -0.59946601138839
N           -3.22490888862669       -0.11736060334009        1.27806767133137
N           -1.10160053089199        1.20031010363241        0.09954404853719
C           -0.08843215439871        1.99670807249257       -0.27415130834920
O           -0.41362495807097        3.25513309615113       -0.40471488805070
C            0.51586190173261        4.27924254165638       -0.80189724236524
C            1.17284062252018        1.37691948654827       -0.47340915896355
O            2.20906387084748        2.11833642565665       -0.84473689033744
H            3.48558801975848       -3.76056160660365       -0.03327892261428
H            4.48204161898925       -2.31365504715280        0.32842710823108
H            4.05079638753106       -2.69462226374644       -1.36005898885243
H           -1.37684788191835       -1.56786862757518        2.58392864711214
H           -2.65655663884627       -2.62273767684804        1.95678192770547
H           -1.02589341520329       -2.67952629923117        1.24839428624466
H           -2.02489027711287       -2.24716365933214       -1.05004601697892
H           -3.65694732520019       -2.15878811647513       -0.34911674155928
H           -3.02993585291161       -0.81072155749853       -1.31591750390694
H           -2.84749978034535        0.44671043224405        2.02422676714741
H           -3.66364904517750        0.47899815799509        0.59397890067379
H           -2.00066607597691        1.64394394955247        0.24845554067345
H           -0.06566157879432        5.20003142175934       -0.81671137351772
H            1.32744601800065        4.35218421041027       -0.07733202703325
H            0.91277796995076        4.06273455789450       -1.79421303710660
H            3.02001503604467        1.55289979457777       -0.94585131862403

          :  Hamiltonian                  GFN1-xTB          :
         :: total energy             -57.864486666148 Eh    ::
         :: gradient norm              0.000467018587 Eh/a0 ::
         :: HOMO-LUMO gap              1.623177402518 eV    ::
         :: SCC energy               -58.437335099604 Eh    ::
         :: -> Gsolv                  -0.094357706957 Eh    ::
         :: repulsion energy           0.590864572329 Eh    ::

    * Orbital Energies and Occupations

         #    Occupation            Energy/Eh            Energy/eV
      -------------------------------------------------------------
         1        2.0000           -0.8924590             -24.2850
       ...           ...                  ...                  ...
        35        2.0000           -0.5371081             -14.6155
        36        2.0000           -0.5326964             -14.4954
        37        2.0000           -0.5307651             -14.4429
        38        2.0000           -0.5296605             -14.4128
        39        2.0000           -0.5271719             -14.3451
        40        2.0000           -0.5211893             -14.1823
        41        2.0000           -0.5161632             -14.0455
        42        2.0000           -0.5157670             -14.0347
        43        2.0000           -0.5078547             -13.8194
        44        2.0000           -0.5040172             -13.7150
        45        2.0000           -0.4824602             -13.1284
        46        2.0000           -0.4747247             -12.9179
        47        2.0000           -0.4356129             -11.8536 (HOMO)
        48                         -0.3759622             -10.2305 (LUMO)
        49                         -0.3283005              -8.9335
        50                         -0.2845891              -7.7441
        51                         -0.2014349              -5.4813
        52                         -0.1602470              -4.3605
        53                         -0.1504624              -4.0943
        54                         -0.1480118              -4.0276
        55                         -0.1378416              -3.7509
        56                         -0.1317997              -3.5865
        57                         -0.1017620              -2.7691
        58                         -0.0935817              -2.5465
       ...                                ...                  ...
       100                          0.6836053              18.6018
      -------------------------------------------------------------
                  HL-Gap            0.0596507 Eh            1.6232 eV

Wiberg/Mayer (AO) data.
largest (>0.10) Wiberg bond orders for each atom

     #   Z sym  total        # sym  WBO       # sym  WBO       # sym  WBO
 ---------------------------------------------------------------------------
     1   6 C    3.848 --    18 H    0.985    19 H    0.977    20 H    0.977
                             2 O    0.875
     2   8 O    2.244 --     3 C    1.174     1 C    0.875     4 O    0.142
     3   6 C    3.856 --     4 O    1.623     2 O    1.174     5 C    0.985
     4   8 O    1.973 --     3 C    1.623     2 O    0.142
     5   6 C    3.970 --    16 C    1.377     6 N    1.298     3 C    0.985
     6   7 N    3.042 --     7 C    1.499     5 C    1.298
     7   6 C    3.892 --     6 N    1.499    12 N    1.189     8 C    0.971
     8   6 C    3.960 --    11 N    0.999     9 C    0.985     7 C    0.971
                            10 C    0.969
     9   6 C    3.991 --     8 C    0.985    21 H    0.985    23 H    0.985
                            22 H    0.984
    10   6 C    3.989 --    24 H    0.985    26 H    0.985    25 H    0.981
                             8 C    0.969
    11   7 N    2.960 --     8 C    0.999    27 H    0.936    28 H    0.935
    12   7 N    3.541 --    13 C    1.266     7 C    1.189    29 H    0.860
    13   6 C    3.893 --    12 N    1.266    16 C    1.206    14 O    1.180
    14   8 O    2.257 --    13 C    1.180    15 C    0.859
    15   6 C    3.826 --    30 H    0.981    32 H    0.976    31 H    0.976
                            14 O    0.859
    16   6 C    3.934 --     5 C    1.377    13 C    1.206    17 O    1.136
    17   8 O    2.095 --    16 C    1.136    33 H    0.742
    18   1 H    1.007 --     1 C    0.985
    19   1 H    1.002 --     1 C    0.977
    20   1 H    1.002 --     1 C    0.977
    21   1 H    1.000 --     9 C    0.985
    22   1 H    1.003 --     9 C    0.984
    23   1 H    1.008 --     9 C    0.985
    24   1 H    1.001 --    10 C    0.985
    25   1 H    0.999 --    10 C    0.981
    26   1 H    0.999 --    10 C    0.985
    27   1 H    0.949 --    11 N    0.936
    28   1 H    0.949 --    11 N    0.935
    29   1 H    0.911 --    12 N    0.860
    30   1 H    1.004 --    15 C    0.981
    31   1 H    1.005 --    15 C    0.976
    32   1 H    1.005 --    15 C    0.976
    33   1 H    0.827 --    17 O    0.742
 ---------------------------------------------------------------------------

           -------------------------------------------------
          | TOTAL ENERGY              -57.864486666148 Eh   |
          | GRADIENT NORM               0.000467018587 Eh/α |
          | HOMO-LUMO GAP               1.623177402518 eV   |
           -------------------------------------------------

 * finished run on 2023/06/20 at 15:11:46.350
