   * xtb version 6.5.1 (579679a) compiled by 'ehlert@majestix' on 2022-07-11
          program call               : /lustre/hpc/kemi/ree/PhD/git/ReactivityQM/dep/xtb-6.5.1/bin/xtb --gfn 1 /lustre/hpc/kemi/ree/PhD/git/ReactivityQM/calculations/RaltegravirCLI/reac02prodN14/conf18/RaltegravirCLI_reac02prodN14_conf18_gfn1.xyz --opt --vfukui --chrg 1 --uhf 0 --alpb DMSO

   ID    Z sym.   atoms
    1    6 C      1-3, 5, 7, 8, 11-15, 17-19, 21, 24, 25
    2    7 N      4, 6, 10, 23
    3    8 O      9, 20, 22
    4    9 F      16
    5    1 H      26-47

      * Solvation model:               ALPB
        Solvent                        DMSO
        Solvent mass                       7.8130E+01 g/mol
          :  Hamiltonian                  GFN1-xTB          :
 * total energy  :   -79.4638446 Eh     change       -0.7848655E-10 Eh
 * total energy  :   -79.4761677 Eh     change       -0.1232308E-01 Eh
 * total energy  :   -79.4804764 Eh     change       -0.4308684E-02 Eh
 * total energy  :   -79.4813676 Eh     change       -0.8912512E-03 Eh
 * total energy  :   -79.4818648 Eh     change       -0.4972155E-03 Eh
 * total energy  :   -79.4820832 Eh     change       -0.2183495E-03 Eh
 * total energy  :   -79.4822194 Eh     change       -0.1362114E-03 Eh
 * total energy  :   -79.4822959 Eh     change       -0.7654171E-04 Eh
 * total energy  :   -79.4823266 Eh     change       -0.3069754E-04 Eh
 * total energy  :   -79.4823442 Eh     change       -0.1753396E-04 Eh
 * total energy  :   -79.4823602 Eh     change       -0.1604297E-04 Eh
 * total energy  :   -79.4823690 Eh     change       -0.8808952E-05 Eh
 * total energy  :   -79.4823797 Eh     change       -0.1069456E-04 Eh
 * total energy  :   -79.4823835 Eh     change       -0.3802628E-05 Eh
   *** GEOMETRY OPTIMIZATION CONVERGED AFTER 14 ITERATIONS ***

 final structure:
================
47
 xtb: 6.5.1 (579679a)
C           -2.53298794273974       -2.37504065102484        0.24288320526768
C           -3.21168245798897       -1.01778414768212        0.49961397378015
C           -3.68081146895885       -0.94374453318726        1.96316621959453
N           -4.35980164086457       -0.85917012936153       -0.37944652378842
C           -2.17077801540721        0.06994664989546        0.30366888544683
N           -1.00291795072371       -0.15009744310325        0.72971321976770
C            0.05987064060883        0.72762910075812        0.67418315036120
C            1.33910929780575        0.12752845750436        1.20730041059786
O            1.31752510781127       -0.92654929914189        1.82247539845267
N            2.45549305607704        0.82726042434329        0.95650330408645
C            3.76586338848416        0.32188113101606        1.36301810659435
C            4.43377952976345       -0.41950561542117        0.22471813963403
C            5.59783126885096        0.07926701417933       -0.35339255744011
C            6.21428957260888       -0.59793256747589       -1.39736442518038
C            5.63898145096158       -1.77208083336885       -1.84733925766090
F            6.22629222759336       -2.43224619521155       -2.85711227548758
C            4.48078939247265       -2.29349825791322       -1.29789012527057
C            3.88063667986567       -1.60682698021367       -0.25307029467605
C           -0.14151370627437        1.99298509663170        0.21680411013758
O            0.81450017209575        2.93036630259211        0.19097206679398
C           -1.44441425486237        2.42553095786778       -0.25106637796484
O           -1.71008259669757        3.53677511570397       -0.60991383898541
N           -2.51656947283408        1.37048708283136       -0.35602906595132
C           -3.77461370157866        1.96560125129153        0.18618443744159
C           -2.64526139704963        1.13611239855042       -1.83104283074253
H           -2.15568306607676       -2.41479932354010       -0.77747966367419
H           -1.70360768785196       -2.52046206879693        0.93412615880545
H           -3.26404355727301       -3.16882179924879        0.38317953849573
H           -4.33595673811446       -1.78870614700025        2.16911850984333
H           -4.22984630040042       -0.02191979470486        2.14352845906184
H           -2.82368640561692       -0.98513505125553        2.63414271468037
H           -4.21831433184746       -1.38258584856493       -1.23346664474810
H           -5.18829656108915       -1.22903639320960        0.06710287977645
H            2.43506144260430        1.64885506327933        0.37821030352689
H            3.61386975703323       -0.34642929012935        2.21693329657068
H            4.37186912572766        1.17522571365817        1.67575352382458
H            6.02952878776745        1.00374277144338        0.01122587739010
H            7.11918376908904       -0.22002889182637       -1.85520361185927
H            4.05988516958150       -3.21388560791590       -1.68117724396162
H            2.97358177768033       -1.99595126719016        0.19392783110456
H            0.48651429070656        3.77023481951226       -0.17248680216390
H           -3.64299360456445        2.13253775609653        1.25189011317964
H           -3.94373565086506        2.90730226448618       -0.33056711828634
H           -4.58641488590835        1.27119064528566       -0.00837086005569
H           -2.77473297527584        2.10349030182486       -2.31092168401919
H           -1.74034669703671        0.64764259594502       -2.18314505001210
H           -3.51536383728946        0.51064422179036       -1.99636658228716

          :  Hamiltonian                  GFN1-xTB          :
         :: total energy             -79.482383515306 Eh    ::
         :: gradient norm              0.000654147149 Eh/a0 ::
         :: HOMO-LUMO gap              1.291662309340 eV    ::
         :: SCC energy               -80.381564959364 Eh    ::
         :: -> Gsolv                  -0.114486605987 Eh    ::
         :: repulsion energy           0.930599318324 Eh    ::

    * Orbital Energies and Occupations

         #    Occupation            Energy/Eh            Energy/eV
      -------------------------------------------------------------
         1        2.0000           -0.8927000             -24.2916
       ...           ...                  ...                  ...
        55        2.0000           -0.5194580             -14.1352
        56        2.0000           -0.5152597             -14.0209
        57        2.0000           -0.5131542             -13.9636
        58        2.0000           -0.5079977             -13.8233
        59        2.0000           -0.5071717             -13.8008
        60        2.0000           -0.4876700             -13.2702
        61        2.0000           -0.4785130             -13.0210
        62        2.0000           -0.4755089             -12.9393
        63        2.0000           -0.4706453             -12.8069
        64        2.0000           -0.4567562             -12.4290
        65        2.0000           -0.4548945             -12.3783
        66        2.0000           -0.4421312             -12.0310
        67        2.0000           -0.4379445             -11.9171 (HOMO)
        68                         -0.3904768             -10.6254 (LUMO)
        69                         -0.3193019              -8.6886
        70                         -0.2790773              -7.5941
        71                         -0.2783545              -7.5744
        72                         -0.2716382              -7.3917
        73                         -0.2018404              -5.4924
        74                         -0.1637617              -4.4562
        75                         -0.1580537              -4.3009
        76                         -0.1512618              -4.1160
        77                         -0.1391338              -3.7860
        78                         -0.1343981              -3.6572
       ...                                ...                  ...
       144                          0.7103528              19.3297
      -------------------------------------------------------------
                  HL-Gap            0.0474677 Eh            1.2917 eV

Wiberg/Mayer (AO) data.
largest (>0.10) Wiberg bond orders for each atom

     #   Z sym  total        # sym  WBO       # sym  WBO       # sym  WBO
 ---------------------------------------------------------------------------
     1   6 C    3.988 --    26 H    0.985    28 H    0.983    27 H    0.982
                             2 C    0.975
     2   6 C    3.958 --     4 N    0.993     5 C    0.984     1 C    0.975
                             3 C    0.965
     3   6 C    3.986 --    31 H    0.984    30 H    0.983    29 H    0.978
                             2 C    0.965
     4   7 N    2.996 --     2 C    0.993    32 H    0.931    33 H    0.928
     5   6 C    3.888 --     6 N    1.775     2 C    0.984    23 N    0.868
     6   7 N    3.088 --     5 C    1.775     7 C    1.118
     7   6 C    3.954 --    19 C    1.533     6 N    1.118     8 C    0.974
     8   6 C    3.918 --     9 O    1.583    10 N    1.285     7 C    0.974
     9   8 O    1.898 --     8 C    1.583    10 N    0.187
    10   7 N    3.378 --     8 C    1.285    11 C    0.934    34 H    0.887
                             9 O    0.187
    11   6 C    3.937 --    12 C    0.992    36 H    0.975    35 H    0.966
                            10 N    0.934
    12   6 C    3.987 --    13 C    1.423    18 C    1.413    11 C    0.992
    13   6 C    3.993 --    14 C    1.439    12 C    1.423    37 H    0.970
                            17 C    0.109
    14   6 C    3.991 --    13 C    1.439    15 C    1.403    38 H    0.969
                            18 C    0.111
    15   6 C    3.862 --    14 C    1.403    17 C    1.396    16 F    0.928
    16   9 F    1.057 --    15 C    0.928
    17   6 C    3.992 --    18 C    1.449    15 C    1.396    39 H    0.969
                            13 C    0.109
    18   6 C    3.993 --    17 C    1.449    12 C    1.413    40 H    0.970
                            14 C    0.111
    19   6 C    3.925 --     7 C    1.533    20 O    1.096    21 C    1.075
    20   8 O    2.088 --    19 C    1.096    41 H    0.791
    21   6 C    3.870 --    22 O    1.755    19 C    1.075    23 N    0.861
    22   8 O    2.049 --    21 C    1.755
    23   7 N    3.622 --    24 C    0.880    25 C    0.869     5 C    0.868
                            21 C    0.861
    24   6 C    3.875 --    42 H    0.983    43 H    0.976    44 H    0.968
                            23 N    0.880
    25   6 C    3.877 --    46 H    0.982    45 H    0.977    47 H    0.971
                            23 N    0.869
    26   1 H    1.001 --     1 C    0.985
    27   1 H    1.008 --     1 C    0.982
    28   1 H    1.000 --     1 C    0.983
    29   1 H    0.996 --     3 C    0.978
    30   1 H    1.000 --     3 C    0.983
    31   1 H    1.002 --     3 C    0.984
    32   1 H    0.949 --     4 N    0.931
    33   1 H    0.943 --     4 N    0.928
    34   1 H    0.938 --    10 N    0.887
    35   1 H    1.007 --    11 C    0.966
    36   1 H    1.001 --    11 C    0.975
    37   1 H    0.999 --    13 C    0.970
    38   1 H    0.997 --    14 C    0.969
    39   1 H    0.998 --    17 C    0.969
    40   1 H    1.006 --    18 C    0.970
    41   1 H    0.819 --    20 O    0.791
    42   1 H    0.995 --    24 C    0.983
    43   1 H    0.997 --    24 C    0.976
    44   1 H    1.017 --    24 C    0.968
    45   1 H    0.994 --    25 C    0.977
    46   1 H    0.992 --    25 C    0.982
    47   1 H    1.006 --    25 C    0.971
 ---------------------------------------------------------------------------

           -------------------------------------------------
          | TOTAL ENERGY              -79.482383515306 Eh   |
          | GRADIENT NORM               0.000654147149 Eh/α |
          | HOMO-LUMO GAP               1.291662309340 eV   |
           -------------------------------------------------

 * finished run on 2023/06/20 at 15:35:52.687
