   * xtb version 6.5.1 (579679a) compiled by 'ehlert@majestix' on 2022-07-11
          program call               : /lustre/hpc/kemi/ree/PhD/git/ReactivityQM/dep/xtb-6.5.1/bin/xtb --gfn 1 /lustre/hpc/kemi/ree/PhD/git/ReactivityQM/calculations/R02deprot/reac01prodE11/conf19/R02deprot_reac01prodE11_conf19_gfn1.xyz --opt --vfukui --chrg -2 --uhf 0 --alpb DMSO

   ID    Z sym.   atoms
    1    6 C      1, 3, 5, 7-10, 12, 14, 17-19, 22, 24
    2    8 O      2, 4, 13, 20, 23, 25
    3    7 N      6, 11, 15, 16, 21
    4    1 H      26-42

      * Solvation model:               ALPB
        Solvent                        DMSO
        Solvent mass                       7.8130E+01 g/mol
          :  Hamiltonian                  GFN1-xTB          :
 * total energy  :   -83.6392429 Eh     change       -0.3302603E-10 Eh
 * total energy  :   -83.6507421 Eh     change       -0.1149925E-01 Eh
 * total energy  :   -83.6539659 Eh     change       -0.3223717E-02 Eh
 * total energy  :   -83.6543943 Eh     change       -0.4284791E-03 Eh
 * total energy  :   -83.6546121 Eh     change       -0.2178056E-03 Eh
 * total energy  :   -83.6546781 Eh     change       -0.6592397E-04 Eh
 * total energy  :   -83.6547382 Eh     change       -0.6011680E-04 Eh
 * total energy  :   -83.6547747 Eh     change       -0.3649680E-04 Eh
 * total energy  :   -83.6548009 Eh     change       -0.2623967E-04 Eh
 * total energy  :   -83.6548204 Eh     change       -0.1952989E-04 Eh
 * total energy  :   -83.6548355 Eh     change       -0.1502217E-04 Eh
 * total energy  :   -83.6548506 Eh     change       -0.1509479E-04 Eh
 * total energy  :   -83.6548608 Eh     change       -0.1023239E-04 Eh
 * total energy  :   -83.6548720 Eh     change       -0.1124277E-04 Eh
 * total energy  :   -83.6548785 Eh     change       -0.6411182E-05 Eh
 * total energy  :   -83.6548846 Eh     change       -0.6184315E-05 Eh
 * total energy  :   -83.6548917 Eh     change       -0.7074827E-05 Eh
 * total energy  :   -83.6548991 Eh     change       -0.7426340E-05 Eh
 * total energy  :   -83.6549030 Eh     change       -0.3862671E-05 Eh
   *** GEOMETRY OPTIMIZATION CONVERGED AFTER 19 ITERATIONS ***

 final structure:
================
42
 xtb: 6.5.1 (579679a)
C            5.68133793439329       -1.95445214923756        2.04962933560738
O            5.04901189468800       -0.82795968395759        1.45297886660164
C            3.92319277917645       -1.07771785486634        0.75599840379533
O            3.47463753178480       -2.20497404608185        0.65806101621800
C            3.32075190330319        0.12488829063841        0.14222194126206
N            2.18500231172575       -0.11804959847947       -0.58068780095207
C            1.59993692719838        0.90292462099567       -1.17282673032622
C            0.34670581164562        0.57278114291724       -1.98485664017253
C           -0.20866938141324        1.83715981280310       -2.65581341686362
C            0.73141115543796       -0.47658799071334       -3.04025351508436
N           -0.61878502804571        0.00147726339889       -1.04272215633188
C           -1.94016106447776       -0.26565383105507       -1.41698337764467
O           -2.26478296916262       -0.45616633799589       -2.60688292037441
C           -2.80108803759377       -0.34317971771817       -0.29182827782136
N           -2.44493411798068       -0.10429749043319        0.96057540187350
N           -3.45388139471157       -0.23636768086232        1.77622014716723
C           -4.62402033591900       -0.60704947211578        0.96520589740641
C           -5.71853015890761        0.46567871772404        1.10878820433351
C           -5.15485404321852       -1.98055057560431        1.41375899594967
O           -4.16848722588095       -0.66936527869580       -0.37843192072748
N            1.99082740696062        2.17875959397386       -1.14249349768848
C            3.10002509045969        2.50021660174494       -0.44186811015639
O            3.55999738415978        3.65890667989136       -0.33986098206119
C            3.80061356008602        1.40647244585582        0.23426987805297
O            4.91007141270741        1.77965534142959        0.91751080405499
H            5.93055776208238       -2.70179216995270        1.29027581265091
H            5.02611635854533       -2.41243949587532        2.79664554905271
H            6.59067242365463       -1.59216780328920        2.52604143006543
H           -0.50155274062216        2.56628541473630       -1.90000411080582
H           -1.07250773851207        1.59488455852578       -3.27337537019995
H            0.56097129064342        2.28348537088282       -3.28483352561035
H            1.49788456737165       -0.06931555567901       -3.69944652722890
H           -0.13259427217305       -0.76089355876333       -3.63885388034581
H            1.13084027839759       -1.36160497985345       -2.54326543402148
H           -0.52480916761105        0.35220494245769       -0.09486243818411
H           -6.57924285321614        0.21302863784205        0.49200458895818
H           -5.32427573175525        1.42976118890319        0.79124241150605
H           -6.02913534214930        0.53503104288117        2.14924155974216
H           -6.01042417036601       -2.27219670691647        0.80724179972994
H           -4.36934531552904       -2.72677698613582        1.30324251678379
H           -5.45418885589919       -1.93304480095988        2.45865633142807
H            4.98570316072313        2.74900609763795        0.78467574036455

          :  Hamiltonian                  GFN1-xTB          :
         :: total energy             -83.654902999547 Eh    ::
         :: gradient norm              0.000681542937 Eh/a0 ::
         :: HOMO-LUMO gap              0.964889731638 eV    ::
         :: SCC energy               -84.385349128746 Eh    ::
         :: -> Gsolv                  -0.260985516473 Eh    ::
         :: repulsion energy           0.755515157809 Eh    ::

    * Orbital Energies and Occupations

         #    Occupation            Energy/Eh            Energy/eV
      -------------------------------------------------------------
         1        2.0000           -0.8117014             -22.0875
       ...           ...                  ...                  ...
        56        2.0000           -0.4443983             -12.0927
        57        2.0000           -0.4410397             -12.0013
        58        2.0000           -0.4266807             -11.6106
        59        2.0000           -0.4266669             -11.6102
        60        2.0000           -0.4116343             -11.2011
        61        2.0000           -0.4080815             -11.1045
        62        2.0000           -0.3965845             -10.7916
        63        2.0000           -0.3876855             -10.5495
        64        2.0000           -0.3810311             -10.3684
        65        2.0000           -0.3641193              -9.9082
        66        2.0000           -0.3635173              -9.8918
        67        2.0000           -0.3621710              -9.8552
        68        2.0000           -0.3067074              -8.3459 (HOMO)
        69                         -0.2712484              -7.3810 (LUMO)
        70                         -0.2301834              -6.2636
        71                         -0.2180063              -5.9323
        72                         -0.1835231              -4.9939
        73                         -0.1271806              -3.4608
        74                         -0.1180535              -3.2124
        75                         -0.1011244              -2.7517
        76                         -0.0971222              -2.6428
        77                         -0.0949821              -2.5846
        78                         -0.0908507              -2.4722
        79                         -0.0875738              -2.3830
       ...                                ...                  ...
       134                          0.7423179              20.1995
      -------------------------------------------------------------
                  HL-Gap            0.0354590 Eh            0.9649 eV

Wiberg/Mayer (AO) data.
largest (>0.10) Wiberg bond orders for each atom

     #   Z sym  total        # sym  WBO       # sym  WBO       # sym  WBO
 ---------------------------------------------------------------------------
     1   6 C    3.891 --    28 H    0.987    27 H    0.980    26 H    0.980
                             2 O    0.916
     2   8 O    2.178 --     3 C    1.076     1 C    0.916     4 O    0.121
     3   6 C    3.834 --     4 O    1.629     2 O    1.076     5 C    1.032
     4   8 O    1.891 --     3 C    1.629     2 O    0.121
     5   6 C    3.964 --    24 C    1.471     6 N    1.209     3 C    1.032
     6   7 N    2.990 --     7 C    1.463     5 C    1.209
     7   6 C    3.952 --     6 N    1.463    21 N    1.359     8 C    0.969
     8   6 C    3.952 --     9 C    0.993    10 C    0.987     7 C    0.969
                            11 N    0.940
     9   6 C    3.995 --     8 C    0.993    31 H    0.986    29 H    0.986
                            30 H    0.984
    10   6 C    3.995 --    32 H    0.988     8 C    0.987    34 H    0.985
                            33 H    0.982
    11   7 N    3.198 --    12 C    1.089     8 C    0.940    35 H    0.920
                            13 O    0.107
    12   6 C    3.925 --    13 O    1.458    14 C    1.204    11 N    1.089
    13   8 O    1.798 --    12 C    1.458    11 N    0.107
    14   6 C    3.847 --    15 N    1.412    12 C    1.204    20 O    0.931
                            16 N    0.169
    15   7 N    3.048 --    16 N    1.441    14 C    1.412
    16   7 N    2.863 --    15 N    1.441    17 C    0.983    14 C    0.169
    17   6 C    3.902 --    16 N    0.983    18 C    0.977    19 C    0.977
                            20 O    0.929
    18   6 C    3.995 --    38 H    0.988    36 H    0.987    37 H    0.985
                            17 C    0.977
    19   6 C    3.994 --    41 H    0.988    39 H    0.987    40 H    0.986
                            17 C    0.977
    20   8 O    2.052 --    14 C    0.931    17 C    0.929
    21   7 N    2.983 --     7 C    1.359    22 C    1.262    23 O    0.125
    22   6 C    3.932 --    23 O    1.453    21 N    1.262    24 C    1.079
    23   8 O    1.792 --    22 C    1.453    21 N    0.125
    24   6 C    3.904 --     5 C    1.471    22 C    1.079    25 O    1.063
    25   8 O    2.040 --    24 C    1.063    42 H    0.817
    26   1 H    1.012 --     1 C    0.980
    27   1 H    1.011 --     1 C    0.980
    28   1 H    1.014 --     1 C    0.987
    29   1 H    1.016 --     9 C    0.986
    30   1 H    1.017 --     9 C    0.984
    31   1 H    1.017 --     9 C    0.986
    32   1 H    1.008 --    10 C    0.988
    33   1 H    1.025 --    10 C    0.982
    34   1 H    1.023 --    10 C    0.985
    35   1 H    0.991 --    11 N    0.920
    36   1 H    1.009 --    18 C    0.987
    37   1 H    1.016 --    18 C    0.985
    38   1 H    1.011 --    18 C    0.988
    39   1 H    1.009 --    19 C    0.987
    40   1 H    1.016 --    19 C    0.986
    41   1 H    1.011 --    19 C    0.988
    42   1 H    0.880 --    25 O    0.817
 ---------------------------------------------------------------------------

           -------------------------------------------------
          | TOTAL ENERGY              -83.654902999547 Eh   |
          | GRADIENT NORM               0.000681542937 Eh/α |
          | HOMO-LUMO GAP               0.964889731638 eV   |
           -------------------------------------------------

 * finished run on 2023/06/20 at 17:55:02.204
