   * xtb version 6.5.1 (579679a) compiled by 'ehlert@majestix' on 2022-07-11
          program call               : /lustre/hpc/kemi/ree/PhD/git/ReactivityQM/dep/xtb-6.5.1/bin/xtb --gfn 1 /lustre/hpc/kemi/ree/PhD/git/ReactivityQM/calculations/R02oxygendeprot/reac01prodE01/conf14/R02oxygendeprot_reac01prodE01_conf14_gfn1.xyz --opt --vfukui --chrg -2 --uhf 0 --alpb DMSO

   ID    Z sym.   atoms
    1    6 C      1, 3, 5, 7-10, 12, 13, 15, 18, 19, 22, 24
    2    8 O      2, 4, 14, 20, 23, 25
    3    7 N      6, 11, 16, 17, 21
    4    1 H      26-42

      * Solvation model:               ALPB
        Solvent                        DMSO
        Solvent mass                       7.8130E+01 g/mol
          :  Hamiltonian                  GFN1-xTB          :
 * total energy  :   -83.6240223 Eh     change       -0.1760725E-10 Eh
 * total energy  :   -83.6343019 Eh     change       -0.1027963E-01 Eh
 * total energy  :   -83.6381667 Eh     change       -0.3864805E-02 Eh
 * total energy  :   -83.6390000 Eh     change       -0.8333198E-03 Eh
 * total energy  :   -83.6395570 Eh     change       -0.5569985E-03 Eh
 * total energy  :   -83.6398233 Eh     change       -0.2662770E-03 Eh
 * total energy  :   -83.6400227 Eh     change       -0.1994229E-03 Eh
 * total energy  :   -83.6401357 Eh     change       -0.1129497E-03 Eh
 * total energy  :   -83.6401899 Eh     change       -0.5420278E-04 Eh
 * total energy  :   -83.6402274 Eh     change       -0.3753817E-04 Eh
 * total energy  :   -83.6403334 Eh     change       -0.1756473E-04 Eh
 * total energy  :   -83.6403534 Eh     change       -0.1995193E-04 Eh
 * total energy  :   -83.6403672 Eh     change       -0.1383881E-04 Eh
 * total energy  :   -83.6403812 Eh     change       -0.1393992E-04 Eh
 * total energy  :   -83.6403932 Eh     change       -0.1206228E-04 Eh
 * total energy  :   -83.6404017 Eh     change       -0.8515932E-05 Eh
 * total energy  :   -83.6404017 Eh     change        0.7559629E-07 Eh
 * total energy  :   -83.6404092 Eh     change       -0.7533399E-05 Eh
 * total energy  :   -83.6404139 Eh     change       -0.4725448E-05 Eh
   *** GEOMETRY OPTIMIZATION CONVERGED AFTER 22 ITERATIONS ***

 final structure:
================
42
 xtb: 6.5.1 (579679a)
C           -4.81794368548678        1.60705992346548       -2.03608846984473
O           -3.85115426229541        1.02491207767560       -1.17744118832886
C           -4.23155234928345        0.88939414514221        0.13560416653182
O           -5.34035498434464        1.26667561762598        0.48980878337318
C           -3.20304583563897        0.27917033529563        0.95441406534602
N           -2.03714279793603       -0.06032592245417        0.28591664467988
C           -1.06862839032505       -0.61845358679386        0.91385165849436
C            0.18672003673889       -1.08550219405182        0.18516476865193
C            0.34958703221311       -0.23799832624710       -1.08799642308586
C           -0.08708780361150       -2.55613947807805       -0.19605356970124
N            1.27600491650473       -0.97565343419776        1.15407314233796
C            2.76199071922096       -1.09567940360159        0.80188795428264
C            3.03866159671757       -2.41053382094991        0.00939343661701
O            3.48525211600151       -0.97451992424232        1.88132483711602
C            3.12214532545592        0.07874213810642       -0.17559362476167
N            3.93026808999770        0.02409686158874       -1.19245724135920
N            4.17471277033390        1.32806103216371       -1.58613166394103
C            3.50758748964320        2.07880465310626       -0.77602202017527
C            3.43723442289826        3.56091358023440       -0.77285556150136
O            2.82273523918470        1.36298563226714        0.13712816514198
N           -1.14965500945038       -0.91238109313528        2.25769799539722
C           -2.23130124473374       -0.63159982829021        3.04189113129861
O           -2.21804220289726       -0.92268620619591        4.23961088454792
C           -3.39651591874238        0.02810653033550        2.33843254601852
O           -4.42014714967007        0.29744605000516        2.99835216301610
H           -5.06294565065540        2.62556863961530       -1.71659793904698
H           -5.73806158392773        1.01305711719463       -2.04834332561405
H           -4.38625112362866        1.63197635734643       -3.03609600912903
H            1.19407339968268       -0.58241910031895       -1.68203179489839
H            0.49735741431043        0.80904916783969       -0.82735828556767
H           -0.55789767423000       -0.32018811488349       -1.68673420004406
H           -1.09404690859930       -2.64348308942315       -0.60572631878307
H            0.61108413861223       -2.91606740585474       -0.94778325650887
H           -0.01369986822670       -3.18622660141395        0.68966433329321
H            1.21690641857783       -0.05710661879688        1.59347554667875
H            2.63129446948281       -3.25788758477515        0.55647717214216
H            4.12077670611913       -2.52457879432291       -0.05290015921166
H            2.63664202986239       -2.38601061592723       -1.00112131793174
H            4.10667042572814        3.95656713569110       -1.53241330698661
H            3.72655079202325        3.95083373201229        0.20269500823942
H            2.42062397699025        3.89365610574567       -0.98269007202641
H           -0.34940608260618       -1.35163368850303        2.69512934523360

          :  Hamiltonian                  GFN1-xTB          :
         :: total energy             -83.640413913796 Eh    ::
         :: gradient norm              0.000386232517 Eh/a0 ::
         :: HOMO-LUMO gap              2.116864387131 eV    ::
         :: SCC energy               -84.373669637592 Eh    ::
         :: -> Gsolv                  -0.262526449219 Eh    ::
         :: repulsion energy           0.760328732785 Eh    ::

    * Orbital Energies and Occupations

         #    Occupation            Energy/Eh            Energy/eV
      -------------------------------------------------------------
         1        2.0000           -0.8133549             -22.1325
       ...           ...                  ...                  ...
        56        2.0000           -0.4414579             -12.0127
        57        2.0000           -0.4379222             -11.9165
        58        2.0000           -0.4320450             -11.7565
        59        2.0000           -0.4270964             -11.6219
        60        2.0000           -0.4236209             -11.5273
        61        2.0000           -0.4104227             -11.1682
        62        2.0000           -0.4046952             -11.0123
        63        2.0000           -0.3997963             -10.8790
        64        2.0000           -0.3673503              -9.9961
        65        2.0000           -0.3625505              -9.8655
        66        2.0000           -0.3522011              -9.5839
        67        2.0000           -0.3417812              -9.3003
        68        2.0000           -0.3364453              -9.1551 (HOMO)
        69                         -0.2586519              -7.0383 (LUMO)
        70                         -0.2218182              -6.0360
        71                         -0.2202696              -5.9938
        72                         -0.2067278              -5.6254
        73                         -0.1850141              -5.0345
        74                         -0.1269323              -3.4540
        75                         -0.1179138              -3.2086
        76                         -0.1066986              -2.9034
        77                         -0.0957874              -2.6065
        78                         -0.0923093              -2.5119
        79                         -0.0819547              -2.2301
       ...                                ...                  ...
       134                          0.7708207              20.9751
      -------------------------------------------------------------
                  HL-Gap            0.0777933 Eh            2.1169 eV

Wiberg/Mayer (AO) data.
largest (>0.10) Wiberg bond orders for each atom

     #   Z sym  total        # sym  WBO       # sym  WBO       # sym  WBO
 ---------------------------------------------------------------------------
     1   6 C    3.904 --    28 H    0.987    26 H    0.980    27 H    0.980
                             2 O    0.932
     2   8 O    2.132 --     3 C    1.015     1 C    0.932     4 O    0.106
     3   6 C    3.848 --     4 O    1.582     5 C    1.132     2 O    1.015
     4   8 O    1.860 --     3 C    1.582     2 O    0.106
     5   6 C    3.918 --    24 C    1.273     6 N    1.144     3 C    1.132
                            25 O    0.130
     6   7 N    3.023 --     7 C    1.632     5 C    1.144
     7   6 C    3.927 --     6 N    1.632    21 N    1.101     8 C    0.972
     8   6 C    3.972 --     9 C    0.986    11 N    0.981    10 C    0.978
                             7 C    0.972
     9   6 C    3.996 --     8 C    0.986    30 H    0.985    31 H    0.983
                            29 H    0.982
    10   6 C    3.994 --    32 H    0.986    34 H    0.986    33 H    0.980
                             8 C    0.978
    11   7 N    2.997 --     8 C    0.981    35 H    0.942    12 C    0.855
    12   6 C    3.935 --    14 O    1.203    13 C    0.946    15 C    0.873
                            11 N    0.855
    13   6 C    3.991 --    36 H    0.986    37 H    0.985    38 H    0.983
                            12 C    0.946
    14   8 O    1.508 --    12 C    1.203
    15   6 C    3.797 --    16 N    1.632    20 O    1.044    12 C    0.873
    16   7 N    2.961 --    15 C    1.632    17 N    1.146
    17   7 N    2.975 --    18 C    1.657    16 N    1.146
    18   6 C    3.889 --    17 N    1.657    20 O    1.064    19 C    1.023
    19   6 C    3.993 --    18 C    1.023    39 H    0.985    40 H    0.972
                            41 H    0.969
    20   8 O    2.300 --    18 C    1.064    15 C    1.044
    21   7 N    3.441 --    22 C    1.179     7 C    1.101    42 H    0.890
                            23 O    0.136
    22   6 C    3.883 --    23 O    1.559    21 N    1.179    24 C    0.971
    23   8 O    1.838 --    22 C    1.559    21 N    0.136
    24   6 C    3.943 --    25 O    1.510     5 C    1.273    22 C    0.971
    25   8 O    1.813 --    24 C    1.510     5 C    0.130
    26   1 H    1.015 --     1 C    0.980
    27   1 H    1.015 --     1 C    0.980
    28   1 H    1.017 --     1 C    0.987
    29   1 H    1.014 --     9 C    0.982
    30   1 H    1.014 --     9 C    0.985
    31   1 H    1.020 --     9 C    0.983
    32   1 H    1.010 --    10 C    0.986
    33   1 H    1.011 --    10 C    0.980
    34   1 H    1.013 --    10 C    0.986
    35   1 H    0.985 --    11 N    0.942
    36   1 H    1.015 --    13 C    0.986
    37   1 H    1.025 --    13 C    0.985
    38   1 H    1.014 --    13 C    0.983
    39   1 H    1.003 --    19 C    0.985
    40   1 H    1.002 --    19 C    0.972
    41   1 H    1.002 --    19 C    0.969
    42   1 H    0.963 --    21 N    0.890
 ---------------------------------------------------------------------------

           -------------------------------------------------
          | TOTAL ENERGY              -83.640413913796 Eh   |
          | GRADIENT NORM               0.000386232517 Eh/α |
          | HOMO-LUMO GAP               2.116864387131 eV   |
           -------------------------------------------------

 * finished run on 2023/06/21 at 17:00:47.606
