   * xtb version 6.5.1 (579679a) compiled by 'ehlert@majestix' on 2022-07-11
          program call               : /lustre/hpc/kemi/ree/PhD/git/ReactivityQM/dep/xtb-6.5.1/bin/xtb --gfn 1 /lustre/hpc/kemi/ree/PhD/git/ReactivityQM/calculations/R02/reac01prodN18/conf10/R02_reac01prodN18_conf10_gfn1.xyz --opt --vfukui --chrg 1 --uhf 0 --alpb DMSO

   ID    Z sym.   atoms
    1    6 C      1, 3, 5, 6, 8, 11-15, 17, 19, 22, 23
    2    8 O      2, 4, 7, 9, 18, 24
    3    7 N      10, 16, 20, 21, 25
    4    1 H      26-43

      * Solvation model:               ALPB
        Solvent                        DMSO
        Solvent mass                       7.8130E+01 g/mol
          :  Hamiltonian                  GFN1-xTB          :
 * total energy  :   -83.0992029 Eh     change       -0.4388312E-10 Eh
 * total energy  :   -83.1159918 Eh     change       -0.1678895E-01 Eh
 * total energy  :   -83.1238627 Eh     change       -0.7870848E-02 Eh
 * total energy  :   -83.1258227 Eh     change       -0.1960027E-02 Eh
 * total energy  :   -83.1269457 Eh     change       -0.1122996E-02 Eh
 * total energy  :   -83.1275743 Eh     change       -0.6286179E-03 Eh
 * total energy  :   -83.1280990 Eh     change       -0.5247192E-03 Eh
 * total energy  :   -83.1285473 Eh     change       -0.4483144E-03 Eh
 * total energy  :   -83.1289347 Eh     change       -0.3873294E-03 Eh
 * total energy  :   -83.1291987 Eh     change       -0.2640176E-03 Eh
 * total energy  :   -83.1528496 Eh     change       -0.1724300E-04 Eh
 * total energy  :   -83.1528669 Eh     change       -0.1727135E-04 Eh
 * total energy  :   -83.1528837 Eh     change       -0.1685096E-04 Eh
 * total energy  :   -83.1528992 Eh     change       -0.1551284E-04 Eh
 * total energy  :   -83.1529127 Eh     change       -0.1343433E-04 Eh
 * total energy  :   -83.1529246 Eh     change       -0.1192162E-04 Eh
 * total energy  :   -83.1529356 Eh     change       -0.1103937E-04 Eh
 * total energy  :   -83.1529465 Eh     change       -0.1086010E-04 Eh
 * total energy  :   -83.1529514 Eh     change       -0.4904275E-05 Eh
   *** GEOMETRY OPTIMIZATION CONVERGED AFTER 122 ITERATIONS ***

 final structure:
================
43
 xtb: 6.5.1 (579679a)
C           -6.27144068007275        0.50247925971055       -1.75935073864688
O           -5.08321809933522        0.86498582090115       -1.04587897913619
C           -4.07080438383344        0.00795172068399       -1.10329723735302
O           -4.10390544887547       -1.03026147812322       -1.72161261781518
C           -2.88525040792688        0.44745988899792       -0.30523873390119
C           -2.71255505181646        1.65637239751792        0.30807175740869
O           -3.58255341188584        2.66469166889494        0.26058850795591
C           -1.49492095801790        1.91940404711926        1.06693809716949
O           -1.28371301464050        2.99807660071601        1.60241145568837
N           -0.59784397799387        0.86367097155481        1.15505202043315
C            0.60496061392777        1.17060335782152        1.92991600115130
C           -0.83824786656551       -0.31529042334723        0.49551569376351
C            0.08417134407236       -1.52006343782315        0.60625244686421
C           -0.05840258683173       -2.17934881422069        1.98229176373055
C           -0.24903257260829       -2.54576893327757       -0.48634461513344
N            1.49558429799578       -1.13112695034180        0.42406864143017
C            1.98625744446084       -0.40983370763893       -0.55210316562119
O            1.27920505084282        0.15677457880859       -1.48201518060305
C            3.40973666178484       -0.21526806045363       -0.57172888132503
N            4.25589348415859       -0.71971058825738        0.28914374416513
N            5.47435917427838       -0.29522459682519       -0.07182383780509
C            5.32028992421705        0.45261979450950       -1.13775656212241
C            6.36844183269234        1.14965093205230       -1.90570490349500
O            4.03660006245591        0.53413645120984       -1.49464471014565
N           -1.90725858854285       -0.50680142679695       -0.20285349832123
H           -7.00430731109720        1.28140568706905       -1.55812918026513
H           -6.63710845379988       -0.46505922717643       -1.40729817262751
H           -6.06090026878228        0.44321473177486       -2.82958153041063
H           -3.21535815093681        3.42388599180929        0.75210780574184
H            0.31791016831912       -0.00202018112886       -1.44483646488808
H            0.30683893860474        1.78629968964039        2.77863918656772
H            1.29678533750266        1.73152335114360        1.30192281193841
H            1.07742571498950        0.26256197683200        2.28012596198070
H            0.20663649255709       -1.49576903562040        2.78491082140886
H           -1.09312765397055       -2.49209010018121        2.11643744908230
H            0.58507299050077       -3.05571227642928        2.03686723346117
H           -1.26946752111046       -2.89928174990719       -0.34742314008517
H           -0.16690858559406       -2.09706784137230       -1.47409093468426
H            0.44002601461599       -3.38489338364989       -0.41638290303231
H            2.16884154818597       -1.53713484588519        1.06367488450086
H            6.38388228858252        0.77712057518022       -2.93074719576124
H            6.15016658299157        2.21733442991881       -1.94225226314588
H            7.33723802650518        0.98550613458499       -1.43968983811421

          :  Hamiltonian                  GFN1-xTB          :
         :: total energy             -83.152951386162 Eh    ::
         :: gradient norm              0.000207276157 Eh/a0 ::
         :: HOMO-LUMO gap              1.678608458259 eV    ::
         :: SCC energy               -83.947631741218 Eh    ::
         :: -> Gsolv                  -0.117341900850 Eh    ::
         :: repulsion energy           0.822322834196 Eh    ::

    * Orbital Energies and Occupations

         #    Occupation            Energy/Eh            Energy/eV
      -------------------------------------------------------------
         1        2.0000           -0.9043584             -24.6088
       ...           ...                  ...                  ...
        55        2.0000           -0.5380766             -14.6418
        56        2.0000           -0.5281676             -14.3722
        57        2.0000           -0.5208911             -14.1742
        58        2.0000           -0.5197668             -14.1436
        59        2.0000           -0.5182150             -14.1013
        60        2.0000           -0.5014414             -13.6449
        61        2.0000           -0.4949535             -13.4684
        62        2.0000           -0.4919588             -13.3869
        63        2.0000           -0.4910932             -13.3633
        64        2.0000           -0.4895137             -13.3203
        65        2.0000           -0.4751675             -12.9300
        66        2.0000           -0.4637691             -12.6198
        67        2.0000           -0.4449307             -12.1072 (HOMO)
        68                         -0.3832430             -10.4286 (LUMO)
        69                         -0.3358780              -9.1397
        70                         -0.3046562              -8.2901
        71                         -0.2920075              -7.9459
        72                         -0.2600177              -7.0754
        73                         -0.2513956              -6.8408
        74                         -0.1727002              -4.6994
        75                         -0.1681775              -4.5763
        76                         -0.1585414              -4.3141
        77                         -0.1568282              -4.2675
        78                         -0.1488366              -4.0500
       ...                                ...                  ...
       136                          0.7270101              19.7830
      -------------------------------------------------------------
                  HL-Gap            0.0616877 Eh            1.6786 eV

Wiberg/Mayer (AO) data.
largest (>0.10) Wiberg bond orders for each atom

     #   Z sym  total        # sym  WBO       # sym  WBO       # sym  WBO
 ---------------------------------------------------------------------------
     1   6 C    3.867 --    26 H    0.986    27 H    0.979    28 H    0.979
                             2 O    0.892
     2   8 O    2.210 --     3 C    1.125     1 C    0.892     4 O    0.138
     3   6 C    3.855 --     4 O    1.662     2 O    1.125     5 C    0.991
     4   8 O    1.924 --     3 C    1.662     2 O    0.138
     5   6 C    3.958 --     6 C    1.496    25 N    1.179     3 C    0.991
     6   6 C    3.922 --     5 C    1.496     7 O    1.121     8 C    1.067
     7   8 O    2.098 --     6 C    1.121    29 H    0.800
     8   6 C    3.911 --     9 O    1.577    10 N    1.118     6 C    1.067
     9   8 O    1.917 --     8 C    1.577    10 N    0.135
    10   7 N    3.502 --    12 C    1.164     8 C    1.118    11 C    0.926
                             9 O    0.135
    11   6 C    3.916 --    33 H    0.979    32 H    0.974    31 H    0.972
                            10 N    0.926
    12   6 C    3.940 --    25 N    1.574    10 N    1.164    13 C    0.972
    13   6 C    3.898 --    14 C    0.985    15 C    0.982    12 C    0.972
                            16 N    0.889
    14   6 C    3.981 --    13 C    0.985    36 H    0.979    35 H    0.979
                            34 H    0.977
    15   6 C    3.979 --    39 H    0.983    13 C    0.982    38 H    0.980
                            37 H    0.977
    16   7 N    3.470 --    17 C    1.451    13 C    0.889    40 H    0.868
                            18 O    0.116
    17   6 C    3.892 --    16 N    1.451    18 O    1.205    19 C    1.099
    18   8 O    2.180 --    17 C    1.205    30 H    0.787    16 N    0.116
    19   6 C    3.891 --    20 N    1.525    17 C    1.099    24 O    1.060
    20   7 N    3.032 --    19 C    1.525    21 N    1.276
    21   7 N    2.989 --    22 C    1.525    20 N    1.276
    22   6 C    3.850 --    21 N    1.525    24 O    1.104    23 C    1.041
    23   6 C    3.977 --    22 C    1.041    43 H    0.980    42 H    0.954
                            41 H    0.952
    24   8 O    2.349 --    22 C    1.104    19 C    1.060
    25   7 N    3.036 --    12 C    1.574     5 C    1.179
    26   1 H    1.010 --     1 C    0.986
    27   1 H    1.006 --     1 C    0.979
    28   1 H    1.006 --     1 C    0.979
    29   1 H    0.841 --     7 O    0.800
    30   1 H    0.834 --    18 O    0.787
    31   1 H    1.001 --    11 C    0.972
    32   1 H    0.999 --    11 C    0.974
    33   1 H    1.003 --    11 C    0.979
    34   1 H    0.997 --    14 C    0.977
    35   1 H    0.996 --    14 C    0.979
    36   1 H    0.993 --    14 C    0.979
    37   1 H    1.006 --    15 C    0.977
    38   1 H    1.001 --    15 C    0.980
    39   1 H    0.996 --    15 C    0.983
    40   1 H    0.923 --    16 N    0.868
    41   1 H    0.990 --    23 C    0.952
    42   1 H    0.991 --    23 C    0.954
    43   1 H    0.994 --    23 C    0.980
 ---------------------------------------------------------------------------

           -------------------------------------------------
          | TOTAL ENERGY              -83.152951386162 Eh   |
          | GRADIENT NORM               0.000207276157 Eh/α |
          | HOMO-LUMO GAP               1.678608458259 eV   |
           -------------------------------------------------

 * finished run on 2023/06/20 at 15:46:01.728
