   * xtb version 6.5.1 (579679a) compiled by 'ehlert@majestix' on 2022-07-11
          program call               : /lustre/hpc/kemi/ree/PhD/git/ReactivityQM/dep/xtb-6.5.1/bin/xtb --gfn 1 /lustre/hpc/kemi/ree/PhD/git/ReactivityQM/calculations/R02oxygendeprot/reac01prodE13/conf10/R02oxygendeprot_reac01prodE13_conf10_gfn1.xyz --opt --vfukui --chrg -2 --uhf 0 --alpb DMSO

   ID    Z sym.   atoms
    1    6 C      1, 3, 5, 6, 8, 10, 12-15, 17, 19, 22, 23
    2    8 O      2, 4, 7, 9, 18, 24
    3    7 N      11, 16, 20, 21, 25
    4    1 H      26-42

      * Solvation model:               ALPB
        Solvent                        DMSO
        Solvent mass                       7.8130E+01 g/mol
          :  Hamiltonian                  GFN1-xTB          :
 * total energy  :   -83.5711139 Eh     change       -0.1362821E-10 Eh
 * total energy  :   -83.5846386 Eh     change       -0.1352477E-01 Eh
 * total energy  :   -83.5897591 Eh     change       -0.5120455E-02 Eh
 * total energy  :   -83.5908395 Eh     change       -0.1080366E-02 Eh
 * total energy  :   -83.5915426 Eh     change       -0.7031590E-03 Eh
 * total energy  :   -83.5918183 Eh     change       -0.2757255E-03 Eh
 * total energy  :   -83.5920088 Eh     change       -0.1905071E-03 Eh
 * total energy  :   -83.5921460 Eh     change       -0.1371688E-03 Eh
 * total energy  :   -83.5922291 Eh     change       -0.8310063E-04 Eh
 * total energy  :   -83.5922798 Eh     change       -0.5064716E-04 Eh
 * total energy  :   -83.5927672 Eh     change       -0.1085346E-04 Eh
 * total energy  :   -83.5927769 Eh     change       -0.9750272E-05 Eh
 * total energy  :   -83.5927878 Eh     change       -0.1085290E-04 Eh
 * total energy  :   -83.5927984 Eh     change       -0.1058136E-04 Eh
 * total energy  :   -83.5928075 Eh     change       -0.9164325E-05 Eh
 * total energy  :   -83.5927878 Eh     change        0.1971758E-04 Eh
 * total energy  :   -83.5928164 Eh     change       -0.2859772E-04 Eh
 * total energy  :   -83.5928215 Eh     change       -0.5109735E-05 Eh
 * total energy  :   -83.5928258 Eh     change       -0.4260469E-05 Eh
   *** GEOMETRY OPTIMIZATION CONVERGED AFTER 34 ITERATIONS ***

 final structure:
================
42
 xtb: 6.5.1 (579679a)
C           -5.59728427673555        1.89929792584739       -2.41623220431111
O           -4.60663641633490        1.75040292146558       -1.42405615879095
C           -3.60796778664150        0.81665971513351       -1.72106182993058
O           -3.67265382462248        0.21110462152799       -2.81362804475104
C           -2.61523373243389        0.64994541419028       -0.73061141803255
C           -2.54047033157097        1.37521485965302        0.55434801797419
O           -3.37346385921499        2.26888334966384        0.90499496475773
C           -1.46041336463177        0.99704586443610        1.36203999415843
O           -1.13410500361042        1.54522718120639        2.60121961109655
C           -2.17372501562689        1.58285047938638        3.56856681053075
N           -0.56613102961586       -0.01154483055621        0.97489510930134
C           -0.67472522200945       -0.57593264442657       -0.27055928547316
C            0.34430526506923       -1.64529636512796       -0.62915884112324
C           -0.05245532983865       -2.93754012443450        0.10610186088324
C            0.34757354833364       -1.86446987056680       -2.14917536468092
N            1.65368666303133       -1.18409912834694       -0.15594971764486
C            2.81445260697283       -1.92083111791001       -0.42557163832749
O            2.79554427996360       -3.13227780000864       -0.74293512235477
C            4.02028002583770       -1.17899332624634       -0.24302014099966
N            5.27798569644583       -1.60825527573294       -0.40117036642144
N            6.08799756790482       -0.53776164977502       -0.14126119184446
C            5.32833867639747        0.46579902174832        0.15253586446612
C            5.76030238400833        1.83880642143047        0.51462322796196
O            4.00643023413965        0.16044045644167        0.11428658327748
N           -1.63637253129274       -0.29313616341970       -1.07284256814522
H           -6.29395109137654        2.66539608197389       -2.07099569076080
H           -6.14717969843473        0.96317959055100       -2.58032594458693
H           -5.16426543545573        2.21422220701257       -3.37475482564786
H           -1.72440198850163        1.92418571027497        4.50338896742777
H           -2.61152777834656        0.58833484609653        3.72516086787088
H           -2.96853044993266        2.28037414614034        3.27502389096030
H            0.23076124006630       -0.19212137648627        1.56058445806856
H           -1.07049668354978       -3.21432180881684       -0.16843595456029
H           -0.01004217790381       -2.77551777472783        1.18281919706547
H            0.61592435483550       -3.75670078549994       -0.15365258790492
H           -0.66473711021479       -2.09477925911883       -2.48243207683266
H            1.00815224420530       -2.68766362668801       -2.41681877522225
H            0.68216400312046       -0.95889803431541       -2.65503552482935
H            1.78836109299887       -0.18358450017647       -0.22390562354749
H            5.45439150378391        2.07863640102559        1.53352620819736
H            6.84294610355167        1.90728365179581        0.44211017593840
H            5.30717364723232        2.57043259537732       -0.15437691321145

          :  Hamiltonian                  GFN1-xTB          :
         :: total energy             -83.592825792637 Eh    ::
         :: gradient norm              0.000378965777 Eh/a0 ::
         :: HOMO-LUMO gap              0.034616396931 eV    ::
         :: SCC energy               -84.318015644977 Eh    ::
         :: -> Gsolv                  -0.267976167115 Eh    ::
         :: repulsion energy           0.749961443863 Eh    ::

    * Orbital Energies and Occupations

         #    Occupation            Energy/Eh            Energy/eV
      -------------------------------------------------------------
         1        2.0000           -0.8009927             -21.7961
       ...           ...                  ...                  ...
        56        2.0000           -0.4359046             -11.8616
        57        2.0000           -0.4271291             -11.6228
        58        2.0000           -0.4265101             -11.6059
        59        2.0000           -0.4069705             -11.0742
        60        2.0000           -0.4060365             -11.0488
        61        2.0000           -0.4022919             -10.9469
        62        2.0000           -0.3962204             -10.7817
        63        2.0000           -0.3913398             -10.6489
        64        2.0000           -0.3888960             -10.5824
        65        2.0000           -0.3824659             -10.4074
        66        2.0000           -0.3424338              -9.3181
        67        2.0000           -0.3358088              -9.1378
        68        1.3228           -0.2671873              -7.2705 (HOMO)
        69        0.6772           -0.2659152              -7.2359 (LUMO)
        70                         -0.2089972              -5.6871
        71                         -0.2000165              -5.4427
        72                         -0.1636753              -4.4538
        73                         -0.1392446              -3.7890
        74                         -0.1233881              -3.3576
        75                         -0.1054079              -2.8683
        76                         -0.1045909              -2.8461
        77                         -0.0960873              -2.6147
        78                         -0.0908109              -2.4711
        79                         -0.0725186              -1.9733
       ...                                ...                  ...
       134                          0.7113597              19.3571
      -------------------------------------------------------------
                  HL-Gap            0.0012721 Eh            0.0346 eV

Wiberg/Mayer (AO) data.
largest (>0.10) Wiberg bond orders for each atom

     #   Z sym  total        # sym  WBO       # sym  WBO       # sym  WBO
 ---------------------------------------------------------------------------
     1   6 C    3.922 --    26 H    0.987    27 H    0.980    28 H    0.980
                             2 O    0.954
     2   8 O    2.072 --     1 C    0.954     3 C    0.951
     3   6 C    3.780 --     4 O    1.446     5 C    1.285     2 O    0.951
     4   8 O    1.697 --     3 C    1.446
     5   6 C    3.753 --     3 C    1.285    25 N    1.110     6 C    1.079
     6   6 C    3.920 --     7 O    1.387     8 C    1.329     5 C    1.079
     7   8 O    1.685 --     6 C    1.387     8 C    0.114
     8   6 C    3.529 --     6 C    1.329    11 N    1.027     9 O    0.952
                             7 O    0.114
     9   8 O    2.014 --     8 C    0.952    10 C    0.934
    10   6 C    3.908 --    29 H    0.986    30 H    0.983    31 H    0.978
                             9 O    0.934
    11   7 N    3.249 --    12 C    1.125     8 C    1.027    32 H    0.907
                            25 N    0.102
    12   6 C    3.927 --    25 N    1.614    11 N    1.125    13 C    0.974
    13   6 C    3.950 --    15 C    0.991    14 C    0.984    12 C    0.974
                            16 N    0.941
    14   6 C    3.991 --    33 H    0.988    34 H    0.987    13 C    0.984
                            35 H    0.980
    15   6 C    3.993 --    13 C    0.991    38 H    0.987    37 H    0.985
                            36 H    0.984
    16   7 N    3.147 --    17 C    1.084    13 C    0.941    39 H    0.919
                            18 O    0.108
    17   6 C    3.749 --    18 O    1.436    19 C    1.160    16 N    1.084
    18   8 O    1.681 --    17 C    1.436    16 N    0.108
    19   6 C    3.691 --    20 N    1.395    17 C    1.160    24 O    0.966
    20   7 N    2.720 --    19 C    1.395    21 N    1.189
    21   7 N    2.981 --    22 C    1.628    20 N    1.189
    22   6 C    3.811 --    21 N    1.628    24 O    1.040    23 C    1.024
    23   6 C    3.994 --    22 C    1.024    41 H    0.986    42 H    0.972
                            40 H    0.970
    24   8 O    2.176 --    22 C    1.040    19 C    0.966
    25   7 N    2.956 --    12 C    1.614     5 C    1.110    11 N    0.102
    26   1 H    1.021 --     1 C    0.987
    27   1 H    1.021 --     1 C    0.980
    28   1 H    1.022 --     1 C    0.980
    29   1 H    1.020 --    10 C    0.986
    30   1 H    1.013 --    10 C    0.983
    31   1 H    1.039 --    10 C    0.978
    32   1 H    0.960 --    11 N    0.907
    33   1 H    1.009 --    14 C    0.988
    34   1 H    1.010 --    14 C    0.987
    35   1 H    1.023 --    14 C    0.980
    36   1 H    1.023 --    15 C    0.984
    37   1 H    1.016 --    15 C    0.985
    38   1 H    1.010 --    15 C    0.987
    39   1 H    0.965 --    16 N    0.919
    40   1 H    1.000 --    23 C    0.970
    41   1 H    1.005 --    23 C    0.986
    42   1 H    1.001 --    23 C    0.972
 ---------------------------------------------------------------------------

           -------------------------------------------------
          | TOTAL ENERGY              -83.592825792637 Eh   |
          | GRADIENT NORM               0.000378965777 Eh/α |
          | HOMO-LUMO GAP               0.034616396931 eV   |
           -------------------------------------------------

 * finished run on 2023/06/21 at 17:14:46.370
