   * xtb version 6.5.1 (579679a) compiled by 'ehlert@majestix' on 2022-07-11
          program call               : /lustre/hpc/kemi/ree/PhD/git/ReactivityQM/dep/xtb-6.5.1/bin/xtb --gfn 1 /lustre/hpc/kemi/ree/PhD/git/ReactivityQM/calculations/R01/reac02prodE08/conf05/R01_reac02prodE08_conf05_gfn1.xyz --opt --vfukui --chrg -1 --uhf 0 --alpb DMSO

   ID    Z sym.   atoms
    1    6 C      1, 3, 5, 7-10, 13, 15, 16
    2    8 O      2, 4, 14, 17
    3    7 N      6, 11, 12
    4    1 H      18-33

      * Solvation model:               ALPB
        Solvent                        DMSO
        Solvent mass                       7.8130E+01 g/mol
          :  Hamiltonian                  GFN1-xTB          :
 * total energy  :   -58.5567181 Eh     change       -0.7581491E-11 Eh
 * total energy  :   -58.5663422 Eh     change       -0.9624125E-02 Eh
 * total energy  :   -58.5690962 Eh     change       -0.2754028E-02 Eh
 * total energy  :   -58.5693664 Eh     change       -0.2701325E-03 Eh
 * total energy  :   -58.5695485 Eh     change       -0.1821105E-03 Eh
 * total energy  :   -58.5696005 Eh     change       -0.5200894E-04 Eh
 * total energy  :   -58.5696585 Eh     change       -0.5797024E-04 Eh
 * total energy  :   -58.5696910 Eh     change       -0.3257599E-04 Eh
 * total energy  :   -58.5697108 Eh     change       -0.1981293E-04 Eh
 * total energy  :   -58.5697296 Eh     change       -0.1873796E-04 Eh
 * total energy  :   -58.5700149 Eh     change       -0.4801585E-04 Eh
 * total energy  :   -58.5700327 Eh     change       -0.1784798E-04 Eh
 * total energy  :   -58.5700475 Eh     change       -0.1481791E-04 Eh
 * total energy  :   -58.5700748 Eh     change       -0.2725155E-04 Eh
 * total energy  :   -58.5700923 Eh     change       -0.1750127E-04 Eh
 * total energy  :   -58.5701026 Eh     change       -0.1029866E-04 Eh
 * total energy  :   -58.5701105 Eh     change       -0.7899219E-05 Eh
 * total energy  :   -58.5701167 Eh     change       -0.6258061E-05 Eh
 * total energy  :   -58.5701217 Eh     change       -0.4964390E-05 Eh
   *** GEOMETRY OPTIMIZATION CONVERGED AFTER 28 ITERATIONS ***

 final structure:
================
33
 xtb: 6.5.1 (579679a)
C            3.39476201323153        2.74940711907939        0.15530389168363
O            2.20493666444477        1.98529822480594        0.10002119227029
C            2.39275238737859        0.60394875162952        0.10533187061975
O            3.55764887293118        0.15083952785382        0.16980098900099
C            1.22037676812617       -0.15350127450387        0.04360850755252
N            0.00069964117743        0.46804751050455       -0.00292832579310
C           -1.09284284041594       -0.19797792358866       -0.01578591412453
C           -2.44480460559256        0.48703767032610       -0.05931347706154
C           -2.25016751190957        1.96288794719297       -0.42702139935955
C           -3.14240715942626        0.37035418471910        1.30454764194093
N           -3.32127691639493       -0.12335038068186       -1.06538467367307
N           -1.10024341553449       -1.60823499314727        0.07860879180331
C            0.00576822525497       -2.37416723749156        0.20458134496231
O           -0.08845251335794       -3.58131067921846        0.41583167925886
C            1.35541021384997       -1.66903099223011       -0.00871022225259
C            1.87698150009218       -2.13061417459671       -1.39256969183517
O            2.24759518057250       -2.14364124151621        0.99786520084102
H            4.04262410241086        2.53749137315303       -0.70390080304532
H            3.95719348278842        2.54331521860234        1.07398192193955
H            3.10458060384252        3.80113987087198        0.13737102023459
H           -3.21651235794897        2.46383126906965       -0.47156079525201
H           -1.76554029849621        2.04430906341354       -1.40023194690858
H           -1.62231278742327        2.45619248332635        0.31543051319083
H           -4.12515208302369        0.83929056552798        1.26186620255368
H           -3.26956005223684       -0.67725340701902        1.57601412835621
H           -2.54749892854610        0.86135262330697        2.07470363203046
H           -2.82083897540952       -0.24174082901579       -1.93690921272417
H           -3.63098108754585       -1.03349416394178       -0.75614802009159
H           -1.98777241517372       -2.07762500886327        0.14183589791436
H            1.95695754085379       -3.21723817382151       -1.41288008806940
H            2.85947900542678       -1.69629355132232       -1.57091103631876
H            1.19334966863449       -1.80298002361950       -2.17368378343769
H            3.05524707741934       -1.59628934880391        0.92753696379393

          :  Hamiltonian                  GFN1-xTB          :
         :: total energy             -58.570121706170 Eh    ::
         :: gradient norm              0.000601492577 Eh/a0 ::
         :: HOMO-LUMO gap              2.297862788466 eV    ::
         :: SCC energy               -59.111988697403 Eh    ::
         :: -> Gsolv                  -0.102821629328 Eh    ::
         :: repulsion energy           0.560866734051 Eh    ::

    * Orbital Energies and Occupations

         #    Occupation            Energy/Eh            Energy/eV
      -------------------------------------------------------------
         1        2.0000           -0.7806629             -21.2429
       ...           ...                  ...                  ...
        36        2.0000           -0.4791587             -13.0386
        37        2.0000           -0.4751007             -12.9281
        38        2.0000           -0.4699384             -12.7877
        39        2.0000           -0.4664562             -12.6929
        40        2.0000           -0.4587060             -12.4820
        41        2.0000           -0.4417104             -12.0196
        42        2.0000           -0.4369546             -11.8901
        43        2.0000           -0.4226507             -11.5009
        44        2.0000           -0.4186816             -11.3929
        45        2.0000           -0.4049634             -11.0196
        46        2.0000           -0.3922655             -10.6741
        47        2.0000           -0.3791323             -10.3167
        48        2.0000           -0.3248251              -8.8389 (HOMO)
        49                         -0.2403802              -6.5411 (LUMO)
        50                         -0.1951129              -5.3093
        51                         -0.1381738              -3.7599
        52                         -0.1149136              -3.1270
        53                         -0.1115715              -3.0360
        54                         -0.1100005              -2.9933
        55                         -0.0962709              -2.6197
        56                         -0.0923300              -2.5124
        57                         -0.0641807              -1.7464
        58                         -0.0624732              -1.7000
        59                         -0.0501436              -1.3645
       ...                                ...                  ...
       100                          0.6796197              18.4934
      -------------------------------------------------------------
                  HL-Gap            0.0844449 Eh            2.2979 eV

Wiberg/Mayer (AO) data.
largest (>0.10) Wiberg bond orders for each atom

     #   Z sym  total        # sym  WBO       # sym  WBO       # sym  WBO
 ---------------------------------------------------------------------------
     1   6 C    3.913 --    20 H    0.987    18 H    0.981    19 H    0.981
                             2 O    0.943
     2   8 O    2.084 --     3 C    0.961     1 C    0.943
     3   6 C    3.867 --     4 O    1.428     5 C    1.341     2 O    0.961
     4   8 O    1.801 --     3 C    1.428     5 C    0.113
     5   6 C    3.860 --     3 C    1.341     6 N    1.188    15 C    0.967
                             4 O    0.113
     6   7 N    3.050 --     7 C    1.634     5 C    1.188
     7   6 C    3.907 --     6 N    1.634    12 N    0.993     8 C    0.975
     8   6 C    3.966 --     9 C    0.998    10 C    0.988     7 C    0.975
                            11 N    0.973
     9   6 C    3.997 --     8 C    0.998    21 H    0.988    23 H    0.986
                            22 H    0.985
    10   6 C    3.992 --     8 C    0.988    26 H    0.987    24 H    0.986
                            25 H    0.984
    11   7 N    2.947 --     8 C    0.973    27 H    0.947    28 H    0.946
    12   7 N    3.393 --    13 C    1.235     7 C    0.993    29 H    0.903
                            14 O    0.142
    13   6 C    3.884 --    14 O    1.579    12 N    1.235    15 C    0.938
    14   8 O    1.856 --    13 C    1.579    12 N    0.142
    15   6 C    3.915 --     5 C    0.967    16 C    0.962    17 O    0.944
                            13 C    0.938
    16   6 C    3.996 --    32 H    0.988    30 H    0.986    31 H    0.983
                            15 C    0.962
    17   8 O    1.879 --    15 C    0.944    33 H    0.838
    18   1 H    1.019 --     1 C    0.981
    19   1 H    1.019 --     1 C    0.981
    20   1 H    1.019 --     1 C    0.987
    21   1 H    1.010 --     9 C    0.988
    22   1 H    1.011 --     9 C    0.985
    23   1 H    1.017 --     9 C    0.986
    24   1 H    1.005 --    10 C    0.986
    25   1 H    1.004 --    10 C    0.984
    26   1 H    1.007 --    10 C    0.987
    27   1 H    0.965 --    11 N    0.947
    28   1 H    0.963 --    11 N    0.946
    29   1 H    0.953 --    12 N    0.903
    30   1 H    1.012 --    16 C    0.986
    31   1 H    1.016 --    16 C    0.983
    32   1 H    1.011 --    16 C    0.988
    33   1 H    0.903 --    17 O    0.838
 ---------------------------------------------------------------------------

           -------------------------------------------------
          | TOTAL ENERGY              -58.570121706170 Eh   |
          | GRADIENT NORM               0.000601492577 Eh/α |
          | HOMO-LUMO GAP               2.297862788466 eV   |
           -------------------------------------------------

 * finished run on 2023/06/20 at 15:02:12.066
