   * xtb version 6.5.1 (579679a) compiled by 'ehlert@majestix' on 2022-07-11
          program call               : /lustre/hpc/kemi/ree/PhD/git/ReactivityQM/dep/xtb-6.5.1/bin/xtb --gfn 1 /lustre/hpc/kemi/ree/PhD/git/ReactivityQM/calculations/R03/reac02prodN13/conf20/R03_reac02prodN13_conf20_gfn1.xyz --opt --vfukui --chrg 1 --uhf 0 --alpb DMSO

   ID    Z sym.   atoms
    1    6 C      1, 3, 5, 7-10, 12, 14, 17-19, 22, 23, 25
    2    8 O      2, 4, 13, 20, 24, 26
    3    7 N      6, 11, 15, 16, 21
    4    1 H      27-46

      * Solvation model:               ALPB
        Solvent                        DMSO
        Solvent mass                       7.8130E+01 g/mol
          :  Hamiltonian                  GFN1-xTB          :
 * total energy  :   -86.2711264 Eh     change       -0.8867573E-11 Eh
 * total energy  :   -86.2871190 Eh     change       -0.1599261E-01 Eh
 * total energy  :   -86.2932681 Eh     change       -0.6149030E-02 Eh
 * total energy  :   -86.2941349 Eh     change       -0.8667980E-03 Eh
 * total energy  :   -86.2945527 Eh     change       -0.4178323E-03 Eh
 * total energy  :   -86.2946928 Eh     change       -0.1401163E-03 Eh
 * total energy  :   -86.2948409 Eh     change       -0.1481161E-03 Eh
 * total energy  :   -86.2949659 Eh     change       -0.1250152E-03 Eh
 * total energy  :   -86.2950675 Eh     change       -0.1015572E-03 Eh
 * total energy  :   -86.2951314 Eh     change       -0.6387872E-04 Eh
 * total energy  :   -86.2952744 Eh     change       -0.2956159E-04 Eh
 * total energy  :   -86.2952949 Eh     change       -0.2049168E-04 Eh
 * total energy  :   -86.2952939 Eh     change        0.1044227E-05 Eh
 * total energy  :   -86.2953111 Eh     change       -0.1728937E-04 Eh
 * total energy  :   -86.2953208 Eh     change       -0.9663766E-05 Eh
 * total energy  :   -86.2953363 Eh     change       -0.1545207E-04 Eh
 * total energy  :   -86.2953458 Eh     change       -0.9561596E-05 Eh
 * total energy  :   -86.2953610 Eh     change       -0.1520097E-04 Eh
 * total energy  :   -86.2953649 Eh     change       -0.3835397E-05 Eh
   *** GEOMETRY OPTIMIZATION CONVERGED AFTER 22 ITERATIONS ***

 final structure:
================
46
 xtb: 6.5.1 (579679a)
C           -6.53018274792672       -2.81342456822205        0.00713313772647
O           -5.61166128297491       -1.74194142961805        0.28589930669742
C           -4.44984672674738       -1.77944056635195       -0.37235384998887
O           -4.15856616521058       -2.64522979416083       -1.15848463162965
C           -3.55168820351726       -0.63511004697666       -0.02928776768360
N           -2.38872827308843       -0.63335545139804       -0.73326519783916
C           -1.48672562203884        0.28382106611591       -0.56298703350260
C           -0.26806651632899        0.17642035877083       -1.46841722459868
C           -0.27055191468979       -1.18841516988757       -2.17267984918035
C           -0.29518381191804        1.30334081612914       -2.51081522993184
N            0.94316840424189        0.23653446055358       -0.63348128391031
C            2.18538554629549        0.32602143471021       -1.14444937933966
O            2.50165235975292        0.47394236748469       -2.30091459085641
C            3.21105137986764        0.23566575735201       -0.04266642667772
N            2.91383971442589        0.13202938491514        1.29072606990585
N            4.00494873225598        0.07299348576138        1.92638280349982
C            5.10412408433172        0.13364675909404        1.01758169623618
C            5.95299048273810        1.38600890654977        1.27221596451170
C            5.93197268504685       -1.15640606407954        1.07911300140808
O            4.46892523074968        0.23801415183266       -0.25513584272485
N           -1.65980254455117        1.29902350323989        0.32914173180302
C           -0.71369584000091        2.39011696508928        0.56780316026365
C           -2.81617621458607        1.40922683494224        1.11078470973814
O           -2.94284740735809        2.33469575909387        1.89160404733420
C           -3.80680199582006        0.35125070455860        0.89593178724625
O           -4.89779344637312        0.45847503976987        1.64578417605864
H           -7.42672549064732       -2.61127815896101        0.58763014899339
H           -6.75918419398380       -2.83320518551324       -1.06026178284009
H           -6.08501670797375       -3.76466163235571        0.30522730929162
H           -1.15719745673049       -1.27217634818425       -2.79855789924218
H           -0.28002326726313       -1.98755549657378       -1.43404101459160
H            0.61930356178343       -1.27845068485004       -2.79238250932830
H           -1.28954826252428        1.34293526044494       -2.95350224662409
H            0.43178740769639        1.10713534212763       -3.29600718322185
H           -0.07057909142695        2.26597136476479       -2.05911481277852
H            0.85019883803977       -0.01056201947216        0.33952397392502
H            6.74536793221242        1.42956237072919        0.52865458378904
H            6.37944519873314        1.32287738359208        2.27019647180503
H            5.32187545078350        2.26842405210695        1.19262114341409
H            6.70828646527107       -1.11050908006528        0.31901390691759
H            5.28273890994243       -2.00906884162254        0.89338232423392
H            6.37948847629489       -1.23888692308721        2.06636299820373
H           -0.55412498403167        2.47022337689627        1.64301951224612
H           -1.15414384188029        3.31836565099515        0.20316408613944
H            0.22780687478792        2.20027892427491        0.07047576292882
H           -5.53949772565977       -0.25732202051805        1.48327494217297

          :  Hamiltonian                  GFN1-xTB          :
         :: total energy             -86.295364860432 Eh    ::
         :: gradient norm              0.000333879416 Eh/a0 ::
         :: HOMO-LUMO gap              0.132417877951 eV    ::
         :: SCC energy               -87.117924585339 Eh    ::
         :: -> Gsolv                  -0.112210443122 Eh    ::
         :: repulsion energy           0.851471132329 Eh    ::

    * Orbital Energies and Occupations

         #    Occupation            Energy/Eh            Energy/eV
      -------------------------------------------------------------
         1        2.0000           -0.9320772             -25.3631
       ...           ...                  ...                  ...
        58        2.0000           -0.5327936             -14.4981
        59        2.0000           -0.5285830             -14.3835
        60        2.0000           -0.5233416             -14.2408
        61        2.0000           -0.5202218             -14.1560
        62        2.0000           -0.5140487             -13.9880
        63        2.0000           -0.5076026             -13.8126
        64        2.0000           -0.5009575             -13.6317
        65        2.0000           -0.4997339             -13.5985
        66        2.0000           -0.4945839             -13.4583
        67        2.0000           -0.4900556             -13.3351
        68        2.0000           -0.4770617             -12.9815
        69        2.0000           -0.4647158             -12.6456
        70        1.8566           -0.4460955             -12.1389 (HOMO)
        71        0.1434           -0.4412292             -12.0065 (LUMO)
        72                         -0.3603494              -9.8056
        73                         -0.3405925              -9.2680
        74                         -0.3045579              -8.2874
        75                         -0.2589076              -7.0452
        76                         -0.2566259              -6.9831
        77                         -0.1772339              -4.8228
        78                         -0.1614704              -4.3938
        79                         -0.1560193              -4.2455
        80                         -0.1557413              -4.2379
        81                         -0.1420283              -3.8648
       ...                                ...                  ...
       144                          0.7271438              19.7866
      -------------------------------------------------------------
                  HL-Gap            0.0048663 Eh            0.1324 eV

Wiberg/Mayer (AO) data.
largest (>0.10) Wiberg bond orders for each atom

     #   Z sym  total        # sym  WBO       # sym  WBO       # sym  WBO
 ---------------------------------------------------------------------------
     1   6 C    3.853 --    27 H    0.986    28 H    0.979    29 H    0.979
                             2 O    0.877
     2   8 O    2.209 --     3 C    1.100     1 C    0.877     4 O    0.134
     3   6 C    3.850 --     4 O    1.681     2 O    1.100     5 C    0.993
     4   8 O    1.941 --     3 C    1.681     2 O    0.134
     5   6 C    3.928 --    25 C    1.446     6 N    1.219     3 C    0.993
     6   7 N    2.994 --     7 C    1.527     5 C    1.219
     7   6 C    3.905 --     6 N    1.527    21 N    1.204     8 C    0.977
     8   6 C    3.909 --     9 C    0.978     7 C    0.977    10 C    0.976
                            11 N    0.907
     9   6 C    3.976 --    31 H    0.983    32 H    0.982    30 H    0.979
                             8 C    0.978
    10   6 C    3.977 --    33 H    0.982    35 H    0.980     8 C    0.976
                            34 H    0.976
    11   7 N    3.389 --    12 C    1.262     8 C    0.907    36 H    0.886
                            13 O    0.208
    12   6 C    3.923 --    13 O    1.629    11 N    1.262    14 C    0.948
    13   8 O    1.960 --    12 C    1.629    11 N    0.208
    14   6 C    3.733 --    20 O    1.328    15 N    1.214    12 C    0.948
    15   7 N    3.025 --    16 N    1.650    14 C    1.214
    16   7 N    2.896 --    15 N    1.650    17 C    1.051
    17   6 C    3.818 --    16 N    1.051    19 C    0.907    18 C    0.906
                            20 O    0.868
    18   6 C    3.936 --    39 H    0.979    38 H    0.978    37 H    0.976
                            17 C    0.906
    19   6 C    3.937 --    41 H    0.980    42 H    0.978    40 H    0.976
                            17 C    0.907
    20   8 O    2.364 --    14 C    1.328    17 C    0.868
    21   7 N    3.491 --     7 C    1.204    23 C    1.089    22 C    0.927
                            24 O    0.124
    22   6 C    3.913 --    45 H    0.977    43 H    0.973    44 H    0.971
                            21 N    0.927
    23   6 C    3.896 --    24 O    1.611    21 N    1.089    25 C    1.058
    24   8 O    1.888 --    23 C    1.611    21 N    0.124
    25   6 C    3.862 --     5 C    1.446    26 O    1.138    23 C    1.058
    26   8 O    2.089 --    25 C    1.138    46 H    0.790
    27   1 H    1.007 --     1 C    0.986
    28   1 H    1.005 --     1 C    0.979
    29   1 H    1.004 --     1 C    0.979
    30   1 H    1.006 --     9 C    0.979
    31   1 H    1.005 --     9 C    0.983
    32   1 H    1.000 --     9 C    0.982
    33   1 H    0.998 --    10 C    0.982
    34   1 H    1.006 --    10 C    0.976
    35   1 H    0.998 --    10 C    0.980
    36   1 H    0.938 --    11 N    0.886
    37   1 H    0.991 --    18 C    0.976
    38   1 H    0.992 --    18 C    0.978
    39   1 H    0.991 --    18 C    0.979
    40   1 H    0.991 --    19 C    0.976
    41   1 H    0.991 --    19 C    0.980
    42   1 H    0.992 --    19 C    0.978
    43   1 H    1.001 --    22 C    0.973
    44   1 H    0.997 --    22 C    0.971
    45   1 H    1.006 --    22 C    0.977
    46   1 H    0.843 --    26 O    0.790
 ---------------------------------------------------------------------------

           -------------------------------------------------
          | TOTAL ENERGY              -86.295364860432 Eh   |
          | GRADIENT NORM               0.000333879416 Eh/α |
          | HOMO-LUMO GAP               0.132417877951 eV   |
           -------------------------------------------------

 * finished run on 2023/06/20 at 15:48:51.765
