   * xtb version 6.5.1 (579679a) compiled by 'ehlert@majestix' on 2022-07-11
          program call               : /lustre/hpc/kemi/ree/PhD/git/ReactivityQM/dep/xtb-6.5.1/bin/xtb --gfn 1 /lustre/hpc/kemi/ree/PhD/git/ReactivityQM/calculations/R02methylcation/reac01prodN01/conf13/R02methylcation_reac01prodN01_conf13_gfn1.xyz --opt --vfukui --chrg 0 --uhf 0 --alpb DMSO

   ID    Z sym.   atoms
    1    6 C      1, 3, 5, 7-10, 12, 14, 17, 18, 20, 22, 24
    2    8 O      2, 4, 13, 19, 23, 25
    3    7 N      6, 11, 15, 16, 21
    4    1 H      26-42

      * Solvation model:               ALPB
        Solvent                        DMSO
        Solvent mass                       7.8130E+01 g/mol
          :  Hamiltonian                  GFN1-xTB          :
 * total energy  :   -82.8792620 Eh     change       -0.2964384E-10 Eh
 * total energy  :   -82.8957360 Eh     change       -0.1647396E-01 Eh
 * total energy  :   -82.9041155 Eh     change       -0.8379568E-02 Eh
 * total energy  :   -82.9069884 Eh     change       -0.2872856E-02 Eh
 * total energy  :   -82.9089873 Eh     change       -0.1998934E-02 Eh
 * total energy  :   -82.9099958 Eh     change       -0.1008418E-02 Eh
 * total energy  :   -82.9106400 Eh     change       -0.6442052E-03 Eh
 * total energy  :   -82.9110839 Eh     change       -0.4439030E-03 Eh
 * total energy  :   -82.9113428 Eh     change       -0.2589280E-03 Eh
 * total energy  :   -82.9114851 Eh     change       -0.1423497E-03 Eh
 * total energy  :   -82.9120088 Eh     change       -0.1859912E-04 Eh
 * total energy  :   -82.9120187 Eh     change       -0.9916323E-05 Eh
 * total energy  :   -82.9120297 Eh     change       -0.1102325E-04 Eh
 * total energy  :   -82.9120373 Eh     change       -0.7517276E-05 Eh
 * total energy  :   -82.9120453 Eh     change       -0.8058277E-05 Eh
 * total energy  :   -82.9120534 Eh     change       -0.8109912E-05 Eh
 * total energy  :   -82.9120596 Eh     change       -0.6188145E-05 Eh
 * total energy  :   -82.9120648 Eh     change       -0.5198376E-05 Eh
 * total energy  :   -82.9120696 Eh     change       -0.4835031E-05 Eh
   *** GEOMETRY OPTIMIZATION CONVERGED AFTER 29 ITERATIONS ***

 final structure:
================
42
 xtb: 6.5.1 (579679a)
C            6.25946014753758        1.01986339373342       -1.16279356517147
O            4.97733389708398        0.54179947239985       -0.77585812267563
C            4.84252122034309        0.20926189963678        0.54287984843046
O            5.78027015729139        0.33932162478163        1.31216247810703
C            3.51342018722447       -0.29403821036365        0.85648337962228
N            2.62105839330634       -0.30534693308467       -0.19622446189917
C            1.43522589164053       -0.76599574207603       -0.04451276701054
C            0.46911806166479       -0.75916658441581       -1.21540210630849
C            0.02831541621729       -2.17481990390003       -1.59775932885466
C            1.12609939186321       -0.07032531749748       -2.41253906767050
N           -0.70172875268791        0.07417286622823       -0.84770623175848
C           -1.73803974113678       -0.31502092273999       -0.10791277431714
O           -1.92251476766717       -1.41025553182632        0.39671877225036
C           -2.70430550851782        0.81198792663891        0.08561549768138
N           -2.53470212211609        2.04943074867675       -0.19769391267249
N           -3.64149978545138        2.75259683047084        0.19104319695264
C           -4.48231934306895        1.94501884799024        0.71205454079119
C           -5.81785677689559        2.21132432900248        1.26738711587032
O           -3.94765924068068        0.64820906713521        0.70401998752783
C           -4.62620779668811       -0.59280364612735        1.08058056140339
N            0.99305550781893       -1.26489886709208        1.16229054745298
C            1.75410563982284       -1.27274131363299        2.30515234089477
O            1.27865822095444       -1.70217702298294        3.35188011461305
C            3.16382771871569       -0.73928669077495        2.16102464897461
O            3.90187363062864       -0.72682256139502        3.15935007841342
H            6.51392925426823        1.93442850724362       -0.61735401452049
H            6.21013584991269        1.22973136643134       -2.23028459690588
H            7.02875406536241        0.26514641559505       -0.96868537544147
H           -0.77872277102326       -2.12850495945243       -2.32625391139379
H           -0.31230633895734       -2.73598387465397       -0.73106492302057
H            0.87525029051697       -2.69801260281756       -2.04074022726138
H            2.01572847517775       -0.62637932986500       -2.70526102810576
H            1.42515447887286        0.94340115613031       -2.14795744017494
H            0.43288131451643       -0.03505558173863       -3.25018501439109
H           -0.70816466469731        1.01876313964244       -1.20137584954423
H           -6.57285923892387        1.63532036953056        0.73208301565188
H           -5.85828642861120        1.92808593883221        2.31983382472967
H           -6.03211627821374        3.27391233110784        1.16827296519442
H           -3.85223939122540       -1.30322987944477        1.36344205549036
H           -5.27373600043614       -0.35347297325164        1.91890374571470
H           -5.19364127140234       -0.93744921175634        0.21875066660150
H            0.05272600765905       -1.61998557031219        1.23902433673670

          :  Hamiltonian                  GFN1-xTB          :
         :: total energy             -82.912069647480 Eh    ::
         :: gradient norm              0.000519069045 Eh/a0 ::
         :: HOMO-LUMO gap              0.322133674278 eV    ::
         :: SCC energy               -83.694478818773 Eh    ::
         :: -> Gsolv                  -0.131198913975 Eh    ::
         :: repulsion energy           0.808424994553 Eh    ::

    * Orbital Energies and Occupations

         #    Occupation            Energy/Eh            Energy/eV
      -------------------------------------------------------------
         1        2.0000           -0.9632165             -26.2105
       ...           ...                  ...                  ...
        55        2.0000           -0.5078030             -13.8180
        56        2.0000           -0.5026196             -13.6770
        57        2.0000           -0.4982275             -13.5575
        58        2.0000           -0.4904325             -13.3453
        59        2.0000           -0.4838228             -13.1655
        60        2.0000           -0.4723337             -12.8529
        61        2.0000           -0.4689826             -12.7617
        62        2.0000           -0.4612640             -12.5516
        63        2.0000           -0.4456589             -12.1270
        64        2.0000           -0.4421763             -12.0322
        65        2.0000           -0.4237986             -11.5321
        66        2.0000           -0.3833605             -10.4318
        67        1.9961           -0.3722701             -10.1300 (HOMO)
        68        0.0039           -0.3604319              -9.8079 (LUMO)
        69                         -0.3101205              -8.4388
        70                         -0.2750963              -7.4858
        71                         -0.2493247              -6.7845
        72                         -0.2396092              -6.5201
        73                         -0.2013548              -5.4791
        74                         -0.1878872              -5.1127
        75                         -0.1719675              -4.6795
        76                         -0.1320420              -3.5930
        77                         -0.1251534              -3.4056
        78                         -0.1244315              -3.3860
       ...                                ...                  ...
       134                          0.7643873              20.8000
      -------------------------------------------------------------
                  HL-Gap            0.0118382 Eh            0.3221 eV

Wiberg/Mayer (AO) data.
largest (>0.10) Wiberg bond orders for each atom

     #   Z sym  total        # sym  WBO       # sym  WBO       # sym  WBO
 ---------------------------------------------------------------------------
     1   6 C    3.897 --    27 H    0.987    26 H    0.981    28 H    0.980
                             2 O    0.924
     2   8 O    2.139 --     3 C    1.031     1 C    0.924     4 O    0.110
     3   6 C    3.849 --     4 O    1.599     5 C    1.110     2 O    1.031
     4   8 O    1.871 --     3 C    1.599     2 O    0.110
     5   6 C    3.900 --    24 C    1.258     6 N    1.163     3 C    1.110
                            25 O    0.125
     6   7 N    3.031 --     7 C    1.623     5 C    1.163
     7   6 C    3.932 --     6 N    1.623    21 N    1.101     8 C    0.965
     8   6 C    3.911 --    10 C    1.001     9 C    0.990     7 C    0.965
                            11 N    0.887
     9   6 C    3.988 --     8 C    0.990    29 H    0.984    31 H    0.983
                            30 H    0.979
    10   6 C    3.991 --     8 C    1.001    34 H    0.986    33 H    0.982
                            32 H    0.981
    11   7 N    3.397 --    12 C    1.320    35 H    0.891     8 C    0.887
                            13 O    0.195
    12   6 C    3.924 --    13 O    1.556    11 N    1.320    14 C    0.970
    13   8 O    1.936 --    12 C    1.556    11 N    0.195
    14   6 C    3.786 --    15 N    1.694    12 C    0.970    19 O    0.880
    15   7 N    3.032 --    14 C    1.694    16 N    1.145
    16   7 N    3.024 --    17 C    1.700    15 N    1.145
    17   6 C    3.799 --    16 N    1.700    18 C    1.044    19 O    0.875
    18   6 C    3.970 --    17 C    1.044    38 H    0.970    36 H    0.952
                            37 H    0.950
    19   8 O    2.649 --    14 C    0.880    17 C    0.875    20 C    0.749
    20   6 C    3.723 --    40 H    0.975    41 H    0.971    39 H    0.958
                            19 O    0.749
    21   7 N    3.426 --    22 C    1.158     7 C    1.101    42 H    0.884
                            23 O    0.135
    22   6 C    3.877 --    23 O    1.586    21 N    1.158    24 C    0.964
    23   8 O    1.862 --    22 C    1.586    21 N    0.135
    24   6 C    3.938 --    25 O    1.535     5 C    1.258    22 C    0.964
    25   8 O    1.830 --    24 C    1.535     5 C    0.125
    26   1 H    1.013 --     1 C    0.981
    27   1 H    1.016 --     1 C    0.987
    28   1 H    1.013 --     1 C    0.980
    29   1 H    0.999 --     9 C    0.984
    30   1 H    1.009 --     9 C    0.979
    31   1 H    1.001 --     9 C    0.983
    32   1 H    1.010 --    10 C    0.981
    33   1 H    1.008 --    10 C    0.982
    34   1 H    1.000 --    10 C    0.986
    35   1 H    0.941 --    11 N    0.891
    36   1 H    0.988 --    18 C    0.952
    37   1 H    0.988 --    18 C    0.950
    38   1 H    0.989 --    18 C    0.970
    39   1 H    1.003 --    20 C    0.958
    40   1 H    0.991 --    20 C    0.975
    41   1 H    0.989 --    20 C    0.971
    42   1 H    0.947 --    21 N    0.884
 ---------------------------------------------------------------------------

           -------------------------------------------------
          | TOTAL ENERGY              -82.912069647480 Eh   |
          | GRADIENT NORM               0.000519069045 Eh/α |
          | HOMO-LUMO GAP               0.322133674278 eV   |
           -------------------------------------------------

 * finished run on 2023/06/21 at 17:29:37.224
