   * xtb version 6.5.1 (579679a) compiled by 'ehlert@majestix' on 2022-07-11
          program call               : /lustre/hpc/kemi/ree/PhD/git/ReactivityQM/dep/xtb-6.5.1/bin/xtb --gfn 1 /lustre/hpc/kemi/ree/PhD/git/ReactivityQM/calculations/R02methylcation/reac01prodN07/conf01/R02methylcation_reac01prodN07_conf01_gfn1.xyz --opt --vfukui --chrg 0 --uhf 0 --alpb DMSO

   ID    Z sym.   atoms
    1    6 C      1, 3, 5, 7-10, 12, 14, 17-19, 22, 24
    2    8 O      2, 4, 13, 20, 23, 25
    3    7 N      6, 11, 15, 16, 21
    4    1 H      26-42

      * Solvation model:               ALPB
        Solvent                        DMSO
        Solvent mass                       7.8130E+01 g/mol
          :  Hamiltonian                  GFN1-xTB          :
 * total energy  :   -82.9529321 Eh     change       -0.1989520E-11 Eh
 * total energy  :   -82.9696589 Eh     change       -0.1672679E-01 Eh
 * total energy  :   -82.9763353 Eh     change       -0.6676431E-02 Eh
 * total energy  :   -82.9772628 Eh     change       -0.9274763E-03 Eh
 * total energy  :   -82.9778192 Eh     change       -0.5564318E-03 Eh
 * total energy  :   -82.9780260 Eh     change       -0.2068188E-03 Eh
 * total energy  :   -82.9782648 Eh     change       -0.2387983E-03 Eh
 * total energy  :   -82.9784501 Eh     change       -0.1852780E-03 Eh
 * total energy  :   -82.9785998 Eh     change       -0.1496915E-03 Eh
 * total energy  :   -82.9787252 Eh     change       -0.1253862E-03 Eh
 * total energy  :   -82.9792713 Eh     change       -0.1991069E-04 Eh
 * total energy  :   -82.9792886 Eh     change       -0.1727368E-04 Eh
 * total energy  :   -82.9792974 Eh     change       -0.8826171E-05 Eh
 * total energy  :   -82.9793064 Eh     change       -0.9000078E-05 Eh
 * total energy  :   -82.9793121 Eh     change       -0.5698636E-05 Eh
 * total energy  :   -82.9793196 Eh     change       -0.7485910E-05 Eh
 * total energy  :   -82.9793267 Eh     change       -0.7081347E-05 Eh
 * total energy  :   -82.9793323 Eh     change       -0.5626696E-05 Eh
 * total energy  :   -82.9793372 Eh     change       -0.4864141E-05 Eh
   *** GEOMETRY OPTIMIZATION CONVERGED AFTER 28 ITERATIONS ***

 final structure:
================
42
 xtb: 6.5.1 (579679a)
C            6.90979819014787       -0.05196700205701        1.73710980240720
O            5.69863790858881       -0.70770216246931        1.38481806236036
C            4.78105274408539        0.05187600487110        0.73866699520511
O            5.00799594083349        1.23001815926375        0.48983203061885
C            3.55183581111415       -0.64625279735275        0.38757872299481
N            2.65229417226952        0.16418091286606       -0.28030642217358
C            1.51590790347720       -0.28862497011141       -0.65164862089327
C            0.55640187631715        0.57957863798957       -1.43536981572078
C            0.48927506134215        0.08326226530563       -2.88643031208444
C            0.99720312379610        2.04341680940845       -1.36501860778999
N           -0.77758842957803        0.43866616893791       -0.80881792212772
C           -1.87763211791794        1.02742119695459       -1.28039513688983
O           -1.97719400492735        1.74536159429998       -2.25547808086638
C           -3.09545054265210        0.71119366232767       -0.45088396964174
N           -4.30627181451481        1.13844120830041       -0.64460183262745
N           -5.03224269562858        0.58686496682624        0.34526746060684
C           -6.45354169982523        0.85186596466981        0.43906405419639
C           -4.26132184806990       -0.15580751564422        1.11143186112839
C           -4.61042846678626       -0.93098216827806        2.31178089038926
O           -3.03525669987813       -0.09317037738597        0.63056208665687
N            1.13652748398308       -1.59880568016961       -0.41964863439577
C            1.92809079141738       -2.51381288464236        0.23245184172240
O            1.51370366900969       -3.65457145973197        0.41223889033667
C            3.28342891793589       -2.00966283354962        0.68109588825777
O            4.04509678140759       -2.80111870666101        1.26284018298867
H            7.53414957671637       -0.78621646283981        2.24531476937969
H            7.42361237451570        0.31705517997218        0.84384468081022
H            6.71205731621283        0.79241457065356        2.40468316412494
H            0.09908136338406       -0.93234681553335       -2.91471632445747
H            1.49210652637234        0.09079476095061       -3.31199305005860
H           -0.15327445112356        0.72641197155827       -3.48407012657639
H            0.33750962651451        2.66859869162445       -1.96270511837089
H            2.01514849006420        2.12609883161102       -1.74509005409844
H            0.97936713055034        2.38611346646345       -0.33149441510959
H           -0.85100579749549       -0.10706427460932        0.03353655121505
H           -6.66465388921865        1.31721757626466        1.39981206850070
H           -6.99456440702193       -0.08922706117804        0.35723914285957
H           -6.72270154500040        1.51862540510486       -0.37609267575192
H           -5.64510818835201       -1.26348849174688        2.26145753010686
H           -4.49094871473460       -0.30140373570712        3.19703771044323
H           -3.93833395398257       -1.78341639319082        2.40327297482366
H            0.22723548666613       -1.91406621334947       -0.70617424251491

          :  Hamiltonian                  GFN1-xTB          :
         :: total energy             -82.979337176765 Eh    ::
         :: gradient norm              0.000803119303 Eh/a0 ::
         :: HOMO-LUMO gap              0.425713196915 eV    ::
         :: SCC energy               -83.768420957327 Eh    ::
         :: -> Gsolv                  -0.130903559040 Eh    ::
         :: repulsion energy           0.813965612920 Eh    ::

    * Orbital Energies and Occupations

         #    Occupation            Energy/Eh            Energy/eV
      -------------------------------------------------------------
         1        2.0000           -0.9358209             -25.4650
       ...           ...                  ...                  ...
        55        2.0000           -0.5053176             -13.7504
        56        2.0000           -0.5016449             -13.6505
        57        2.0000           -0.4968541             -13.5201
        58        2.0000           -0.4892282             -13.3126
        59        2.0000           -0.4794021             -13.0452
        60        2.0000           -0.4665662             -12.6959
        61        2.0000           -0.4658870             -12.6774
        62        2.0000           -0.4603771             -12.5275
        63        2.0000           -0.4447738             -12.1029
        64        2.0000           -0.4388737             -11.9424
        65        2.0000           -0.4221772             -11.4880
        66        2.0000           -0.3828007             -10.4165
        67        1.9995           -0.3703635             -10.0781 (HOMO)
        68        0.0005           -0.3547188              -9.6524 (LUMO)
        69                         -0.3414935              -9.2925
        70                         -0.2736482              -7.4463
        71                         -0.2458802              -6.6907
        72                         -0.2358827              -6.4187
        73                         -0.2003974              -5.4531
        74                         -0.1831491              -4.9837
        75                         -0.1709776              -4.6525
        76                         -0.1249858              -3.4010
        77                         -0.1232465              -3.3537
        78                         -0.1222147              -3.3256
       ...                                ...                  ...
       134                          0.7551692              20.5492
      -------------------------------------------------------------
                  HL-Gap            0.0156447 Eh            0.4257 eV

Wiberg/Mayer (AO) data.
largest (>0.10) Wiberg bond orders for each atom

     #   Z sym  total        # sym  WBO       # sym  WBO       # sym  WBO
 ---------------------------------------------------------------------------
     1   6 C    3.897 --    26 H    0.987    28 H    0.981    27 H    0.981
                             2 O    0.923
     2   8 O    2.163 --     3 C    1.053     1 C    0.923     4 O    0.111
     3   6 C    3.851 --     4 O    1.578     5 C    1.109     2 O    1.053
     4   8 O    1.852 --     3 C    1.578     2 O    0.111
     5   6 C    3.913 --    24 C    1.269     6 N    1.156     3 C    1.109
                            25 O    0.130
     6   7 N    3.034 --     7 C    1.638     5 C    1.156
     7   6 C    3.933 --     6 N    1.638    21 N    1.085     8 C    0.979
     8   6 C    3.914 --    10 C    0.993     9 C    0.982     7 C    0.979
                            11 N    0.893
     9   6 C    3.987 --    29 H    0.984    30 H    0.984     8 C    0.982
                            31 H    0.981
    10   6 C    3.989 --     8 C    0.993    34 H    0.985    32 H    0.984
                            33 H    0.982
    11   7 N    3.392 --    12 C    1.311     8 C    0.893    35 H    0.891
                            13 O    0.202
    12   6 C    3.927 --    13 O    1.593    11 N    1.311    14 C    0.952
    13   8 O    1.925 --    12 C    1.593    11 N    0.202
    14   6 C    3.835 --    15 N    1.616    20 O    1.052    12 C    0.952
    15   7 N    2.982 --    14 C    1.616    16 N    1.149
    16   7 N    3.631 --    18 C    1.427    15 N    1.149    17 C    0.910
    17   6 C    3.886 --    38 H    0.978    36 H    0.970    37 H    0.969
                            16 N    0.910
    18   6 C    3.842 --    16 N    1.427    20 O    1.145    19 C    1.042
    19   6 C    3.961 --    18 C    1.042    39 H    0.967    41 H    0.962
                            40 H    0.932
    20   8 O    2.374 --    18 C    1.145    14 C    1.052
    21   7 N    3.416 --    22 C    1.152     7 C    1.085    42 H    0.898
                            23 O    0.135
    22   6 C    3.875 --    23 O    1.587    21 N    1.152    24 C    0.965
    23   8 O    1.867 --    22 C    1.587    21 N    0.135
    24   6 C    3.942 --    25 O    1.527     5 C    1.269    22 C    0.965
    25   8 O    1.832 --    24 C    1.527     5 C    0.130
    26   1 H    1.015 --     1 C    0.987
    27   1 H    1.013 --     1 C    0.981
    28   1 H    1.014 --     1 C    0.981
    29   1 H    1.002 --     9 C    0.984
    30   1 H    1.002 --     9 C    0.984
    31   1 H    1.007 --     9 C    0.981
    32   1 H    1.007 --    10 C    0.984
    33   1 H    1.013 --    10 C    0.982
    34   1 H    1.007 --    10 C    0.985
    35   1 H    0.934 --    11 N    0.891
    36   1 H    0.990 --    17 C    0.970
    37   1 H    0.990 --    17 C    0.969
    38   1 H    0.993 --    17 C    0.978
    39   1 H    0.988 --    19 C    0.967
    40   1 H    0.984 --    19 C    0.932
    41   1 H    0.985 --    19 C    0.962
    42   1 H    0.944 --    21 N    0.898
 ---------------------------------------------------------------------------

           -------------------------------------------------
          | TOTAL ENERGY              -82.979337176765 Eh   |
          | GRADIENT NORM               0.000803119303 Eh/α |
          | HOMO-LUMO GAP               0.425713196915 eV   |
           -------------------------------------------------

 * finished run on 2023/06/21 at 17:38:17.375
