   * xtb version 6.5.1 (579679a) compiled by 'ehlert@majestix' on 2022-07-11
          program call               : /lustre/hpc/kemi/ree/PhD/git/ReactivityQM/dep/xtb-6.5.1/bin/xtb --gfn 1 /lustre/hpc/kemi/ree/PhD/git/ReactivityQM/calculations/R02oxygendeprot/reac01prodN03/conf13/R02oxygendeprot_reac01prodN03_conf13_gfn1.xyz --opt --vfukui --chrg 0 --uhf 0 --alpb DMSO

   ID    Z sym.   atoms
    1    6 C      1, 3, 5, 6, 8-11, 13, 15, 18, 19, 22, 24
    2    8 O      2, 4, 14, 20, 23, 25
    3    7 N      7, 12, 16, 17, 21
    4    1 H      26-42

      * Solvation model:               ALPB
        Solvent                        DMSO
        Solvent mass                       7.8130E+01 g/mol
          :  Hamiltonian                  GFN1-xTB          :
 * total energy  :   -82.9858662 Eh     change       -0.9208634E-11 Eh
 * total energy  :   -82.9971586 Eh     change       -0.1129235E-01 Eh
 * total energy  :   -83.0013242 Eh     change       -0.4165652E-02 Eh
 * total energy  :   -83.0022303 Eh     change       -0.9060510E-03 Eh
 * total energy  :   -83.0030241 Eh     change       -0.7938144E-03 Eh
 * total energy  :   -83.0035389 Eh     change       -0.5147651E-03 Eh
 * total energy  :   -83.0039783 Eh     change       -0.4394716E-03 Eh
 * total energy  :   -83.0043136 Eh     change       -0.3352375E-03 Eh
 * total energy  :   -83.0045324 Eh     change       -0.2188237E-03 Eh
 * total energy  :   -83.0046583 Eh     change       -0.1258608E-03 Eh
 * total energy  :   -83.0059461 Eh     change        0.8408972E-06 Eh
 * total energy  :   -83.0059585 Eh     change       -0.1235367E-04 Eh
 * total energy  :   -83.0059760 Eh     change       -0.1752792E-04 Eh
 * total energy  :   -83.0059917 Eh     change       -0.1573013E-04 Eh
 * total energy  :   -83.0060039 Eh     change       -0.1213906E-04 Eh
 * total energy  :   -83.0060143 Eh     change       -0.1037843E-04 Eh
 * total energy  :   -83.0060239 Eh     change       -0.9594826E-05 Eh
 * total energy  :   -83.0060315 Eh     change       -0.7672947E-05 Eh
 * total energy  :   -83.0060364 Eh     change       -0.4879496E-05 Eh
   *** GEOMETRY OPTIMIZATION CONVERGED AFTER 45 ITERATIONS ***

 final structure:
================
42
 xtb: 6.5.1 (579679a)
C           -3.84754608254519        3.11525183748656        1.30655112614977
O           -3.86154275971417        1.70740637940201        1.02214608933072
C           -2.76729142571796        1.18789260992130        0.50678872746364
O           -1.76637928130494        1.79837062103364        0.24068027219016
C           -2.92537459087551       -0.33436793538660        0.22960295847985
C           -4.02621993554667       -0.95812897996898        1.08694679075186
N           -1.65406998778763       -0.93757739585604        0.55882067346353
C           -0.74142127511105       -1.05598986232173       -0.31408864091798
C            0.59190787442791       -1.67280078594113        0.09018515590491
C            0.57649157693748       -1.96820020257155        1.59055985518809
C            0.83101324135158       -2.96649215760348       -0.69848755164591
N            1.68175923958574       -0.71386580687677       -0.13767056075279
C            2.21208884180697       -0.38212248571532       -1.32883232984875
O            1.78567582517503       -0.72988732003933       -2.42277839770427
C            3.39156869424340        0.50528824429126       -1.20450620189130
N            4.09768919023098        1.02235067390272       -2.16152668563833
N            5.07239975659238        1.76821307404988       -1.57246234502668
C            4.90277022309644        1.66154411446731       -0.29105218399793
C            5.69941226821453        2.28825825551543        0.78525508485242
O            3.85497633440754        0.87665623950852        0.00889485531905
N           -0.89338755891637       -0.70437943024064       -1.64400759794482
C           -2.07525850356061       -0.35213539751635       -2.21254625006359
O           -2.18513316996288       -0.06335965056719       -3.38403647197679
C           -3.26867458702571       -0.38447692455414       -1.24955990135874
O           -4.40198128429667       -0.40692735827587       -1.65322556424930
H           -3.01892888625984        3.34744239051373        1.97740009239169
H           -4.79925107088037        3.34075828471767        1.78153026419611
H           -3.73772368908607        3.67956094678669        0.37844890475322
H           -4.03174884957819       -2.03504474955425        0.93111319839818
H           -4.99445732046396       -0.54884255709220        0.80569656213790
H           -3.83542428847884       -0.75121625174528        2.13702104449180
H            1.52574818492875       -2.40686503411281        1.89081310137254
H            0.40932062335485       -1.05156521844764        2.15385437906647
H           -0.22666586020033       -2.66634104844986        1.81894533174590
H            0.80370388351225       -2.78980000537166       -1.77138854594989
H            1.80305769551186       -3.37746518898994       -0.43254500382925
H            0.05747728637541       -3.68810103408296       -0.44106969037725
H            2.15460066715917       -0.38397597896699        0.68868833295508
H            6.03018098891392        1.52910480167324        1.49228234980560
H            5.08733613683715        3.00828466610934        1.32807416731249
H            6.56095612365048        2.79471532149418        0.35738480315837
H           -0.07165424900359       -0.74616370063581       -2.24789919771332

          :  Hamiltonian                  GFN1-xTB          :
         :: total energy             -83.006036413482 Eh    ::
         :: gradient norm              0.000660621239 Eh/a0 ::
         :: HOMO-LUMO gap              2.399407448451 eV    ::
         :: SCC energy               -83.791836825670 Eh    ::
         :: -> Gsolv                  -0.055873619483 Eh    ::
         :: repulsion energy           0.812550775185 Eh    ::

    * Orbital Energies and Occupations

         #    Occupation            Energy/Eh            Energy/eV
      -------------------------------------------------------------
         1        2.0000           -0.8679538             -23.6182
       ...           ...                  ...                  ...
        55        2.0000           -0.5111003             -13.9077
        56        2.0000           -0.5081052             -13.8262
        57        2.0000           -0.5074042             -13.8072
        58        2.0000           -0.5035584             -13.7025
        59        2.0000           -0.4902780             -13.3411
        60        2.0000           -0.4825240             -13.1301
        61        2.0000           -0.4737729             -12.8920
        62        2.0000           -0.4698187             -12.7844
        63        2.0000           -0.4611583             -12.5488
        64        2.0000           -0.4559307             -12.4065
        65        2.0000           -0.4541783             -12.3588
        66        2.0000           -0.4503154             -12.2537
        67        2.0000           -0.4375216             -11.9056 (HOMO)
        68                         -0.3493450              -9.5062 (LUMO)
        69                         -0.3157709              -8.5926
        70                         -0.2955528              -8.0424
        71                         -0.2688682              -7.3163
        72                         -0.2586523              -7.0383
        73                         -0.2211808              -6.0186
        74                         -0.2033014              -5.5321
        75                         -0.1468527              -3.9961
        76                         -0.1427613              -3.8847
        77                         -0.1293537              -3.5199
        78                         -0.1271620              -3.4603
       ...                                ...                  ...
       134                          0.7590380              20.6545
      -------------------------------------------------------------
                  HL-Gap            0.0881766 Eh            2.3994 eV

Wiberg/Mayer (AO) data.
largest (>0.10) Wiberg bond orders for each atom

     #   Z sym  total        # sym  WBO       # sym  WBO       # sym  WBO
 ---------------------------------------------------------------------------
     1   6 C    3.854 --    27 H    0.985    26 H    0.980    28 H    0.980
                             2 O    0.876
     2   8 O    2.230 --     3 C    1.155     1 C    0.876     4 O    0.139
     3   6 C    3.844 --     4 O    1.694     2 O    1.155     5 C    0.867
     4   8 O    1.961 --     3 C    1.694     2 O    0.139
     5   6 C    3.964 --     6 C    0.982     7 N    0.979    24 C    0.947
                             3 C    0.867
     6   6 C    3.985 --    31 H    0.985    29 H    0.984     5 C    0.982
                            30 H    0.982
     7   7 N    3.027 --     8 C    1.754     5 C    0.979
     8   6 C    3.929 --     7 N    1.754    21 N    1.083     9 C    0.965
     9   6 C    3.933 --    10 C    1.001    11 C    0.983     8 C    0.965
                            12 N    0.919
    10   6 C    3.990 --     9 C    1.001    32 H    0.984    33 H    0.982
                            34 H    0.982
    11   6 C    3.987 --    37 H    0.984     9 C    0.983    36 H    0.983
                            35 H    0.979
    12   7 N    3.357 --    13 C    1.274     9 C    0.919    38 H    0.891
                            14 O    0.174
    13   6 C    3.915 --    14 O    1.554    12 N    1.274    15 C    0.999
    14   8 O    1.916 --    13 C    1.554    12 N    0.174
    15   6 C    3.874 --    16 N    1.619    20 O    1.047    13 C    0.999
    16   7 N    3.001 --    15 C    1.619    17 N    1.202
    17   7 N    2.982 --    18 C    1.607    16 N    1.202
    18   6 C    3.867 --    17 N    1.607    20 O    1.073    19 C    1.032
    19   6 C    3.986 --    18 C    1.032    41 H    0.982    39 H    0.965
                            40 H    0.960
    20   8 O    2.317 --    18 C    1.073    15 C    1.047
    21   7 N    3.439 --    22 C    1.201     8 C    1.083    42 H    0.840
                            23 O    0.150
    22   6 C    3.897 --    23 O    1.662    21 N    1.201    24 C    0.906
    23   8 O    1.949 --    22 C    1.662    21 N    0.150
    24   6 C    3.845 --    25 O    1.809     5 C    0.947    22 C    0.906
    25   8 O    2.023 --    24 C    1.809
    26   1 H    1.004 --     1 C    0.980
    27   1 H    1.008 --     1 C    0.985
    28   1 H    1.004 --     1 C    0.980
    29   1 H    1.001 --     6 C    0.984
    30   1 H    1.008 --     6 C    0.982
    31   1 H    1.003 --     6 C    0.985
    32   1 H    0.998 --    10 C    0.984
    33   1 H    1.004 --    10 C    0.982
    34   1 H    1.007 --    10 C    0.982
    35   1 H    1.008 --    11 C    0.979
    36   1 H    0.999 --    11 C    0.983
    37   1 H    1.000 --    11 C    0.984
    38   1 H    0.935 --    12 N    0.891
    39   1 H    0.996 --    19 C    0.965
    40   1 H    0.996 --    19 C    0.960
    41   1 H    0.998 --    19 C    0.982
    42   1 H    0.928 --    21 N    0.840
 ---------------------------------------------------------------------------

           -------------------------------------------------
          | TOTAL ENERGY              -83.006036413482 Eh   |
          | GRADIENT NORM               0.000660621239 Eh/α |
          | HOMO-LUMO GAP               2.399407448451 eV   |
           -------------------------------------------------

 * finished run on 2023/06/21 at 17:19:20.006
