   * xtb version 6.5.1 (579679a) compiled by 'ehlert@majestix' on 2022-07-11
          program call               : /lustre/hpc/kemi/ree/PhD/git/ReactivityQM/dep/xtb-6.5.1/bin/xtb --gfn 1 /lustre/hpc/kemi/ree/PhD/git/ReactivityQM/calculations/RaltegravirCLI/reac01prodN03/conf09/RaltegravirCLI_reac01prodN03_conf09_gfn1.xyz --opt --vfukui --chrg 1 --uhf 0 --alpb DMSO

   ID    Z sym.   atoms
    1    6 C      1, 2, 5-7
    2    7 N      3, 4
    3    8 O      8, 10
    4   17 Cl     9
    5    1 H      11-16

      * Solvation model:               ALPB
        Solvent                        DMSO
        Solvent mass                       7.8130E+01 g/mol
          :  Hamiltonian                  GFN1-xTB          :
 * total energy  :   -33.4330085 Eh     change       -0.3126388E-12 Eh
 * total energy  :   -33.4384507 Eh     change       -0.5442242E-02 Eh
 * total energy  :   -33.4405886 Eh     change       -0.2137901E-02 Eh
 * total energy  :   -33.4409047 Eh     change       -0.3160536E-03 Eh
 * total energy  :   -33.4410283 Eh     change       -0.1236422E-03 Eh
 * total energy  :   -33.4410795 Eh     change       -0.5113267E-04 Eh
 * total energy  :   -33.4410907 Eh     change       -0.1119202E-04 Eh
 * total energy  :   -33.4410975 Eh     change       -0.6801135E-05 Eh
 * total energy  :   -33.4410999 Eh     change       -0.2444913E-05 Eh
   *** GEOMETRY OPTIMIZATION CONVERGED AFTER 9 ITERATIONS ***

 final structure:
================
16
 xtb: 6.5.1 (579679a)
C            2.78446645522603       -0.54846051826040        0.15422739387870
C            1.33974119199009       -0.29169720255043        0.06215781213002
N            0.38257406688236       -1.14467960463746       -0.18952896624487
N           -0.74621944658500       -0.42836673419947       -0.15137881995416
C           -2.01024736122954       -1.08555783930642       -0.40369627994686
C           -0.47060410394109        0.83210905350094        0.11445966132950
C           -1.40892468418032        1.98635575480630        0.26076612814303
O           -2.58738272636790        1.84074624908990        0.12532518874846
Cl          -0.64508842125771        3.45171728297092        0.62622291704089
O            0.84256208796624        0.93731332369551        0.25478962517986
H            3.00542830827425       -1.55720802116033       -0.18704652795593
H            3.32728711652823        0.18341756786634       -0.44415121681127
H            3.10734615216635       -0.43450927232804        1.19100127278185
H           -2.12855405219498       -1.19758573120792       -1.48153898055587
H           -2.81468749068926       -0.47742894900739        0.00185881707580
H           -1.97769809258771       -2.06616535927206        0.06653197516086

          :  Hamiltonian                  GFN1-xTB          :
         :: total energy             -33.441099905848 Eh    ::
         :: gradient norm              0.000688445860 Eh/a0 ::
         :: HOMO-LUMO gap              2.993905673598 eV    ::
         :: SCC energy               -33.734959257204 Eh    ::
         :: -> Gsolv                  -0.081640304676 Eh    ::
         :: repulsion energy           0.301122937494 Eh    ::

    * Orbital Energies and Occupations

         #    Occupation            Energy/Eh            Energy/eV
      -------------------------------------------------------------
         1        2.0000           -0.9906361             -26.9566
       ...           ...                  ...                  ...
        15        2.0000           -0.6354997             -17.2928
        16        2.0000           -0.6345976             -17.2683
        17        2.0000           -0.6265208             -17.0485
        18        2.0000           -0.5977476             -16.2655
        19        2.0000           -0.5900363             -16.0557
        20        2.0000           -0.5771051             -15.7038
        21        2.0000           -0.5708990             -15.5350
        22        2.0000           -0.5619460             -15.2913
        23        2.0000           -0.5531182             -15.0511
        24        2.0000           -0.5307570             -14.4426
        25        2.0000           -0.5276826             -14.3590
        26        2.0000           -0.5209024             -14.1745
        27        2.0000           -0.5121395             -13.9360 (HOMO)
        28                         -0.4021155             -10.9421 (LUMO)
        29                         -0.3324910              -9.0475
        30                         -0.2971245              -8.0852
        31                         -0.2450117              -6.6671
        32                         -0.1764151              -4.8005
        33                         -0.1702878              -4.6338
        34                         -0.1188027              -3.2328
        35                         -0.1155999              -3.1456
        36                         -0.1151776              -3.1341
        37                         -0.1111597              -3.0248
        38                         -0.1022888              -2.7834
       ...                                ...                  ...
        57                          0.6962390              18.9456
      -------------------------------------------------------------
                  HL-Gap            0.1100240 Eh            2.9939 eV

Wiberg/Mayer (AO) data.
largest (>0.10) Wiberg bond orders for each atom

     #   Z sym  total        # sym  WBO       # sym  WBO       # sym  WBO
 ---------------------------------------------------------------------------
     1   6 C    3.966 --     2 C    1.047    11 H    0.975    12 H    0.952
                            13 H    0.939
     2   6 C    3.834 --     3 N    1.541    10 O    1.084     1 C    1.047
     3   7 N    2.970 --     2 C    1.541     4 N    1.182
     4   7 N    3.675 --     6 C    1.439     3 N    1.182     5 C    0.908
     5   6 C    3.871 --    15 H    0.971    16 H    0.968    14 H    0.953
                             4 N    0.908
     6   6 C    3.856 --     4 N    1.439    10 O    1.124     7 C    0.983
     7   6 C    3.908 --     8 O    1.759     9 Cl   1.118     6 C    0.983
     8   8 O    2.060 --     7 C    1.759     9 Cl   0.177
     9  17 Cl   1.359 --     7 C    1.118     8 O    0.177
    10   8 O    2.377 --     6 C    1.124     2 C    1.084
    11   1 H    0.989 --     1 C    0.975
    12   1 H    0.987 --     1 C    0.952
    13   1 H    0.986 --     1 C    0.939
    14   1 H    0.986 --     5 C    0.953
    15   1 H    0.998 --     5 C    0.971
    16   1 H    0.990 --     5 C    0.968
 ---------------------------------------------------------------------------

           -------------------------------------------------
          | TOTAL ENERGY              -33.441099905848 Eh   |
          | GRADIENT NORM               0.000688445860 Eh/α |
          | HOMO-LUMO GAP               2.993905673598 eV   |
           -------------------------------------------------

 * finished run on 2023/06/20 at 14:54:32.145
