   * xtb version 6.5.1 (579679a) compiled by 'ehlert@majestix' on 2022-07-11
          program call               : /lustre/hpc/kemi/ree/PhD/git/ReactivityQM/dep/xtb-6.5.1/bin/xtb --gfn 1 /lustre/hpc/kemi/ree/PhD/git/ReactivityQM/calculations/RaltegravirCLI/reac02/conf06/RaltegravirCLI_reac02_conf06_gfn1.xyz --opt --vfukui --chrg 0 --uhf 0 --alpb DMSO

   ID    Z sym.   atoms
    1    6 C      1, 3-6, 9, 10, 13-17, 19-21, 23
    2    7 N      2, 7, 8, 12
    3    8 O      11, 22, 24
    4    9 F      18
    5    1 H      25-43

      * Solvation model:               ALPB
        Solvent                        DMSO
        Solvent mass                       7.8130E+01 g/mol
          :  Hamiltonian                  GFN1-xTB          :
 * total energy  :   -76.1717662 Eh     change       -0.6934897E-11 Eh
 * total energy  :   -76.1789433 Eh     change       -0.7177102E-02 Eh
 * total energy  :   -76.1808214 Eh     change       -0.1878173E-02 Eh
 * total energy  :   -76.1811823 Eh     change       -0.3608269E-03 Eh
 * total energy  :   -76.1814553 Eh     change       -0.2730688E-03 Eh
 * total energy  :   -76.1815678 Eh     change       -0.1124855E-03 Eh
 * total energy  :   -76.1816509 Eh     change       -0.8305779E-04 Eh
 * total energy  :   -76.1816991 Eh     change       -0.4824126E-04 Eh
 * total energy  :   -76.1817285 Eh     change       -0.2936822E-04 Eh
 * total energy  :   -76.1817550 Eh     change       -0.2647570E-04 Eh
 * total energy  :   -76.1817834 Eh     change       -0.2843878E-04 Eh
 * total energy  :   -76.1818033 Eh     change       -0.1988685E-04 Eh
 * total energy  :   -76.1818239 Eh     change       -0.2056093E-04 Eh
 * total energy  :   -76.1818366 Eh     change       -0.1275923E-04 Eh
 * total energy  :   -76.1818480 Eh     change       -0.1141350E-04 Eh
 * total energy  :   -76.1818591 Eh     change       -0.1107975E-04 Eh
 * total energy  :   -76.1818670 Eh     change       -0.7872409E-05 Eh
 * total energy  :   -76.1818721 Eh     change       -0.5150832E-05 Eh
 * total energy  :   -76.1818760 Eh     change       -0.3885281E-05 Eh
   *** GEOMETRY OPTIMIZATION CONVERGED AFTER 19 ITERATIONS ***

 final structure:
================
43
 xtb: 6.5.1 (579679a)
C           -3.82850809515411        1.68826625599348       -1.70167653350112
N           -2.59405357493632        1.33965897005471       -0.99399385684389
C           -2.40821478442346        0.19271982311245       -0.26278729064845
C           -3.50932207719564       -0.84660512833082       -0.08133302076332
C           -2.92331101995137       -2.08862196997901        0.61034281038865
C           -4.63027582138742       -0.26507318748713        0.79168781178229
N           -4.05970872655103       -1.22371773946747       -1.38242878800613
N           -1.29075633682148       -0.04765018338935        0.34634566299005
C           -0.22980707078984        0.81187940212097        0.29205360990366
C            0.97216898824909        0.33390365025740        1.05429944976170
O            0.91991380178730       -0.66009988706714        1.76984675409897
N            2.09528595457462        1.06442515504935        0.90998982947805
C            3.33930686297986        0.65318304584251        1.55141915286081
C            4.16279342646886       -0.21852556757413        0.62618356753034
C            5.33767121632566        0.26721503936015        0.05878919388684
C            6.09230890556002       -0.52647393133086       -0.79552378700770
C            5.64249601335346       -1.80456433397038       -1.06969073679821
F            6.36503883804596       -2.57913817166338       -1.89633674844752
C            4.47895970787726       -2.31895833595049       -0.52540347790891
C            3.74081189059150       -1.51411256917532        0.32965147672927
C           -0.35611089763941        1.97435627283789       -0.41066727543492
O            0.61067212185374        2.90985947648979       -0.52456712912360
C           -1.59623630997447        2.28930097728995       -1.09247242695993
O           -1.74290008062746        3.33684721803648       -1.72188037824783
H           -4.38762889062743        0.78827356286554       -1.94165285610537
H           -3.55584536798572        2.20956095524904       -2.61964866512401
H           -4.42640151482250        2.35442365031506       -1.07914694419721
H           -2.55415561109074       -1.83375995794195        1.60333334690307
H           -3.69752102870165       -2.84846850353004        0.70131973740521
H           -2.09927734357654       -2.49162238649168        0.02342733722340
H           -5.36735525502774       -1.03946293373703        0.99931361612926
H           -4.22089913207320        0.09229758618110        1.73595346222142
H           -5.13102521358804        0.56007000418900        0.29031175329713
H           -4.84756472045423       -1.83941502561895       -1.23909664274786
H           -3.36442493116527       -1.73014707795605       -1.91436911155833
H            2.14529123838550        1.82807254896947        0.25720344012754
H            3.89445389928117        1.55365033594500        1.82408315213957
H            3.08176730010543        0.10090719611023        2.46135584659109
H            5.67311531120224        1.27248566046475        0.28523180931804
H            7.00873260752510       -0.16132277371036       -1.23996863980356
H            4.16331687764867       -3.32621283552466       -0.76464397178501
H            2.82856162544032       -1.89739145354215        0.77270562858298
H            0.26863821730976        3.63998716670626       -1.07506816833492

          :  Hamiltonian                  GFN1-xTB          :
         :: total energy             -76.181876014394 Eh    ::
         :: gradient norm              0.000389691942 Eh/a0 ::
         :: HOMO-LUMO gap              2.791520727062 eV    ::
         :: SCC energy               -77.028051009972 Eh    ::
         :: -> Gsolv                  -0.048294080964 Eh    ::
         :: repulsion energy           0.873387480159 Eh    ::

    * Orbital Energies and Occupations

         #    Occupation            Energy/Eh            Energy/eV
      -------------------------------------------------------------
         1        2.0000           -0.8634230             -23.4949
       ...           ...                  ...                  ...
        52        2.0000           -0.4998319             -13.6011
        53        2.0000           -0.4931099             -13.4182
        54        2.0000           -0.4848563             -13.1936
        55        2.0000           -0.4727616             -12.8645
        56        2.0000           -0.4661742             -12.6852
        57        2.0000           -0.4647436             -12.6463
        58        2.0000           -0.4507312             -12.2650
        59        2.0000           -0.4468626             -12.1598
        60        2.0000           -0.4393717             -11.9559
        61        2.0000           -0.4344379             -11.8217
        62        2.0000           -0.4322335             -11.7617
        63        2.0000           -0.4203112             -11.4373
        64        2.0000           -0.4127963             -11.2328 (HOMO)
        65                         -0.3102098              -8.4412 (LUMO)
        66                         -0.2731376              -7.4325
        67                         -0.2726519              -7.4192
        68                         -0.2662050              -7.2438
        69                         -0.2258380              -6.1454
        70                         -0.1481517              -4.0314
        71                         -0.1445527              -3.9335
        72                         -0.1349693              -3.6727
        73                         -0.1219641              -3.3188
        74                         -0.1201824              -3.2703
        75                         -0.1146920              -3.1209
       ...                                ...                  ...
       134                          0.7156439              19.4737
      -------------------------------------------------------------
                  HL-Gap            0.1025865 Eh            2.7915 eV

Wiberg/Mayer (AO) data.
largest (>0.10) Wiberg bond orders for each atom

     #   Z sym  total        # sym  WBO       # sym  WBO       # sym  WBO
 ---------------------------------------------------------------------------
     1   6 C    3.920 --    26 H    0.976    27 H    0.976    25 H    0.968
                             2 N    0.927
     2   7 N    3.516 --     3 C    1.171    23 C    1.139     1 C    0.927
                            24 O    0.133
     3   6 C    3.923 --     8 N    1.566     2 N    1.171     4 C    0.975
     4   6 C    3.965 --     5 C    0.992     6 C    0.985     7 N    0.980
                             3 C    0.975
     5   6 C    3.995 --     4 C    0.992    29 H    0.986    30 H    0.984
                            28 H    0.983
     6   6 C    3.994 --    32 H    0.986     4 C    0.985    31 H    0.983
                            33 H    0.982
     7   7 N    2.993 --     4 C    0.980    35 H    0.941    34 H    0.939
     8   7 N    3.032 --     3 C    1.566     9 C    1.197
     9   6 C    3.964 --    21 C    1.507     8 N    1.197    10 C    0.991
    10   6 C    3.907 --    11 O    1.571    12 N    1.264     9 C    0.991
    11   8 O    1.878 --    10 C    1.571    12 N    0.170
    12   7 N    3.346 --    10 C    1.264    13 C    0.942    36 H    0.889
                            11 O    0.170
    13   6 C    3.949 --    14 C    0.994    37 H    0.977    38 H    0.967
                            12 N    0.942
    14   6 C    3.988 --    15 C    1.424    20 C    1.413    13 C    0.994
    15   6 C    3.994 --    16 C    1.438    14 C    1.424    39 H    0.971
                            19 C    0.109
    16   6 C    3.991 --    15 C    1.438    17 C    1.405    40 H    0.969
                            20 C    0.112
    17   6 C    3.860 --    16 C    1.405    19 C    1.397    18 F    0.924
    18   9 F    1.051 --    17 C    0.924
    19   6 C    3.992 --    20 C    1.449    17 C    1.397    41 H    0.970
                            15 C    0.109
    20   6 C    3.992 --    19 C    1.449    14 C    1.413    42 H    0.969
                            16 C    0.112
    21   6 C    3.916 --     9 C    1.507    23 C    1.093    22 O    1.069
    22   8 O    2.062 --    21 C    1.069    43 H    0.802
    23   6 C    3.918 --    24 O    1.534     2 N    1.139    21 C    1.093
    24   8 O    1.882 --    23 C    1.534     2 N    0.133
    25   1 H    1.029 --     1 C    0.968
    26   1 H    1.008 --     1 C    0.976
    27   1 H    1.004 --     1 C    0.976
    28   1 H    1.013 --     5 C    0.983
    29   1 H    1.004 --     5 C    0.986
    30   1 H    1.010 --     5 C    0.984
    31   1 H    1.000 --     6 C    0.983
    32   1 H    1.003 --     6 C    0.986
    33   1 H    1.004 --     6 C    0.982
    34   1 H    0.954 --     7 N    0.939
    35   1 H    0.956 --     7 N    0.941
    36   1 H    0.946 --    12 N    0.889
    37   1 H    1.003 --    13 C    0.977
    38   1 H    1.011 --    13 C    0.967
    39   1 H    1.000 --    15 C    0.971
    40   1 H    0.998 --    16 C    0.969
    41   1 H    0.999 --    19 C    0.970
    42   1 H    1.010 --    20 C    0.969
    43   1 H    0.846 --    22 O    0.802
 ---------------------------------------------------------------------------

           -------------------------------------------------
          | TOTAL ENERGY              -76.181876014394 Eh   |
          | GRADIENT NORM               0.000389691942 Eh/α |
          | HOMO-LUMO GAP               2.791520727062 eV   |
           -------------------------------------------------

 * finished run on 2023/06/20 at 14:51:55.293
