   * xtb version 6.5.1 (579679a) compiled by 'ehlert@majestix' on 2022-07-11
          program call               : /lustre/hpc/kemi/ree/PhD/git/ReactivityQM/dep/xtb-6.5.1/bin/xtb --gfn 1 /lustre/hpc/kemi/ree/PhD/git/ReactivityQM/calculations/R02deprot/reac01prodE04/conf16/R02deprot_reac01prodE04_conf16_gfn1.xyz --opt --vfukui --chrg -2 --uhf 0 --alpb DMSO

   ID    Z sym.   atoms
    1    6 C      1, 3, 5, 6, 8-11, 13, 15, 18, 19, 22, 24
    2    8 O      2, 4, 14, 20, 23, 25
    3    7 N      7, 12, 16, 17, 21
    4    1 H      26-42

      * Solvation model:               ALPB
        Solvent                        DMSO
        Solvent mass                       7.8130E+01 g/mol
          :  Hamiltonian                  GFN1-xTB          :
 * total energy  :   -83.5629360 Eh     change       -0.7901235E-10 Eh
 * total energy  :   -83.5789581 Eh     change       -0.1602205E-01 Eh
 * total energy  :   -83.5846266 Eh     change       -0.5668464E-02 Eh
 * total energy  :   -83.5857252 Eh     change       -0.1098622E-02 Eh
 * total energy  :   -83.5865333 Eh     change       -0.8080941E-03 Eh
 * total energy  :   -83.5871106 Eh     change       -0.5773674E-03 Eh
 * total energy  :   -83.5875977 Eh     change       -0.4871052E-03 Eh
 * total energy  :   -83.5881563 Eh     change       -0.5585536E-03 Eh
 * total energy  :   -83.5888143 Eh     change       -0.6579596E-03 Eh
 * total energy  :   -83.5894602 Eh     change       -0.6459164E-03 Eh
 * total energy  :   -83.5978039 Eh     change       -0.1530774E-04 Eh
 * total energy  :   -83.5978175 Eh     change       -0.1354433E-04 Eh
 * total energy  :   -83.5978297 Eh     change       -0.1220097E-04 Eh
 * total energy  :   -83.5978409 Eh     change       -0.1121680E-04 Eh
 * total energy  :   -83.5978515 Eh     change       -0.1057421E-04 Eh
 * total energy  :   -83.5978618 Eh     change       -0.1033325E-04 Eh
 * total energy  :   -83.5978722 Eh     change       -0.1034799E-04 Eh
 * total energy  :   -83.5978827 Eh     change       -0.1055935E-04 Eh
 * total energy  :   -83.5978935 Eh     change       -0.1078086E-04 Eh
 * total energy  :   -83.5979044 Eh     change       -0.1094592E-04 Eh

 final structure:
================
42
 xtb: 6.5.1 (579679a)
C           -4.50545057289271       -1.00676941213258       -1.17163023268094
O           -3.48028922132103       -0.38264731887735       -0.41456397353772
C           -3.61767042602145        0.96108528773694       -0.23039601352919
O           -4.58805431371600        1.56842691735573       -0.69678390182416
C           -2.39703006547620        1.65056430395162        0.36159849885980
C           -2.81254480361189        2.82918494997535        1.25971281439416
N           -1.54226068222731        0.74928238553012        1.09668485225284
C           -0.51187442586831        0.25729767816236        0.45214030320392
C            0.28273307912865       -0.79033522626948        1.25419670490942
C            0.44470667607879       -0.33772135031666        2.71058618202934
C           -0.48708145249895       -2.11904883382242        1.18464444261479
N            1.59156018084455       -0.92562121911023        0.62104071166200
C            2.56757851778272       -1.74866389680543        1.03644975378494
O            2.47844573893923       -2.52733841146808        1.99764227937994
C            3.81183695218582       -1.64596374850361        0.25890873321981
N            4.91325559484467       -2.34196260442551        0.42997726884316
N            5.81633864848212       -1.87919094263064       -0.48629672407426
C            5.22823512661722       -0.93886557879578       -1.15483217354732
C            5.80323492812593       -0.12280404960405       -2.24997351229553
O            3.96076274875324       -0.73404579939053       -0.74528957016726
N           -0.06089053623799        0.48966763687070       -0.76829300195216
C           -0.71218912434170        1.46024276256560       -1.55421404748046
O           -0.22389495136574        1.76428042110910       -2.68147981742169
C           -1.84302744917623        2.06376656990287       -0.98206856721003
O           -2.52746648698618        3.10266662088191       -1.64517495134622
H           -4.28812761515971       -2.07447999034711       -1.19463817702932
H           -4.53591552188619       -0.61443932218753       -2.19363991357173
H           -5.48338146221405       -0.84346985017291       -0.70649840450001
H           -1.93379105677186        3.42240385555389        1.51227180458737
H           -3.25600938293309        2.45129210545157        2.18083022873170
H           -3.53665714228278        3.46223918601049        0.74877206782333
H            1.05921449333533        0.56172467111188        2.75654247937712
H            0.90916988679414       -1.11535802592170        3.31603617424732
H           -0.53948048770593       -0.10814097834353        3.11967237470752
H           -0.54487852291177       -2.46199127663141        0.15107578513875
H           -1.49862812433745       -1.95870963334356        1.55870784433843
H           -0.00306931639487       -2.88781079051714        1.78647324962689
H            1.70379318962967       -0.37179010347862       -0.23041194052431
H            5.76192271035764        0.93566622377609       -1.99271359360668
H            5.23952765681287       -0.27049467718662       -3.17138570655097
H            6.83786169823443       -0.41384450643526       -2.41106416999607
H           -3.48051368262554        2.89171697078284       -1.66030016084511

          :  Hamiltonian                  GFN1-xTB          :
         :: total energy             -83.597915406657 Eh    ::
         :: gradient norm              0.000211542264 Eh/a0 ::
         :: HOMO-LUMO gap              0.102738617718 eV    ::
         :: SCC energy               -84.319347090957 Eh    ::
         :: -> Gsolv                  -0.272465892044 Eh    ::
         :: repulsion energy           0.748053807642 Eh    ::

    * Orbital Energies and Occupations

         #    Occupation            Energy/Eh            Energy/eV
      -------------------------------------------------------------
         1        2.0000           -0.8298623             -22.5817
       ...           ...                  ...                  ...
        56        2.0000           -0.4365403             -11.8789
        57        2.0000           -0.4313815             -11.7385
        58        2.0000           -0.4261740             -11.5968
        59        2.0000           -0.4256275             -11.5819
        60        2.0000           -0.4163796             -11.3303
        61        2.0000           -0.4095976             -11.1457
        62        2.0000           -0.4029357             -10.9644
        63        2.0000           -0.3927862             -10.6883
        64        2.0000           -0.3779996             -10.2859
        65        2.0000           -0.3469765              -9.4417
        66        2.0000           -0.3239394              -8.8148
        67        2.0000           -0.3186428              -8.6707
        68        1.7589           -0.2796446              -7.6095 (HOMO)
        69        0.2411           -0.2758690              -7.5068 (LUMO)
        70                         -0.2300408              -6.2597
        71                         -0.2031940              -5.5292
        72                         -0.1671965              -4.5496
        73                         -0.1584293              -4.3111
        74                         -0.1317598              -3.5854
        75                         -0.1141453              -3.1061
        76                         -0.0928815              -2.5274
        77                         -0.0890243              -2.4225
        78                         -0.0876551              -2.3852
        79                         -0.0783097              -2.1309
       ...                                ...                  ...
       134                          0.7138386              19.4245
      -------------------------------------------------------------
                  HL-Gap            0.0037756 Eh            0.1027 eV

Wiberg/Mayer (AO) data.
largest (>0.10) Wiberg bond orders for each atom

     #   Z sym  total        # sym  WBO       # sym  WBO       # sym  WBO
 ---------------------------------------------------------------------------
     1   6 C    3.905 --    26 H    0.987    28 H    0.981    27 H    0.981
                             2 O    0.929
     2   8 O    2.141 --     3 C    1.033     1 C    0.929
     3   6 C    3.776 --     4 O    1.528     2 O    1.033     5 C    0.927
                            24 C    0.163
     4   8 O    1.846 --     3 C    1.528
     5   6 C    3.969 --     7 N    1.001     6 C    0.975    24 C    0.935
                             3 C    0.927
     6   6 C    3.983 --    30 H    0.988    29 H    0.987    31 H    0.986
                             5 C    0.975
     7   7 N    2.870 --     8 C    1.493     5 C    1.001    21 N    0.174
     8   6 C    3.961 --     7 N    1.493    21 N    1.400     9 C    0.951
     9   6 C    3.923 --    10 C    0.992    11 C    0.983     8 C    0.951
                            12 N    0.924
    10   6 C    3.994 --     9 C    0.992    32 H    0.987    33 H    0.985
                            34 H    0.983
    11   6 C    3.994 --    35 H    0.987    36 H    0.986    37 H    0.985
                             9 C    0.983
    12   7 N    3.332 --    13 C    1.272     9 C    0.924    38 H    0.875
                            14 O    0.167
    13   6 C    3.864 --    14 O    1.486    12 N    1.272    15 C    1.033
    14   8 O    1.779 --    13 C    1.486    12 N    0.167
    15   6 C    3.766 --    16 N    1.534    13 C    1.033    20 O    1.015
    16   7 N    2.873 --    15 C    1.534    17 N    1.188
    17   7 N    2.979 --    18 C    1.623    16 N    1.188
    18   6 C    3.846 --    17 N    1.623    20 O    1.063    19 C    1.027
    19   6 C    3.991 --    18 C    1.027    41 H    0.985    39 H    0.968
                            40 H    0.967
    20   8 O    2.255 --    18 C    1.063    15 C    1.015
    21   7 N    2.898 --     8 C    1.400    22 C    1.075     7 N    0.174
    22   6 C    3.918 --    23 O    1.397    24 C    1.323    21 N    1.075
    23   8 O    1.663 --    22 C    1.397    24 C    0.107
    24   6 C    3.636 --    22 C    1.323    25 O    0.955     5 C    0.935
                             3 C    0.163    23 O    0.107
    25   8 O    1.896 --    24 C    0.955    42 H    0.847
    26   1 H    1.017 --     1 C    0.987
    27   1 H    1.014 --     1 C    0.981
    28   1 H    1.016 --     1 C    0.981
    29   1 H    1.016 --     6 C    0.987
    30   1 H    1.014 --     6 C    0.988
    31   1 H    1.017 --     6 C    0.986
    32   1 H    1.010 --    10 C    0.987
    33   1 H    1.017 --    10 C    0.985
    34   1 H    1.031 --    10 C    0.983
    35   1 H    1.010 --    11 C    0.987
    36   1 H    1.018 --    11 C    0.986
    37   1 H    1.016 --    11 C    0.985
    38   1 H    0.990 --    12 N    0.875
    39   1 H    0.999 --    19 C    0.968
    40   1 H    0.999 --    19 C    0.967
    41   1 H    1.002 --    19 C    0.985
    42   1 H    0.903 --    25 O    0.847
 ---------------------------------------------------------------------------

           -------------------------------------------------
          | TOTAL ENERGY              -83.597915406657 Eh   |
          | GRADIENT NORM               0.000211542264 Eh/α |
          | HOMO-LUMO GAP               0.102738617718 eV   |
           -------------------------------------------------

 * finished run on 2023/06/20 at 17:37:21.933
