                         Program Version 5.0.1 -  RELEASE  -
|  1> # ORCA input file
|  2> ! SP r2SCAN-3c CPCM
|  3>
|  4> %maxcore 1875.0
|  5> %pal nprocs 4 end
|  6> %cpcm smd true SMDsolvent "DMSO" end
|  7>
|  8> *xyz 0 1
|  9> C      -6.537686    0.938449   -1.882741
| 10> O      -5.259381    1.313479   -1.373953
| 11> C      -4.305224    0.369303   -1.417394
| 12> O      -4.516093   -0.742351   -1.869485
| 13> C      -3.013452    0.797861   -0.866816
| 14> C      -2.738391    2.091989   -0.380571
| 15> O      -3.498142    3.061854   -0.307927
| 16> C      -1.308247    2.322005    0.079955
| 17> O      -0.798187    3.362451    0.361684
| 18> N      -0.458236    1.096317    0.291400
| 19> C      -0.417424    0.868009    1.760982
| 20> C      -0.893063   -0.106656   -0.440979
| 21> C       0.097390   -1.230392   -0.670470
| 22> C       0.477919   -1.245365   -2.161600
| 23> C      -0.570790   -2.551689   -0.275138
| 24> N       1.321362   -1.112993    0.131822
| 25> C       2.241485   -0.134796    0.005034
| 26> O       2.042046    0.940397   -0.554655
| 27> C       3.503065   -0.476892    0.685002
| 28> N       3.773631   -1.606795    1.269875
| 29> N       5.031991   -1.498169    1.768018
| 30> C       5.454685   -0.307739    1.455662
| 31> C       6.767419    0.295858    1.770076
| 32> O       4.533485    0.382666    0.770412
| 33> N      -2.051158   -0.186669   -0.936969
| 34> H      -6.459989    0.646607   -2.933765
| 35> H      -7.184154    1.808933   -1.783206
| 36> H      -6.944784    0.101010   -1.309337
| 37> H       0.513544    1.322774   -0.030242
| 38> H      -1.426673    0.676098    2.117671
| 39> H      -0.007276    1.762413    2.224658
| 40> H       0.219412    0.011290    1.955997
| 41> H       1.179770   -2.054880   -2.351826
| 42> H       0.936947   -0.299407   -2.443597
| 43> H      -0.420686   -1.397754   -2.757700
| 44> H      -0.785381   -2.555309    0.792215
| 45> H       0.083693   -3.388539   -0.511122
| 46> H      -1.505397   -2.660475   -0.824598
| 47> H       1.637144   -1.965817    0.572622
| 48> H       7.321632   -0.360222    2.437339
| 49> H       7.337682    0.444249    0.852033
| 50> H       6.625513    1.268898    2.239889
| 51> **                         ****END OF INPUT****

CARTESIAN COORDINATES (ANGSTROEM)
---------------------------------
  C     -6.537686    0.938449   -1.882741
  O     -5.259381    1.313479   -1.373953
  C     -4.305224    0.369303   -1.417394
  O     -4.516093   -0.742351   -1.869485
  C     -3.013452    0.797861   -0.866816
  C     -2.738391    2.091989   -0.380571
  O     -3.498142    3.061854   -0.307927
  C     -1.308247    2.322005    0.079955
  O     -0.798187    3.362451    0.361684
  N     -0.458236    1.096317    0.291400
  C     -0.417424    0.868009    1.760982
  C     -0.893063   -0.106656   -0.440979
  C      0.097390   -1.230392   -0.670470
  C      0.477919   -1.245365   -2.161600
  C     -0.570790   -2.551689   -0.275138
  N      1.321362   -1.112993    0.131822
  C      2.241485   -0.134796    0.005034
  O      2.042046    0.940397   -0.554655
  C      3.503065   -0.476892    0.685002
  N      3.773631   -1.606795    1.269875
  N      5.031991   -1.498169    1.768018
  C      5.454685   -0.307739    1.455662
  C      6.767419    0.295858    1.770076
  O      4.533485    0.382666    0.770412
  N     -2.051158   -0.186669   -0.936969
  H     -6.459989    0.646607   -2.933765
  H     -7.184154    1.808933   -1.783206
  H     -6.944784    0.101010   -1.309337
  H      0.513544    1.322774   -0.030242
  H     -1.426673    0.676098    2.117671
  H     -0.007276    1.762413    2.224658
  H      0.219412    0.011290    1.955997
  H      1.179770   -2.054880   -2.351826
  H      0.936947   -0.299407   -2.443597
  H     -0.420686   -1.397754   -2.757700
  H     -0.785381   -2.555309    0.792215
  H      0.083693   -3.388539   -0.511122
  H     -1.505397   -2.660475   -0.824598
  H      1.637144   -1.965817    0.572622
  H      7.321632   -0.360222    2.437339
  H      7.337682    0.444249    0.852033
  H      6.625513    1.268898    2.239889

 Total Charge           Charge          ....    0
 Multiplicity           Mult            ....    1
 Number of Electrons    NEL             ....  184
 Basis Dimension        Dim             ....  615

ORBITAL ENERGIES
----------------

  NO   OCC          E(Eh)            E(eV)
   0   2.0000     -19.071916      -518.9732
   1   2.0000     -18.984440      -516.5929
   2   2.0000     -18.981480      -516.5123
   3   2.0000     -18.965168      -516.0685
   4   2.0000     -18.915040      -514.7044
   5   2.0000     -18.908793      -514.5344
   6   2.0000     -14.279031      -388.5522
   7   2.0000     -14.215104      -386.8127
   8   2.0000     -14.214575      -386.7982
   9   2.0000     -14.203552      -386.4983
  10   2.0000     -14.174393      -385.7048
  11   2.0000     -10.178647      -276.9751
  12   2.0000     -10.174227      -276.8548
  13   2.0000     -10.153146      -276.2812
  14   2.0000     -10.152386      -276.2605
  15   2.0000     -10.139344      -275.9056
  16   2.0000     -10.116903      -275.2949
  17   2.0000     -10.112772      -275.1825
  18   2.0000     -10.105677      -274.9894
  19   2.0000     -10.084156      -274.4038
  20   2.0000     -10.068055      -273.9657
  21   2.0000     -10.060330      -273.7555
  22   2.0000     -10.047616      -273.4095
  23   2.0000     -10.026704      -272.8405
  24   2.0000     -10.024920      -272.7919
  25   2.0000      -1.162849       -31.6427
  26   2.0000      -1.072195       -29.1759
  27   2.0000      -1.055362       -28.7179
  28   2.0000      -1.052091       -28.6289
  29   2.0000      -0.986953       -26.8563
  30   2.0000      -0.983857       -26.7721
  31   2.0000      -0.975359       -26.5409
  32   2.0000      -0.961542       -26.1649
  33   2.0000      -0.930148       -25.3106
  34   2.0000      -0.901634       -24.5347
  35   2.0000      -0.839648       -22.8480
  36   2.0000      -0.784147       -21.3377
  37   2.0000      -0.731610       -19.9081
  38   2.0000      -0.715477       -19.4691
  39   2.0000      -0.702139       -19.1062
  40   2.0000      -0.685203       -18.6453
  41   2.0000      -0.675442       -18.3797
  42   2.0000      -0.667396       -18.1608
  43   2.0000      -0.640415       -17.4266
  44   2.0000      -0.630017       -17.1436
  45   2.0000      -0.613871       -16.7043
  46   2.0000      -0.586898       -15.9703
  47   2.0000      -0.562458       -15.3053
  48   2.0000      -0.553172       -15.0526
  49   2.0000      -0.540487       -14.7074
  50   2.0000      -0.533236       -14.5101
  51   2.0000      -0.511387       -13.9155
  52   2.0000      -0.501105       -13.6358
  53   2.0000      -0.489768       -13.3273
  54   2.0000      -0.483744       -13.1634
  55   2.0000      -0.467716       -12.7272
  56   2.0000      -0.452220       -12.3055
  57   2.0000      -0.443457       -12.0671
  58   2.0000      -0.437627       -11.9084
  59   2.0000      -0.436711       -11.8835
  60   2.0000      -0.426724       -11.6118
  61   2.0000      -0.424309       -11.5460
  62   2.0000      -0.417943       -11.3728
  63   2.0000      -0.413674       -11.2566
  64   2.0000      -0.408765       -11.1231
  65   2.0000      -0.397725       -10.8227
  66   2.0000      -0.392533       -10.6814
  67   2.0000      -0.388328       -10.5670
  68   2.0000      -0.383167       -10.4265
  69   2.0000      -0.382512       -10.4087
  70   2.0000      -0.381017       -10.3680
  71   2.0000      -0.372784       -10.1440
  72   2.0000      -0.368224       -10.0199
  73   2.0000      -0.360949        -9.8219
  74   2.0000      -0.358006        -9.7418
  75   2.0000      -0.351045        -9.5524
  76   2.0000      -0.344422        -9.3722
  77   2.0000      -0.336447        -9.1552
  78   2.0000      -0.330907        -9.0044
  79   2.0000      -0.326453        -8.8832
  80   2.0000      -0.313719        -8.5367
  81   2.0000      -0.310146        -8.4395
  82   2.0000      -0.288338        -7.8461
  83   2.0000      -0.278708        -7.5840
  84   2.0000      -0.277460        -7.5501
  85   2.0000      -0.268894        -7.3170
  86   2.0000      -0.266541        -7.2530
  87   2.0000      -0.259072        -7.0497
  88   2.0000      -0.251759        -6.8507
  89   2.0000      -0.228636        -6.2215
  90   2.0000      -0.202834        -5.5194
  91   2.0000      -0.184957        -5.0329
  92   0.0000      -0.114301        -3.1103
  93   0.0000      -0.102798        -2.7973
  94   0.0000      -0.044479        -1.2103
  95   0.0000      -0.026885        -0.7316
  96   0.0000       0.004091         0.1113

MULLIKEN ATOMIC CHARGES
-----------------------
   0 C :   -0.323371
   1 O :   -0.152449
   2 C :    0.172057
   3 O :   -0.430953
   4 C :   -0.023959
   5 C :   -0.055642
   6 O :   -0.350622
   7 C :    0.260286
   8 O :   -0.313034
   9 N :   -0.155210
  10 C :   -0.328849
  11 C :    0.190266
  12 C :    0.120094
  13 C :   -0.590507
  14 C :   -0.581558
  15 N :   -0.122318
  16 C :   -0.058351
  17 O :   -0.523519
  18 C :    0.360737
  19 N :   -0.136715
  20 N :   -0.299196
  21 C :    0.420475
  22 C :   -0.633799
  23 O :   -0.023377
  24 N :   -0.160753
  25 H :    0.167904
  26 H :    0.169028
  27 H :    0.167972
  28 H :    0.461290
  29 H :    0.222202
  30 H :    0.213572
  31 H :    0.218842
  32 H :    0.194770
  33 H :    0.198568
  34 H :    0.190623
  35 H :    0.191397
  36 H :    0.190898
  37 H :    0.198933
  38 H :    0.340440
  39 H :    0.206551
  40 H :    0.206350
  41 H :    0.200930
Sum of atomic charges:    0.0000000

LOEWDIN ATOMIC CHARGES
----------------------
   0 C :   -0.048598
   1 O :   -0.591307
   2 C :    0.389399
   3 O :   -0.457645
   4 C :    0.134027
   5 C :    0.234919
   6 O :   -0.514660
   7 C :    0.437039
   8 O :   -0.323466
   9 N :   -0.646144
  10 C :   -0.057890
  11 C :    0.326662
  12 C :    0.107643
  13 C :   -0.336241
  14 C :   -0.335449
  15 N :   -0.571990
  16 C :    0.394799
  17 O :   -0.483917
  18 C :    0.416833
  19 N :   -0.346863
  20 N :   -0.348522
  21 C :    0.385864
  22 C :   -0.315168
  23 O :   -0.354645
  24 N :   -0.542666
  25 H :    0.176901
  26 H :    0.180705
  27 H :    0.176835
  28 H :    0.331903
  29 H :    0.209711
  30 H :    0.208827
  31 H :    0.212920
  32 H :    0.173421
  33 H :    0.179007
  34 H :    0.176856
  35 H :    0.175994
  36 H :    0.171843
  37 H :    0.184013
  38 H :    0.309304
  39 H :    0.192496
  40 H :    0.194767
  41 H :    0.192483

  Mayer bond orders larger than 0.100000
B(  0-C ,  1-O ) :   0.8408 B(  0-C , 25-H ) :   0.9596 B(  0-C , 26-H ) :   0.9675
B(  0-C , 27-H ) :   0.9591 B(  1-O ,  2-C ) :   1.1469 B(  1-O ,  4-C ) :  -0.1021
B(  2-C ,  3-O ) :   1.8999 B(  2-C ,  4-C ) :   1.1151 B(  4-C ,  5-C ) :   1.0404
B(  4-C , 24-N ) :   0.9428 B(  5-C ,  6-O ) :   1.9234 B(  5-C ,  7-C ) :   0.8953
B(  7-C ,  8-O ) :   2.1089 B(  7-C ,  9-N ) :   0.6697 B(  9-N , 10-C ) :   0.8394
B(  9-N , 11-C ) :   0.9775 B(  9-N , 28-H ) :   0.6632 B( 10-C , 29-H ) :   0.9315
B( 10-C , 30-H ) :   0.9325 B( 10-C , 31-H ) :   0.9195 B( 11-C , 12-C ) :   0.8566
B( 11-C , 24-N ) :   1.7188 B( 12-C , 13-C ) :   0.9065 B( 12-C , 14-C ) :   0.9045
B( 12-C , 15-N ) :   0.8937 B( 13-C , 32-H ) :   0.9652 B( 13-C , 33-H ) :   0.9544
B( 13-C , 34-H ) :   0.9571 B( 14-C , 35-H ) :   0.9624 B( 14-C , 36-H ) :   0.9658
B( 14-C , 37-H ) :   0.9629 B( 15-N , 16-C ) :   1.1234 B( 15-N , 38-H ) :   0.8785
B( 16-C , 17-O ) :   1.6966 B( 16-C , 18-C ) :   0.9219 B( 17-O , 28-H ) :   0.1138
B( 18-C , 19-N ) :   1.6556 B( 18-C , 21-C ) :   0.1231 B( 18-C , 23-O ) :   1.1320
B( 19-N , 20-N ) :   1.1860 B( 20-N , 21-C ) :   1.5669 B( 21-C , 22-C ) :   0.8274
B( 21-C , 23-O ) :   1.0715 B( 22-C , 39-H ) :   0.9870 B( 22-C , 40-H ) :   0.9352
B( 22-C , 41-H ) :   0.9482

Dispersion correction           -0.019680052
FINAL SINGLE POINT ENERGY     -1268.591314583209

DIPOLE MOMENT
-------------
                                X             Y             Z
Electronic contribution:      2.74210       8.83227       1.74182
Nuclear contribution   :      2.21857     -10.68083       0.24979
                        -----------------------------------------
Total Dipole Moment    :      4.96068      -1.84856       1.99162
                        -----------------------------------------
Magnitude (a.u.)       :      5.65615
Magnitude (Debye)      :     14.37679

Rotational constants in cm-1:     0.019580     0.003404     0.003059
Rotational constants in MHz :   587.002288   102.048522    91.706916

                             ****ORCA TERMINATED NORMALLY****
TOTAL RUN TIME: 0 days 0 hours 2 minutes 3 seconds 909 msec
