   * xtb version 6.5.1 (579679a) compiled by 'ehlert@majestix' on 2022-07-11
          program call               : /lustre/hpc/kemi/ree/PhD/git/ReactivityQM/dep/xtb-6.5.1/bin/xtb --gfn 1 /lustre/hpc/kemi/ree/PhD/git/ReactivityQM/calculations/R02oxygendeprot/reac01prodN18/conf10/R02oxygendeprot_reac01prodN18_conf10_gfn1.xyz --opt --vfukui --chrg 0 --uhf 0 --alpb DMSO

   ID    Z sym.   atoms
    1    6 C      1, 3, 5, 6, 8, 11-15, 17, 19, 22, 23
    2    8 O      2, 4, 7, 9, 18, 24
    3    7 N      10, 16, 20, 21, 25
    4    1 H      26-42

      * Solvation model:               ALPB
        Solvent                        DMSO
        Solvent mass                       7.8130E+01 g/mol
          :  Hamiltonian                  GFN1-xTB          :
 * total energy  :   -82.9276572 Eh     change       -0.5826450E-11 Eh
 * total energy  :   -82.9439106 Eh     change       -0.1625340E-01 Eh
 * total energy  :   -82.9513291 Eh     change       -0.7418463E-02 Eh
 * total energy  :   -82.9528418 Eh     change       -0.1512697E-02 Eh
 * total energy  :   -82.9534968 Eh     change       -0.6550437E-03 Eh
 * total energy  :   -82.9537451 Eh     change       -0.2483065E-03 Eh
 * total energy  :   -82.9538930 Eh     change       -0.1478717E-03 Eh
 * total energy  :   -82.9539964 Eh     change       -0.1034079E-03 Eh
 * total energy  :   -82.9540617 Eh     change       -0.6531384E-04 Eh
 * total energy  :   -82.9541069 Eh     change       -0.4515349E-04 Eh
 * total energy  :   -82.9546252 Eh     change       -0.8562090E-05 Eh
 * total energy  :   -82.9546403 Eh     change       -0.1506942E-04 Eh
 * total energy  :   -82.9546509 Eh     change       -0.1067301E-04 Eh
 * total energy  :   -82.9546644 Eh     change       -0.1348344E-04 Eh
 * total energy  :   -82.9546804 Eh     change       -0.1594361E-04 Eh
 * total energy  :   -82.9547015 Eh     change       -0.2110665E-04 Eh
 * total energy  :   -82.9547061 Eh     change       -0.4666151E-05 Eh
 * total energy  :   -82.9547124 Eh     change       -0.6254932E-05 Eh
 * total energy  :   -82.9547154 Eh     change       -0.3015906E-05 Eh
   *** GEOMETRY OPTIMIZATION CONVERGED AFTER 45 ITERATIONS ***

 final structure:
================
42
 xtb: 6.5.1 (579679a)
C           -6.53768585772484        0.93844945067675       -1.88274122251588
O           -5.25938095153423        1.31347886043283       -1.37395259742888
C           -4.30522421863184        0.36930303623525       -1.41739370817146
O           -4.51609285655858       -0.74235111021416       -1.86948538664989
C           -3.01345223005132        0.79786108778640       -0.86681615580224
C           -2.73839143107265        2.09198903186459       -0.38057106343502
O           -3.49814179397056        3.06185408341875       -0.30792700074625
C           -1.30824677568804        2.32200527236331        0.07995513159768
O           -0.79818670436650        3.36245143756481        0.36168395549251
N           -0.45823625082511        1.09631662756298        0.29139954291940
C           -0.41742438413898        0.86800917510750        1.76098175007457
C           -0.89306283634660       -0.10665639808894       -0.44097869178633
C            0.09738978526664       -1.23039248965550       -0.67046987194021
C            0.47791908060811       -1.24536526929780       -2.16159976854312
C           -0.57078981038559       -2.55168922457591       -0.27513840680904
N            1.32136189100046       -1.11299297408094        0.13182160945554
C            2.24148499373090       -0.13479576707136        0.00503375304499
O            2.04204570360286        0.94039710886052       -0.55465501342764
C            3.50306487335790       -0.47689191820265        0.68500209823984
N            3.77363115488293       -1.60679463212583        1.26987499220730
N            5.03199127141141       -1.49816927200222        1.76801757334785
C            5.45468458272715       -0.30773892356630        1.45566222003655
C            6.76741879735133        0.29585817909835        1.77007597286732
O            4.53348491324717        0.38266640253686        0.77041247249980
N           -2.05115755547209       -0.18666881159105       -0.93696946583619
H           -6.45998870853801        0.64660694723120       -2.93376536058661
H           -7.18415432878835        1.80893253347815       -1.78320589355700
H           -6.94478404997476        0.10101027089207       -1.30933652906175
H            0.51354428872315        1.32277369878653       -0.03024216315086
H           -1.42667340347019        0.67609769942078        2.11767077305897
H           -0.00727561339639        1.76241274677114        2.22465805114741
H            0.21941167947124        0.01129017834082        1.95599723153281
H            1.17976980613627       -2.05488010082230       -2.35182585724753
H            0.93694710288661       -0.29940657195157       -2.44359704135434
H           -0.42068574522537       -1.39775370109814       -2.75770023419104
H           -0.78538099119196       -2.55530878979531        0.79221539324180
H            0.08369268076822       -3.38853918152940       -0.51112171023153
H           -1.50539733911290       -2.66047544844038       -0.82459848293090
H            1.63714407024369       -1.96581688590015        0.57262200523522
H            7.32163180110116       -0.36022206359425        2.43733931704285
H            7.33768243085135        0.44424877640951        0.85203349715219
H            6.62551292909994        1.26889792875750        2.23988928519107

          :  Hamiltonian                  GFN1-xTB          :
         :: total energy             -82.954715407107 Eh    ::
         :: gradient norm              0.000494485513 Eh/a0 ::
         :: HOMO-LUMO gap              1.756168665896 eV    ::
         :: SCC energy               -83.729159849468 Eh    ::
         :: -> Gsolv                  -0.067520517985 Eh    ::
         :: repulsion energy           0.801768050132 Eh    ::

    * Orbital Energies and Occupations

         #    Occupation            Energy/Eh            Energy/eV
      -------------------------------------------------------------
         1        2.0000           -0.8718642             -23.7246
       ...           ...                  ...                  ...
        55        2.0000           -0.5114318             -13.9168
        56        2.0000           -0.5035992             -13.7036
        57        2.0000           -0.5022522             -13.6670
        58        2.0000           -0.4923076             -13.3964
        59        2.0000           -0.4825150             -13.1299
        60        2.0000           -0.4810276             -13.0894
        61        2.0000           -0.4761510             -12.9567
        62        2.0000           -0.4650430             -12.6545
        63        2.0000           -0.4624920             -12.5850
        64        2.0000           -0.4617826             -12.5657
        65        2.0000           -0.4551828             -12.3862
        66        2.0000           -0.4247171             -11.5571
        67        2.0000           -0.4089561             -11.1283 (HOMO)
        68                         -0.3444181              -9.3721 (LUMO)
        69                         -0.3274127              -8.9094
        70                         -0.2858920              -7.7795
        71                         -0.2638204              -7.1789
        72                         -0.2451311              -6.6704
        73                         -0.2141932              -5.8285
        74                         -0.1627018              -4.4273
        75                         -0.1477609              -4.0208
        76                         -0.1445151              -3.9325
        77                         -0.1365653              -3.7161
        78                         -0.1304155              -3.5488
       ...                                ...                  ...
       134                          0.7666332              20.8612
      -------------------------------------------------------------
                  HL-Gap            0.0645380 Eh            1.7562 eV

Wiberg/Mayer (AO) data.
largest (>0.10) Wiberg bond orders for each atom

     #   Z sym  total        # sym  WBO       # sym  WBO       # sym  WBO
 ---------------------------------------------------------------------------
     1   6 C    3.884 --    27 H    0.986    28 H    0.980    26 H    0.980
                             2 O    0.910
     2   8 O    2.182 --     3 C    1.083     1 C    0.910     4 O    0.121
     3   6 C    3.858 --     4 O    1.608     2 O    1.083     5 C    1.071
     4   8 O    1.881 --     3 C    1.608     2 O    0.121
     5   6 C    3.912 --     6 C    1.288    25 N    1.138     3 C    1.071
                             7 O    0.148
     6   6 C    3.943 --     7 O    1.547     5 C    1.288     8 C    0.934
     7   8 O    1.884 --     6 C    1.547     5 C    0.148
     8   6 C    3.795 --     9 O    1.824     6 C    0.934    10 N    0.850
     9   8 O    2.047 --     8 C    1.824
    10   7 N    3.592 --    11 C    0.891    12 C    0.879     8 C    0.850
                            29 H    0.783
    11   6 C    3.899 --    30 H    0.985    31 H    0.980    32 H    0.980
                            10 N    0.891
    12   6 C    3.903 --    25 N    1.755    13 C    0.982    10 N    0.879
    13   6 C    3.930 --    15 C    0.989    12 C    0.982    14 C    0.971
                            16 N    0.922
    14   6 C    3.984 --    33 H    0.984    35 H    0.983    34 H    0.982
                            13 C    0.971
    15   6 C    3.987 --    13 C    0.989    36 H    0.984    37 H    0.983
                            38 H    0.980
    16   7 N    3.350 --    17 C    1.265    13 C    0.922    39 H    0.890
                            18 O    0.164
    17   6 C    3.911 --    18 O    1.534    16 N    1.265    19 C    1.012
    18   8 O    1.940 --    17 C    1.534    16 N    0.164
    19   6 C    3.882 --    20 N    1.595    24 O    1.064    17 C    1.012
    20   7 N    3.022 --    19 C    1.595    21 N    1.214
    21   7 N    2.982 --    22 C    1.590    20 N    1.214
    22   6 C    3.867 --    21 N    1.590    24 O    1.088    23 C    1.033
    23   6 C    3.985 --    22 C    1.033    40 H    0.982    42 H    0.965
                            41 H    0.959
    24   8 O    2.336 --    22 C    1.088    19 C    1.064
    25   7 N    3.078 --    12 C    1.755     5 C    1.138
    26   1 H    1.010 --     1 C    0.980
    27   1 H    1.013 --     1 C    0.986
    28   1 H    1.010 --     1 C    0.980
    29   1 H    0.921 --    10 N    0.783
    30   1 H    0.994 --    11 C    0.985
    31   1 H    0.996 --    11 C    0.980
    32   1 H    1.004 --    11 C    0.980
    33   1 H    0.999 --    14 C    0.984
    34   1 H    1.006 --    14 C    0.982
    35   1 H    1.004 --    14 C    0.983
    36   1 H    1.000 --    15 C    0.984
    37   1 H    0.997 --    15 C    0.983
    38   1 H    1.008 --    15 C    0.980
    39   1 H    0.946 --    16 N    0.890
    40   1 H    0.998 --    23 C    0.982
    41   1 H    0.995 --    23 C    0.959
    42   1 H    0.995 --    23 C    0.965
 ---------------------------------------------------------------------------

           -------------------------------------------------
          | TOTAL ENERGY              -82.954715407107 Eh   |
          | GRADIENT NORM               0.000494485513 Eh/α |
          | HOMO-LUMO GAP               1.756168665896 eV   |
           -------------------------------------------------

 * finished run on 2023/06/21 at 17:38:13.474
