   * xtb version 6.5.1 (579679a) compiled by 'ehlert@majestix' on 2022-07-11
          program call               : /lustre/hpc/kemi/ree/PhD/git/ReactivityQM/dep/xtb-6.5.1/bin/xtb --gfn 1 /lustre/hpc/kemi/ree/PhD/git/ReactivityQM/calculations/R02deprot/reac01prodN13/conf16/R02deprot_reac01prodN13_conf16_gfn1.xyz --opt --vfukui --chrg 0 --uhf 0 --alpb DMSO

   ID    Z sym.   atoms
    1    6 C      1, 3, 5, 7-10, 12, 14, 15, 18, 19, 22, 24
    2    8 O      2, 4, 13, 20, 23, 25
    3    7 N      6, 11, 16, 17, 21
    4    1 H      26-42

      * Solvation model:               ALPB
        Solvent                        DMSO
        Solvent mass                       7.8130E+01 g/mol
          :  Hamiltonian                  GFN1-xTB          :
 * total energy  :   -82.9173779 Eh     change       -0.4027498E-09 Eh
 * total energy  :   -82.9307589 Eh     change       -0.1338107E-01 Eh
 * total energy  :   -82.9358723 Eh     change       -0.5113356E-02 Eh
 * total energy  :   -82.9368235 Eh     change       -0.9511753E-03 Eh
 * total energy  :   -82.9373972 Eh     change       -0.5737677E-03 Eh
 * total energy  :   -82.9376652 Eh     change       -0.2679979E-03 Eh
 * total energy  :   -82.9378798 Eh     change       -0.2145226E-03 Eh
 * total energy  :   -82.9380490 Eh     change       -0.1692187E-03 Eh
 * total energy  :   -82.9381744 Eh     change       -0.1253855E-03 Eh
 * total energy  :   -82.9382578 Eh     change       -0.8347054E-04 Eh
 * total energy  :   -82.9860634 Eh     change       -0.2104674E-04 Eh
 * total energy  :   -82.9861089 Eh     change       -0.4552401E-04 Eh
 * total energy  :   -82.9861387 Eh     change       -0.2979696E-04 Eh
 * total energy  :   -82.9861587 Eh     change       -0.2003950E-04 Eh
 * total energy  :   -82.9861699 Eh     change       -0.1115710E-04 Eh
 * total energy  :   -82.9861812 Eh     change       -0.1133554E-04 Eh
 * total energy  :   -82.9861943 Eh     change       -0.1307547E-04 Eh
 * total energy  :   -82.9862040 Eh     change       -0.9693073E-05 Eh
 * total energy  :   -82.9862084 Eh     change       -0.4400573E-05 Eh
   *** GEOMETRY OPTIMIZATION CONVERGED AFTER 156 ITERATIONS ***

 final structure:
================
42
 xtb: 6.5.1 (579679a)
C            6.68364394947066        0.98062769627620       -0.50635385777810
O            5.29459104685404        1.32891369936066       -0.39969260973558
C            4.45002849835631        0.31387450273605       -0.17485646033205
O            4.81483127640646       -0.83112476181595       -0.06573894039903
C            3.02471374995795        0.74625941694579       -0.07936768744745
N            2.15876866313684       -0.26860413342764        0.11594217664269
C            0.87475967952869       -0.01093484211999        0.20909604828499
C           -0.03888555556720       -1.19132148848980        0.46644501703111
C            0.29797511413192       -2.32226056555378       -0.51421460967704
C            0.17266459064587       -1.64128739902890        1.92173525882754
N           -1.42143609519128       -0.75070339527026        0.27492509303428
C           -2.47322693616256       -1.55059876597040        0.45756645747305
O           -2.42789696635137       -2.73156746871462        0.76242711173913
C           -3.84988746792923       -0.86489233865475        0.27271018760183
C           -4.62459598886531       -0.91474598476197        1.59037975471609
N           -4.59328860775141       -1.58938348318225       -0.75650341115182
N           -4.91154592503935       -0.81668668097418       -1.67185629439523
C           -4.43966229158022        0.47720437107353       -1.39392454119017
C           -4.65945491678549        1.54479577489855       -2.15679731863216
O           -3.74725710904470        0.45196454472010       -0.22281590194409
N            0.34000358226311        1.21818601309691        0.13628504963699
C            1.15700344711025        2.23407530268231       -0.04279733959051
O            0.65824005040992        3.46888424558371       -0.10491577436367
C            2.56208339747115        2.05301196870621       -0.16786944797358
O            3.31243866095725        3.14886482633410       -0.35132164376757
H            6.81534939242597        0.20971653348786       -1.26879662870192
H            7.04612757872813        0.61068546270861        0.45507902093965
H            7.21196945512734        1.88795459650267       -0.78768966358379
H            1.35792662395424       -2.55880974983908       -0.43210728545472
H            0.08415234715930       -2.00549856955965       -1.53410180855422
H           -0.28575368488597       -3.21178204158310       -0.28459103107331
H           -0.42413965852717       -2.52594435141519        2.13625943993656
H            1.22563801521078       -1.87368411781442        2.07390378579070
H           -0.11631129493277       -0.84071041176547        2.60081352339044
H           -1.56038852461531        0.23309860512935        0.08380171007422
H           -5.62857570518972       -0.52606095347135        1.43531215938839
H           -4.67609866666096       -1.94582020668683        1.93445340226438
H           -4.11320392093264       -0.30550153661362        2.33164975208787
H           -5.22006865542224        1.44963574283092       -3.07158018722860
H           -0.29942930586943        3.45904270436826        0.02025347666131
H           -4.29242477305757        2.51999791128714       -1.88496365997285
H            4.26062193105955        2.94112732799940       -0.41672932256797

          :  Hamiltonian                  GFN1-xTB          :
         :: total energy             -82.986208392931 Eh    ::
         :: gradient norm              0.000510135765 Eh/a0 ::
         :: HOMO-LUMO gap              2.487833666342 eV    ::
         :: SCC energy               -83.766932076733 Eh    ::
         :: -> Gsolv                  -0.054276391953 Eh    ::
         :: repulsion energy           0.806919835646 Eh    ::

    * Orbital Energies and Occupations

         #    Occupation            Energy/Eh            Energy/eV
      -------------------------------------------------------------
         1        2.0000           -0.8460837             -23.0231
       ...           ...                  ...                  ...
        55        2.0000           -0.5007749             -13.6268
        56        2.0000           -0.4997489             -13.5989
        57        2.0000           -0.4975445             -13.5389
        58        2.0000           -0.4966264             -13.5139
        59        2.0000           -0.4832274             -13.1493
        60        2.0000           -0.4788565             -13.0303
        61        2.0000           -0.4715094             -12.8304
        62        2.0000           -0.4606351             -12.5345
        63        2.0000           -0.4498014             -12.2397
        64        2.0000           -0.4405156             -11.9870
        65        2.0000           -0.4349586             -11.8358
        66        2.0000           -0.4319700             -11.7545
        67        2.0000           -0.4225035             -11.4969 (HOMO)
        68                         -0.3310773              -9.0091 (LUMO)
        69                         -0.3244840              -8.8297
        70                         -0.2826053              -7.6901
        71                         -0.2533153              -6.8931
        72                         -0.2402826              -6.5384
        73                         -0.2112750              -5.7491
        74                         -0.1558815              -4.2418
        75                         -0.1378031              -3.7498
        76                         -0.1261983              -3.4340
        77                         -0.1187942              -3.2326
        78                         -0.1169451              -3.1822
       ...                                ...                  ...
       134                          0.7265202              19.7696
      -------------------------------------------------------------
                  HL-Gap            0.0914262 Eh            2.4878 eV

Wiberg/Mayer (AO) data.
largest (>0.10) Wiberg bond orders for each atom

     #   Z sym  total        # sym  WBO       # sym  WBO       # sym  WBO
 ---------------------------------------------------------------------------
     1   6 C    3.860 --    28 H    0.986    26 H    0.980    27 H    0.980
                             2 O    0.883
     2   8 O    2.206 --     3 C    1.092     1 C    0.883     4 O    0.132
     3   6 C    3.845 --     4 O    1.677     2 O    1.092     5 C    0.997
     4   8 O    1.939 --     3 C    1.677     2 O    0.132
     5   6 C    3.968 --    24 C    1.395     6 N    1.293     3 C    0.997
     6   7 N    3.032 --     7 C    1.466     5 C    1.293
     7   6 C    3.944 --     6 N    1.466    21 N    1.308     8 C    0.985
     8   6 C    3.935 --     9 C    0.985     7 C    0.985    10 C    0.975
                            11 N    0.925
     9   6 C    3.991 --    30 H    0.986     8 C    0.985    29 H    0.983
                            31 H    0.982
    10   6 C    3.990 --    34 H    0.986    33 H    0.985    32 H    0.981
                             8 C    0.975
    11   7 N    3.368 --    12 C    1.313     8 C    0.925    35 H    0.878
                            13 O    0.176
    12   6 C    3.907 --    13 O    1.591    11 N    1.313    14 C    0.895
    13   8 O    1.905 --    12 C    1.591    11 N    0.176
    14   6 C    3.882 --    16 N    0.975    15 C    0.958    20 O    0.924
                            12 C    0.895
    15   6 C    3.986 --    36 H    0.983    38 H    0.983    37 H    0.983
                            14 C    0.958
    16   7 N    3.012 --    17 N    1.821    14 C    0.975    19 C    0.119
    17   7 N    3.021 --    16 N    1.821    18 C    1.067
    18   6 C    3.884 --    19 C    1.756    17 N    1.067    20 O    1.007
    19   6 C    3.976 --    18 C    1.756    39 H    0.978    41 H    0.976
                            16 N    0.119
    20   8 O    2.144 --    18 C    1.007    14 C    0.924
    21   7 N    3.042 --    22 C    1.414     7 C    1.308
    22   6 C    3.907 --    21 N    1.414    24 C    1.209    23 O    1.102
    23   8 O    2.082 --    22 C    1.102    40 H    0.816
    24   6 C    3.924 --     5 C    1.395    22 C    1.209    25 O    1.095
    25   8 O    2.069 --    24 C    1.095    42 H    0.802
    26   1 H    1.007 --     1 C    0.980
    27   1 H    1.005 --     1 C    0.980
    28   1 H    1.009 --     1 C    0.986
    29   1 H    1.013 --     9 C    0.983
    30   1 H    1.004 --     9 C    0.986
    31   1 H    1.011 --     9 C    0.982
    32   1 H    1.009 --    10 C    0.981
    33   1 H    1.006 --    10 C    0.985
    34   1 H    1.003 --    10 C    0.986
    35   1 H    0.960 --    11 N    0.878
    36   1 H    1.001 --    15 C    0.983
    37   1 H    1.005 --    15 C    0.983
    38   1 H    1.001 --    15 C    0.983
    39   1 H    1.000 --    19 C    0.978
    40   1 H    0.844 --    23 O    0.816
    41   1 H    0.997 --    19 C    0.976
    42   1 H    0.853 --    25 O    0.802
 ---------------------------------------------------------------------------

           -------------------------------------------------
          | TOTAL ENERGY              -82.986208392931 Eh   |
          | GRADIENT NORM               0.000510135765 Eh/α |
          | HOMO-LUMO GAP               2.487833666342 eV   |
           -------------------------------------------------

 * finished run on 2023/06/20 at 18:21:14.153
