   * xtb version 6.5.1 (579679a) compiled by 'ehlert@majestix' on 2022-07-11
          program call               : /lustre/hpc/kemi/ree/PhD/git/ReactivityQM/dep/xtb-6.5.1/bin/xtb --gfn 1 /lustre/hpc/kemi/ree/PhD/git/ReactivityQM/calculations/RaltegravirCLI/reac02prodN13/conf02/RaltegravirCLI_reac02prodN13_conf02_gfn1.xyz --opt --vfukui --chrg 1 --uhf 0 --alpb DMSO

   ID    Z sym.   atoms
    1    6 C      1, 3-6, 9, 10, 13-17, 19-21, 23, 24
    2    7 N      2, 7, 8, 12
    3    8 O      11, 22, 25
    4    9 F      18
    5    1 H      26-47

      * Solvation model:               ALPB
        Solvent                        DMSO
        Solvent mass                       7.8130E+01 g/mol
          :  Hamiltonian                  GFN1-xTB          :
 * total energy  :   -79.3990936 Eh     change       -0.9848122E-11 Eh
 * total energy  :   -79.4178153 Eh     change       -0.1872168E-01 Eh
 * total energy  :   -79.4279275 Eh     change       -0.1011215E-01 Eh
 * total energy  :   -79.4310499 Eh     change       -0.3122459E-02 Eh
 * total energy  :   -79.4333016 Eh     change       -0.2251652E-02 Eh
 * total energy  :   -79.4343195 Eh     change       -0.1017893E-02 Eh
 * total energy  :   -79.4349223 Eh     change       -0.6028455E-03 Eh
 * total energy  :   -79.4353832 Eh     change       -0.4608901E-03 Eh
 * total energy  :   -79.4357129 Eh     change       -0.3296715E-03 Eh
 * total energy  :   -79.4359922 Eh     change       -0.2793228E-03 Eh
 * total energy  :   -79.4934013 Eh     change       -0.1726213E-04 Eh
 * total energy  :   -79.4934157 Eh     change       -0.1446365E-04 Eh
 * total energy  :   -79.4934282 Eh     change       -0.1245851E-04 Eh
 * total energy  :   -79.4934321 Eh     change       -0.3920618E-05 Eh
 * total energy  :   -79.4934451 Eh     change       -0.1302859E-04 Eh
 * total energy  :   -79.4934518 Eh     change       -0.6674950E-05 Eh
 * total energy  :   -79.4934577 Eh     change       -0.5911847E-05 Eh
 * total energy  :   -79.4934660 Eh     change       -0.8267324E-05 Eh
 * total energy  :   -79.4934699 Eh     change       -0.3887377E-05 Eh
   *** GEOMETRY OPTIMIZATION CONVERGED AFTER 98 ITERATIONS ***

 final structure:
================
47
 xtb: 6.5.1 (579679a)
C           -3.70496131999229        2.18782755344330        0.85985944734842
N           -2.55678195077884        1.40157563401609        0.39898794841777
C           -2.60218056129442        0.10473821091686        0.08559387750455
C           -3.83715296986146       -0.67417961364686       -0.25607726288882
C           -3.45144971478039       -1.83218173779455       -1.19771646737491
C           -4.40347747203871       -1.23953696349394        1.06192595101798
N           -4.82827616409839        0.17969177229583       -0.87524109111696
N           -1.47645801517762       -0.62984139900406        0.19141526759863
C           -0.29208467964104       -0.12302087864042        0.20181466797841
C            0.86534698054041       -1.06448098746860        0.48852244600320
O            0.84493281841424       -2.19573389296729        0.04065447302211
N            1.82775638992084       -0.55168847851379        1.25982077192622
C            3.02969465061912       -1.31281657922107        1.56669445703673
C            4.20358989044791       -0.88220067162446        0.71149768139117
C            5.47578532986170       -1.34070372089624        1.05146555341140
C            6.57996768850004       -0.98778019926115        0.29019405093102
C            6.38489377262461       -0.17099683486256       -0.80993500546571
F            7.44751074653252        0.17535068806925       -1.55161424239963
C            5.13798340990241        0.30301783040394       -1.17187875364442
C            4.04276267959164       -0.06111303401273       -0.40011888691338
C           -0.14974945328619        1.30554988107546       -0.20710968919068
O            1.06754518203667        1.84511863622450        0.19472541899415
C           -1.31589143997884        2.09233124375351        0.38876484691567
C           -0.31626771465957        1.42188208786667       -1.74921568009968
O           -1.23383575451042        3.24022150975945        0.71156658174990
H           -3.74821156884940        2.12605771594280        1.94684036632282
H           -3.55375376702116        3.22120212933489        0.55352662743771
H           -4.61263150440568        1.78026262427591        0.41957974865861
H           -4.35180236742897       -2.38533074290625       -1.45561777899630
H           -3.00482022516058       -1.43625174932480       -2.10781774929825
H           -2.74380075962443       -2.50307850087248       -0.71315748170178
H           -4.73282109019683       -0.42664181420926        1.70587353958354
H           -3.64415164081944       -1.82566542065879        1.57673828754511
H           -5.25454766653984       -1.87662071245023        0.82824241424637
H           -5.69280637399251       -0.32928204991698       -0.99349625045331
H           -4.50973602159332        0.49175116140534       -1.78114025509578
H            1.79123238811841        0.41147530916131        1.54870143323417
H            3.26422487434739       -1.17325434293465        2.62545762079309
H            2.80785547223265       -2.37192365034319        1.39478884010013
H            5.60410053665596       -1.97807558066967        1.91847074977014
H            7.57243132381343       -1.33624691557086        0.54513605866288
H            5.02420643670669        0.94432620543708       -2.03572508914703
H            3.06070042243447        0.30941180194428       -0.66624842282148
H            1.01464582402247        2.81172339144099        0.24220608925610
H           -1.23463797987222        0.93776137651268       -2.07111298327336
H           -0.33613583179806        2.47457446744261       -2.02224780302107
H            0.54125819007625        0.94279324053815       -2.21731032395720

          :  Hamiltonian                  GFN1-xTB          :
         :: total energy             -79.493469874600 Eh    ::
         :: gradient norm              0.000467739963 Eh/a0 ::
         :: HOMO-LUMO gap              0.766932487299 eV    ::
         :: SCC energy               -80.387236722036 Eh    ::
         :: -> Gsolv                  -0.108916659904 Eh    ::
         :: repulsion energy           0.925219621846 Eh    ::

    * Orbital Energies and Occupations

         #    Occupation            Energy/Eh            Energy/eV
      -------------------------------------------------------------
         1        2.0000           -0.8851445             -24.0860
       ...           ...                  ...                  ...
        55        2.0000           -0.5260119             -14.3135
        56        2.0000           -0.5219244             -14.2023
        57        2.0000           -0.5131228             -13.9628
        58        2.0000           -0.5114528             -13.9173
        59        2.0000           -0.5096928             -13.8694
        60        2.0000           -0.5077978             -13.8179
        61        2.0000           -0.4968925             -13.5211
        62        2.0000           -0.4808132             -13.0836
        63        2.0000           -0.4761820             -12.9576
        64        2.0000           -0.4668176             -12.7028
        65        2.0000           -0.4574293             -12.4473
        66        2.0000           -0.4431295             -12.0582
        67        2.0000           -0.4414003             -12.0111 (HOMO)
        68        0.0000           -0.4132161             -11.2442 (LUMO)
        69                         -0.3374736              -9.1831
        70                         -0.3022241              -8.2239
        71                         -0.2794051              -7.6030
        72                         -0.2714606              -7.3868
        73                         -0.2563983              -6.9770
        74                         -0.1598260              -4.3491
        75                         -0.1558003              -4.2395
        76                         -0.1502233              -4.0878
        77                         -0.1455241              -3.9599
        78                         -0.1384822              -3.7683
       ...                                ...                  ...
       144                          0.6868471              18.6901
      -------------------------------------------------------------
                  HL-Gap            0.0281843 Eh            0.7669 eV

Wiberg/Mayer (AO) data.
largest (>0.10) Wiberg bond orders for each atom

     #   Z sym  total        # sym  WBO       # sym  WBO       # sym  WBO
 ---------------------------------------------------------------------------
     1   6 C    3.881 --    27 H    0.975    26 H    0.966    28 H    0.955
                             2 N    0.901
     2   7 N    3.545 --     3 C    1.348    23 C    1.020     1 C    0.901
     3   6 C    3.878 --     2 N    1.348     8 N    1.259     4 C    1.009
     4   6 C    3.957 --     3 C    1.009     7 N    0.999     5 C    0.961
                             6 C    0.937
     5   6 C    3.985 --    30 H    0.984    29 H    0.981    31 H    0.981
                             4 C    0.961
     6   6 C    3.978 --    33 H    0.985    32 H    0.984    34 H    0.975
                             4 C    0.937
     7   7 N    3.019 --     4 C    0.999    36 H    0.930    35 H    0.924
     8   7 N    3.148 --     9 C    1.645     3 C    1.259
     9   6 C    3.896 --     8 N    1.645    21 C    1.002    10 C    0.943
    10   6 C    3.921 --    11 O    1.596    12 N    1.306     9 C    0.943
    11   8 O    1.920 --    10 C    1.596    12 N    0.199
    12   7 N    3.403 --    10 C    1.306    13 C    0.938    37 H    0.883
                            11 O    0.199
    13   6 C    3.930 --    14 C    0.991    38 H    0.967    39 H    0.960
                            12 N    0.938
    14   6 C    3.984 --    20 C    1.422    15 C    1.410    13 C    0.991
    15   6 C    3.993 --    16 C    1.450    14 C    1.410    40 H    0.971
                            19 C    0.111
    16   6 C    3.991 --    15 C    1.450    17 C    1.395    41 H    0.969
                            20 C    0.109
    17   6 C    3.862 --    19 C    1.404    16 C    1.395    18 F    0.928
    18   9 F    1.057 --    17 C    0.928
    19   6 C    3.992 --    20 C    1.438    17 C    1.404    42 H    0.969
                            15 C    0.111
    20   6 C    3.994 --    19 C    1.438    14 C    1.422    43 H    0.968
                            16 C    0.109
    21   6 C    3.933 --     9 C    1.002    22 O    0.988    23 C    0.922
                            24 C    0.896
    22   8 O    1.932 --    21 C    0.988    44 H    0.812
    23   6 C    3.862 --    25 O    1.772     2 N    1.020    21 C    0.922
    24   6 C    3.970 --    45 H    0.984    46 H    0.978    47 H    0.976
                            21 C    0.896
    25   8 O    2.039 --    23 C    1.772
    26   1 H    0.994 --     1 C    0.966
    27   1 H    0.997 --     1 C    0.975
    28   1 H    1.018 --     1 C    0.955
    29   1 H    0.998 --     5 C    0.981
    30   1 H    0.999 --     5 C    0.984
    31   1 H    1.005 --     5 C    0.981
    32   1 H    0.999 --     6 C    0.984
    33   1 H    1.000 --     6 C    0.985
    34   1 H    0.993 --     6 C    0.975
    35   1 H    0.939 --     7 N    0.924
    36   1 H    0.944 --     7 N    0.930
    37   1 H    0.938 --    12 N    0.883
    38   1 H    1.001 --    13 C    0.967
    39   1 H    1.007 --    13 C    0.960
    40   1 H    0.997 --    15 C    0.971
    41   1 H    0.997 --    16 C    0.969
    42   1 H    0.997 --    19 C    0.969
    43   1 H    1.009 --    20 C    0.968
    44   1 H    0.835 --    22 O    0.812
    45   1 H    0.996 --    24 C    0.984
    46   1 H    0.994 --    24 C    0.978
    47   1 H    0.996 --    24 C    0.976
 ---------------------------------------------------------------------------

           -------------------------------------------------
          | TOTAL ENERGY              -79.493469874600 Eh   |
          | GRADIENT NORM               0.000467739963 Eh/α |
          | HOMO-LUMO GAP               0.766932487299 eV   |
           -------------------------------------------------

 * finished run on 2023/06/20 at 15:34:57.321
