   * xtb version 6.5.1 (579679a) compiled by 'ehlert@majestix' on 2022-07-11
          program call               : /lustre/hpc/kemi/ree/PhD/git/ReactivityQM/dep/xtb-6.5.1/bin/xtb --gfn 1 /lustre/hpc/kemi/ree/PhD/git/ReactivityQM/calculations/R01/reac02prodE07/conf15/R01_reac02prodE07_conf15_gfn1.xyz --opt --vfukui --chrg -1 --uhf 0 --alpb DMSO

   ID    Z sym.   atoms
    1    6 C      1, 3, 5, 6, 8, 10, 12-15
    2    8 O      2, 4, 7, 9
    3    7 N      11, 16, 17
    4    1 H      18-33

      * Solvation model:               ALPB
        Solvent                        DMSO
        Solvent mass                       7.8130E+01 g/mol
          :  Hamiltonian                  GFN1-xTB          :
 * total energy  :   -58.5020132 Eh     change       -0.2380318E-11 Eh
 * total energy  :   -58.5184810 Eh     change       -0.1646774E-01 Eh
 * total energy  :   -58.5230740 Eh     change       -0.4593040E-02 Eh
 * total energy  :   -58.5238108 Eh     change       -0.7367273E-03 Eh
 * total energy  :   -58.5242276 Eh     change       -0.4168906E-03 Eh
 * total energy  :   -58.5243378 Eh     change       -0.1101342E-03 Eh
 * total energy  :   -58.5244140 Eh     change       -0.7622258E-04 Eh
 * total energy  :   -58.5244845 Eh     change       -0.7051402E-04 Eh
 * total energy  :   -58.5245595 Eh     change       -0.7497065E-04 Eh
 * total energy  :   -58.5246235 Eh     change       -0.6397736E-04 Eh
 * total energy  :   -58.5274839 Eh     change       -0.1155915E-04 Eh
 * total energy  :   -58.5274921 Eh     change       -0.8273615E-05 Eh
 * total energy  :   -58.5275034 Eh     change       -0.1131517E-04 Eh
 * total energy  :   -58.5275248 Eh     change       -0.2137589E-04 Eh
 * total energy  :   -58.5274858 Eh     change        0.3900899E-04 Eh
 * total energy  :   -58.5275368 Eh     change       -0.5094549E-04 Eh
 * total energy  :   -58.5275461 Eh     change       -0.9330462E-05 Eh
 * total energy  :   -58.5275513 Eh     change       -0.5202951E-05 Eh
 * total energy  :   -58.5275551 Eh     change       -0.3782853E-05 Eh
   *** GEOMETRY OPTIMIZATION CONVERGED AFTER 46 ITERATIONS ***

 final structure:
================
33
 xtb: 6.5.1 (579679a)
C            3.42363564109477       -2.97815628908809       -1.26341133643440
O            2.25149476436035       -2.25823243668869       -0.94214364926781
C            2.44016432517814       -0.87910238166423       -0.74915058467598
O            3.61628247797868       -0.40853882440124       -0.87649173945709
C            1.31795199396751       -0.15113021428425       -0.41832154298088
C            1.40257401830003        1.29799623867550       -0.22793296457608
O            2.59807755996528        1.91080187537783       -0.48425766145933
C            0.31008391164687        1.98681430650052        0.14053799111033
O            0.20825281527833        3.36175395874649        0.30353144676093
C            0.96034563669112        3.91791394820033        1.37451081961462
N           -0.89828737371403        1.27650134526931        0.48284672947617
C           -0.96737492049369       -0.05230567313654        0.01556257295234
C           -2.34499727846339       -0.69480973464516        0.09233535811023
C           -2.73896499942568       -0.87313054905878        1.56522074097099
C           -2.32279324301807       -2.05178266317656       -0.62169328594015
N           -3.36566223464590        0.14083454310060       -0.55035385060078
N            0.03707311056963       -0.74251500485544       -0.35024728303233
H            4.18235496318643       -2.88352205052658       -0.47577864421167
H            3.86220480923507       -2.63119221029777       -2.20825295259403
H            3.14248091108518       -4.02850014298351       -1.36457222773240
H            3.23803557386857        1.14644567742917       -0.68096384413708
H            2.03799223121848        3.79738239657781        1.20773405977030
H            0.69339612616275        3.45435453476291        2.33234398036010
H            0.72012692891903        4.98229984955998        1.41407304378707
H           -1.72939096825126        1.82372434645392        0.30544503958798
H           -2.05704165132809       -1.56673983513552        2.05787980017255
H           -2.69488028564048        0.08561449477445        2.08199341105732
H           -3.75379644842469       -1.26416320073439        1.63725467308723
H           -1.59604516205263       -2.71428972913052       -0.15074646666605
H           -2.04228558236685       -1.91791681246231       -1.66683103423723
H           -3.31039970902751       -2.51010931138382       -0.57781290688117
H           -3.02672411855481        0.49189168022984       -1.43668642645441
H           -3.59388282329864        0.93180686799395        0.03437873452173

          :  Hamiltonian                  GFN1-xTB          :
         :: total energy             -58.527555070349 Eh    ::
         :: gradient norm              0.000704641794 Eh/a0 ::
         :: HOMO-LUMO gap              2.180023202325 eV    ::
         :: SCC energy               -59.061462715810 Eh    ::
         :: -> Gsolv                  -0.100990180217 Eh    ::
         :: repulsion energy           0.551898391497 Eh    ::

    * Orbital Energies and Occupations

         #    Occupation            Energy/Eh            Energy/eV
      -------------------------------------------------------------
         1        2.0000           -0.7636518             -20.7800
       ...           ...                  ...                  ...
        36        2.0000           -0.4714982             -12.8301
        37        2.0000           -0.4664615             -12.6931
        38        2.0000           -0.4631339             -12.6025
        39        2.0000           -0.4589377             -12.4883
        40        2.0000           -0.4523652             -12.3095
        41        2.0000           -0.4328246             -11.7778
        42        2.0000           -0.4316872             -11.7468
        43        2.0000           -0.4136517             -11.2560
        44        2.0000           -0.4018223             -10.9341
        45        2.0000           -0.3873697             -10.5409
        46        2.0000           -0.3749245             -10.2022
        47        2.0000           -0.3695124             -10.0549
        48        2.0000           -0.2927400              -7.9659 (HOMO)
        49                         -0.2126256              -5.7858 (LUMO)
        50                         -0.1812798              -4.9329
        51                         -0.1138015              -3.0967
        52                         -0.1087916              -2.9604
        53                         -0.1079178              -2.9366
        54                         -0.1062260              -2.8906
        55                         -0.0911458              -2.4802
        56                         -0.0849776              -2.3124
        57                         -0.0604327              -1.6445
        58                         -0.0549926              -1.4964
        59                         -0.0486967              -1.3251
       ...                                ...                  ...
       100                          0.7101418              19.3239
      -------------------------------------------------------------
                  HL-Gap            0.0801144 Eh            2.1800 eV

Wiberg/Mayer (AO) data.
largest (>0.10) Wiberg bond orders for each atom

     #   Z sym  total        # sym  WBO       # sym  WBO       # sym  WBO
 ---------------------------------------------------------------------------
     1   6 C    3.919 --    20 H    0.987    19 H    0.981    18 H    0.980
                             2 O    0.951
     2   8 O    2.062 --     1 C    0.951     3 C    0.936
     3   6 C    3.872 --     5 C    1.431     4 O    1.333     2 O    0.936
     4   8 O    1.794 --     3 C    1.333    21 H    0.131     5 C    0.122
     5   6 C    3.863 --     3 C    1.431     6 C    1.069    17 N    1.054
                             4 O    0.122
     6   6 C    3.915 --     8 C    1.649     5 C    1.069     7 O    1.039
     7   8 O    1.976 --     6 C    1.039    21 H    0.744
     8   6 C    3.820 --     6 C    1.649    11 N    0.957     9 O    0.954
     9   8 O    2.022 --     8 C    0.954    10 C    0.933
    10   6 C    3.917 --    24 H    0.986    23 H    0.983    22 H    0.982
                             9 O    0.933
    11   7 N    3.194 --    12 C    1.044     8 C    0.957    25 H    0.920
                            17 N    0.112
    12   6 C    3.944 --    17 N    1.727    11 N    1.044    13 C    0.968
    13   6 C    3.964 --    15 C    0.999    14 C    0.989    16 N    0.973
                            12 C    0.968
    14   6 C    3.994 --    13 C    0.989    26 H    0.987    28 H    0.986
                            27 H    0.985
    15   6 C    3.997 --    13 C    0.999    31 H    0.988    29 H    0.986
                            30 H    0.985
    16   7 N    2.951 --    13 C    0.973    32 H    0.948    33 H    0.946
    17   7 N    3.029 --    12 C    1.727     5 C    1.054    11 N    0.112
    18   1 H    1.021 --     1 C    0.980
    19   1 H    1.020 --     1 C    0.981
    20   1 H    1.020 --     1 C    0.987
    21   1 H    0.889 --     7 O    0.744     4 O    0.131
    22   1 H    1.024 --    10 C    0.982
    23   1 H    1.014 --    10 C    0.983
    24   1 H    1.019 --    10 C    0.986
    25   1 H    0.967 --    11 N    0.920
    26   1 H    1.007 --    14 C    0.987
    27   1 H    1.009 --    14 C    0.985
    28   1 H    1.006 --    14 C    0.986
    29   1 H    1.019 --    15 C    0.986
    30   1 H    1.013 --    15 C    0.985
    31   1 H    1.011 --    15 C    0.988
    32   1 H    0.965 --    16 N    0.948
    33   1 H    0.964 --    16 N    0.946
 ---------------------------------------------------------------------------

           -------------------------------------------------
          | TOTAL ENERGY              -58.527555070349 Eh   |
          | GRADIENT NORM               0.000704641794 Eh/α |
          | HOMO-LUMO GAP               2.180023202325 eV   |
           -------------------------------------------------

 * finished run on 2023/06/20 at 15:01:51.606
