   * xtb version 6.5.1 (579679a) compiled by 'ehlert@majestix' on 2022-07-11
          program call               : /lustre/hpc/kemi/ree/PhD/git/ReactivityQM/dep/xtb-6.5.1/bin/xtb --gfn 1 /lustre/hpc/kemi/ree/PhD/git/ReactivityQM/calculations/R03/reac02prodE04/conf04/R03_reac02prodE04_conf04_gfn1.xyz --opt --vfukui --chrg -1 --uhf 0 --alpb DMSO

   ID    Z sym.   atoms
    1    6 C      1, 3, 5, 6, 8-11, 13, 15, 18, 19, 22, 23, 25
    2    8 O      2, 4, 14, 20, 24, 26
    3    7 N      7, 12, 16, 17, 21
    4    1 H      27-46

      * Solvation model:               ALPB
        Solvent                        DMSO
        Solvent mass                       7.8130E+01 g/mol
          :  Hamiltonian                  GFN1-xTB          :
 * total energy  :   -87.0237621 Eh     change       -0.8171241E-11 Eh
 * total energy  :   -87.0391676 Eh     change       -0.1540551E-01 Eh
 * total energy  :   -87.0454306 Eh     change       -0.6263011E-02 Eh
 * total energy  :   -87.0466423 Eh     change       -0.1211656E-02 Eh
 * total energy  :   -87.0472761 Eh     change       -0.6338834E-03 Eh
 * total energy  :   -87.0474629 Eh     change       -0.1867966E-03 Eh
 * total energy  :   -87.0475743 Eh     change       -0.1113195E-03 Eh
 * total energy  :   -87.0476516 Eh     change       -0.7729412E-04 Eh
 * total energy  :   -87.0477329 Eh     change       -0.8137384E-04 Eh
 * total energy  :   -87.0478316 Eh     change       -0.9863056E-04 Eh
 * total energy  :   -87.0508613 Eh     change       -0.3553211E-04 Eh
 * total energy  :   -87.0508858 Eh     change       -0.2445085E-04 Eh
 * total energy  :   -87.0509011 Eh     change       -0.1534004E-04 Eh
 * total energy  :   -87.0509251 Eh     change       -0.2405004E-04 Eh
 * total energy  :   -87.0509348 Eh     change       -0.9676335E-05 Eh
 * total energy  :   -87.0509560 Eh     change       -0.2118029E-04 Eh
 * total energy  :   -87.0509615 Eh     change       -0.5498229E-05 Eh
 * total energy  :   -87.0509712 Eh     change       -0.9648262E-05 Eh
 * total energy  :   -87.0509758 Eh     change       -0.4674313E-05 Eh
   *** GEOMETRY OPTIMIZATION CONVERGED AFTER 50 ITERATIONS ***

 final structure:
================
46
 xtb: 6.5.1 (579679a)
C           -6.02166727412257        0.62808176847000        1.08869435128658
O           -4.92802989839705        1.21112739757307        0.38437442414580
C           -3.70518501670213        0.71542021639231        0.65720019297090
O           -3.53684317032690       -0.16958499605348        1.47443786696791
C           -2.61899193319498        1.27762817616925       -0.27382404780491
C           -2.86129085289594        2.75666911579841       -0.59893299000272
N           -1.33052209399265        1.14272769593718        0.38650165939317
C           -0.65397684568870        0.05445375267881        0.27104102194133
C            0.61464004671470        0.00271146083961        1.13415664571226
C            0.85691096847813        1.37940761361070        1.77213680423893
C            0.47959977928155       -1.04812096164729        2.24460719432218
N            1.75405879096449       -0.28718714942717        0.24961727712706
C            3.01129013409777       -0.48995501821737        0.68617355107380
O            3.35609636295013       -0.63805712410819        1.84758356120333
C            3.96347618156360       -0.53101012495146       -0.45792525970367
N            3.65960514310735       -0.36554033553380       -1.71056920517677
N            4.82522879449428       -0.45453738961890       -2.41357134050011
C            5.76478239499796       -0.66601082425615       -1.54447533275806
C            7.21259813328879       -0.82867854531130       -1.80203956082037
O            5.28606585009705       -0.72458744629461       -0.29210360478845
N           -0.97883847079641       -0.97472687340780       -0.55595545844519
C           -0.34717463924987       -2.28532955039340       -0.54536244185912
C           -1.97069711846584       -0.75335256263627       -1.61812428953596
O           -2.01939719151299       -1.57985746264782       -2.57480344544681
C           -2.69973571107858        0.38470387198589       -1.47687191234537
O           -3.67388076212731        0.72396948909582       -2.44684376373113
H           -5.88009352594473        0.73397038386594        2.16790706013499
H           -6.11381908078885       -0.43382375360786        0.84396271771088
H           -6.91899842614465        1.16077329067823        0.77920102782352
H           -2.04893598961831        3.12335110166644       -1.22552254854310
H           -2.88806148913560        3.34165989323932        0.31967300923443
H           -3.80321817805361        2.88063928994229       -1.13075504858181
H            1.77781169470395        1.36039080058903        2.35256271331859
H            0.93627231224161        2.14333002717844        1.00031175221005
H            0.02557763270987        1.63128959569813        2.42848560937664
H            1.20792031609925       -0.86272653924005        3.03209767209468
H            0.64044527341203       -2.05429491302072        1.86615444036097
H           -0.52131196282518       -0.98479178882690        2.67169845020912
H            1.64588316604762       -0.05298566278630       -0.72831678259065
H            7.55637602426998       -1.78687240224403       -1.41448635818978
H            7.40151586559506       -0.77848152089054       -2.87120833107950
H            7.77126627668051       -0.04129379097945       -1.29668576935349
H           -0.60263246027587       -2.78945069315110       -1.48082660908382
H           -0.72270775508542       -2.88595747059180        0.28764724933599
H            0.73757620145568       -2.21467516685965       -0.47676241773041
H           -3.63898849682774        0.02958412529832       -3.12149273412720

          :  Hamiltonian                  GFN1-xTB          :
         :: total energy             -87.050975825297 Eh    ::
         :: gradient norm              0.000959596135 Eh/a0 ::
         :: HOMO-LUMO gap              0.251555114372 eV    ::
         :: SCC energy               -87.849603813320 Eh    ::
         :: -> Gsolv                  -0.114896407670 Eh    ::
         :: repulsion energy           0.828607013780 Eh    ::

    * Orbital Energies and Occupations

         #    Occupation            Energy/Eh            Energy/eV
      -------------------------------------------------------------
         1        2.0000           -0.8575067             -23.3339
       ...           ...                  ...                  ...
        59        2.0000           -0.4753382             -12.9346
        60        2.0000           -0.4681366             -12.7386
        61        2.0000           -0.4635100             -12.6127
        62        2.0000           -0.4564873             -12.4217
        63        2.0000           -0.4540924             -12.3565
        64        2.0000           -0.4525034             -12.3132
        65        2.0000           -0.4435585             -12.0698
        66        2.0000           -0.4360623             -11.8659
        67        2.0000           -0.4334277             -11.7942
        68        2.0000           -0.3935759             -10.7097
        69        2.0000           -0.3847068             -10.4684
        70        2.0000           -0.3745639             -10.1924
        71        1.9847           -0.3114100              -8.4739 (HOMO)
        72        0.0153           -0.3021655              -8.2223 (LUMO)
        73                         -0.2517187              -6.8496
        74                         -0.2363681              -6.4319
        75                         -0.2198886              -5.9835
        76                         -0.1903562              -5.1799
        77                         -0.1402818              -3.8173
        78                         -0.1327929              -3.6135
        79                         -0.1287408              -3.5032
        80                         -0.1174763              -3.1967
        81                         -0.1067365              -2.9044
        82                         -0.1024520              -2.7879
       ...                                ...                  ...
       144                          0.7309779              19.8909
      -------------------------------------------------------------
                  HL-Gap            0.0092445 Eh            0.2516 eV

Wiberg/Mayer (AO) data.
largest (>0.10) Wiberg bond orders for each atom

     #   Z sym  total        # sym  WBO       # sym  WBO       # sym  WBO
 ---------------------------------------------------------------------------
     1   6 C    3.890 --    29 H    0.987    27 H    0.981    28 H    0.981
                             2 O    0.911
     2   8 O    2.177 --     3 C    1.075     1 C    0.911     4 O    0.117
     3   6 C    3.810 --     4 O    1.638     2 O    1.075     5 C    0.916
     4   8 O    1.896 --     3 C    1.638     2 O    0.117
     5   6 C    3.966 --     6 C    0.988     7 N    0.975    25 C    0.958
                             3 C    0.916
     6   6 C    3.996 --    31 H    0.988     5 C    0.988    30 H    0.987
                            32 H    0.985
     7   7 N    2.975 --     8 C    1.643     5 C    0.975    21 N    0.175
     8   6 C    3.950 --     7 N    1.643    21 N    1.206     9 C    0.962
     9   6 C    3.925 --    10 C    0.991    11 C    0.990     8 C    0.962
                            12 N    0.910
    10   6 C    3.994 --     9 C    0.991    34 H    0.985    33 H    0.984
                            35 H    0.984
    11   6 C    3.993 --     9 C    0.990    38 H    0.985    37 H    0.981
                            36 H    0.981
    12   7 N    3.359 --    13 C    1.264     9 C    0.910    39 H    0.899
                            14 O    0.178
    13   6 C    3.915 --    14 O    1.581    12 N    1.264    15 C    0.986
    14   8 O    1.895 --    13 C    1.581    12 N    0.178
    15   6 C    3.865 --    16 N    1.609    20 O    1.061    13 C    0.986
    16   7 N    3.007 --    15 C    1.609    17 N    1.194
    17   7 N    2.980 --    18 C    1.612    16 N    1.194
    18   6 C    3.871 --    17 N    1.612    20 O    1.080    19 C    1.030
    19   6 C    3.987 --    18 C    1.030    41 H    0.983    40 H    0.965
                            42 H    0.964
    20   8 O    2.323 --    18 C    1.080    15 C    1.061
    21   7 N    3.372 --     8 C    1.206    22 C    0.957    23 C    0.893
                             7 N    0.175
    22   6 C    3.956 --    44 H    0.981    45 H    0.980    43 H    0.972
                            21 N    0.957
    23   6 C    3.915 --    25 C    1.516    24 O    1.359    21 N    0.893
    24   8 O    1.727 --    23 C    1.359    25 C    0.165
    25   6 C    3.790 --    23 C    1.516     5 C    0.958    26 O    0.948
                            24 O    0.165
    26   8 O    1.918 --    25 C    0.948    46 H    0.855
    27   1 H    1.012 --     1 C    0.981
    28   1 H    1.010 --     1 C    0.981
    29   1 H    1.014 --     1 C    0.987
    30   1 H    1.013 --     6 C    0.987
    31   1 H    1.010 --     6 C    0.988
    32   1 H    1.016 --     6 C    0.985
    33   1 H    1.008 --    10 C    0.984
    34   1 H    1.017 --    10 C    0.985
    35   1 H    1.018 --    10 C    0.984
    36   1 H    1.015 --    11 C    0.981
    37   1 H    1.007 --    11 C    0.981
    38   1 H    1.006 --    11 C    0.985
    39   1 H    0.961 --    12 N    0.899
    40   1 H    0.997 --    19 C    0.965
    41   1 H    0.999 --    19 C    0.983
    42   1 H    0.997 --    19 C    0.964
    43   1 H    1.023 --    22 C    0.972
    44   1 H    1.011 --    22 C    0.981
    45   1 H    1.013 --    22 C    0.980
    46   1 H    0.891 --    26 O    0.855
 ---------------------------------------------------------------------------

           -------------------------------------------------
          | TOTAL ENERGY              -87.050975825297 Eh   |
          | GRADIENT NORM               0.000959596135 Eh/α |
          | HOMO-LUMO GAP               0.251555114372 eV   |
           -------------------------------------------------

 * finished run on 2023/06/20 at 15:18:00.407
