   * xtb version 6.5.1 (579679a) compiled by 'ehlert@majestix' on 2022-07-11
          program call               : /lustre/hpc/kemi/ree/PhD/git/ReactivityQM/dep/xtb-6.5.1/bin/xtb --gfn 1 /lustre/hpc/kemi/ree/PhD/git/ReactivityQM/calculations/R03/reac02prodE03/conf03/R03_reac02prodE03_conf03_gfn1.xyz --opt --vfukui --chrg -1 --uhf 0 --alpb DMSO

   ID    Z sym.   atoms
    1    6 C      1, 3, 5, 6, 8-11, 13, 15, 18, 19, 22, 23, 25
    2    8 O      2, 4, 14, 20, 24, 26
    3    7 N      7, 12, 16, 17, 21
    4    1 H      27-46

      * Solvation model:               ALPB
        Solvent                        DMSO
        Solvent mass                       7.8130E+01 g/mol
          :  Hamiltonian                  GFN1-xTB          :
 * total energy  :   -86.9943712 Eh     change       -0.3126388E-11 Eh
 * total energy  :   -87.0083277 Eh     change       -0.1395652E-01 Eh
 * total energy  :   -87.0140488 Eh     change       -0.5721107E-02 Eh
 * total energy  :   -87.0154182 Eh     change       -0.1369359E-02 Eh
 * total energy  :   -87.0164018 Eh     change       -0.9836565E-03 Eh
 * total energy  :   -87.0169425 Eh     change       -0.5407152E-03 Eh
 * total energy  :   -87.0174490 Eh     change       -0.5064886E-03 Eh
 * total energy  :   -87.0179278 Eh     change       -0.4787769E-03 Eh
 * total energy  :   -87.0183300 Eh     change       -0.4022062E-03 Eh
 * total energy  :   -87.0186300 Eh     change       -0.2999971E-03 Eh
 * total energy  :   -87.0241298 Eh     change       -0.1931304E-04 Eh
 * total energy  :   -87.0241508 Eh     change       -0.2102869E-04 Eh
 * total energy  :   -87.0241626 Eh     change       -0.1181834E-04 Eh
 * total energy  :   -87.0241871 Eh     change       -0.2443317E-04 Eh
 * total energy  :   -87.0241936 Eh     change       -0.6514119E-05 Eh
 * total energy  :   -87.0242037 Eh     change       -0.1009012E-04 Eh
 * total energy  :   -87.0242076 Eh     change       -0.3878220E-05 Eh
 * total energy  :   -87.0242133 Eh     change       -0.5705051E-05 Eh
 * total energy  :   -87.0242177 Eh     change       -0.4418989E-05 Eh
   *** GEOMETRY OPTIMIZATION CONVERGED AFTER 79 ITERATIONS ***

 final structure:
================
46
 xtb: 6.5.1 (579679a)
C            5.87017298614134        0.32572041122858        0.22798286200894
O            4.72871248423257        0.57881254392094        1.04121881891425
C            3.60158277494129       -0.18095724639409        0.75350731289091
O            3.56530848227167       -1.42679355913654        1.38668493817917
C            3.04488204191480       -1.42093641952366        2.71105431640883
C            2.57661361920348        0.24486811576515       -0.04826404180564
N            1.45450639573776       -0.59157937351702       -0.12852397938183
C            0.41001878399982       -0.26031838159762       -0.80641752264328
C           -0.71639223982608       -1.29904878287484       -0.81629440601645
C           -0.35520547830902       -2.45285901790768        0.13178728961150
C           -0.91920441669178       -1.85549184320660       -2.23290806984235
N           -1.93954403204948       -0.65871155383080       -0.30607230466533
C           -3.14149397920270       -1.27188233853043       -0.25809595393273
O           -3.40815461957038       -2.36080561464409       -0.75215612301851
C           -4.16471732356988       -0.47260274422774        0.45384752476214
N           -5.41051750381356       -0.78720856520052        0.66302066146663
N           -5.96241913244351        0.24039409348579        1.37108863471674
C           -5.02514806976355        1.11661164416954        1.55223394115598
C           -5.12275373889402        2.40979342204548        2.26491335766179
O           -3.86171210423313        0.73082650309870        0.99869313555451
N            0.29877529997137        0.91542783019852       -1.49001617669327
C           -0.84425169190786        1.34057874231753       -2.28721362768412
C            1.43055252242522        1.80315382237575       -1.57653315036784
O            1.33921116568056        2.82826673599679       -2.30341352280292
C            2.53235006476736        1.43936325180869       -0.82682945496878
O            3.65897316610907        2.27080661949295       -0.90490737442361
H            6.68106695656461        0.95070724912711        0.60656130688533
H            5.67103472533887        0.58787427705673       -0.81916600848929
H            6.17178198537662       -0.72776259431765        0.28250869582015
H            3.60931518407036       -0.73817588877943        3.35852274417388
H            1.98786887296250       -1.12334658330277        2.71472686340730
H            3.13237345368254       -2.43737976075682        3.09869910926339
H            0.55897647887577       -2.93636262594940       -0.20926651801553
H           -0.19429526159379       -2.07271990507373        1.13945716020763
H           -1.16178005580269       -3.18409016085014        0.14934832569920
H           -1.40050953209767       -1.12936245164281       -2.88289153809652
H            0.05264772228205       -2.11423012805322       -2.65276065860080
H           -1.53580543578747       -2.75223075858306       -2.20558083306941
H           -1.81855594034751        0.16714251819082        0.25914603092180
H           -4.86778750395406        3.22802188461648        1.59174060681448
H           -6.13561033185036        2.54586594734584        2.63567133381125
H           -4.42299625819061        2.43004072489971        3.10037076707429
H           -0.94106106159872        2.42422338616852       -2.19385170662456
H           -0.68294647389344        1.09946977901910       -3.34139111917320
H           -1.76224504743654        0.87616291972055       -1.94088432413236
H            3.41838106630015        2.99106787586385       -1.50935032298724

          :  Hamiltonian                  GFN1-xTB          :
         :: total energy             -87.024217682865 Eh    ::
         :: gradient norm              0.000952132898 Eh/a0 ::
         :: HOMO-LUMO gap              0.165451570928 eV    ::
         :: SCC energy               -87.818288055003 Eh    ::
         :: -> Gsolv                  -0.112566572292 Eh    ::
         :: repulsion energy           0.823044094636 Eh    ::

    * Orbital Energies and Occupations

         #    Occupation            Energy/Eh            Energy/eV
      -------------------------------------------------------------
         1        2.0000           -0.8538404             -23.2342
       ...           ...                  ...                  ...
        59        2.0000           -0.4703767             -12.7996
        60        2.0000           -0.4676246             -12.7247
        61        2.0000           -0.4512499             -12.2791
        62        2.0000           -0.4478162             -12.1857
        63        2.0000           -0.4400051             -11.9731
        64        2.0000           -0.4335102             -11.7964
        65        2.0000           -0.4308641             -11.7244
        66        2.0000           -0.4295534             -11.6887
        67        2.0000           -0.4197431             -11.4218
        68        2.0000           -0.3941729             -10.7260
        69        2.0000           -0.3899820             -10.6120
        70        2.0000           -0.3706130             -10.0849
        71        1.9217           -0.3052660              -8.3067 (HOMO)
        72        0.0783           -0.2991857              -8.1413 (LUMO)
        73                         -0.2476734              -6.7395
        74                         -0.2307669              -6.2795
        75                         -0.1941784              -5.2839
        76                         -0.1856611              -5.0521
        77                         -0.1381704              -3.7598
        78                         -0.1197804              -3.2594
        79                         -0.1182193              -3.2169
        80                         -0.1112916              -3.0284
        81                         -0.1075447              -2.9264
        82                         -0.1004053              -2.7322
       ...                                ...                  ...
       144                          0.7272008              19.7881
      -------------------------------------------------------------
                  HL-Gap            0.0060802 Eh            0.1655 eV

Wiberg/Mayer (AO) data.
largest (>0.10) Wiberg bond orders for each atom

     #   Z sym  total        # sym  WBO       # sym  WBO       # sym  WBO
 ---------------------------------------------------------------------------
     1   6 C    3.916 --    27 H    0.986    29 H    0.983    28 H    0.981
                             2 O    0.931
     2   8 O    2.014 --     3 C    0.951     1 C    0.931
     3   6 C    3.720 --     6 C    1.513     2 O    0.951     4 O    0.938
     4   8 O    2.003 --     3 C    0.938     5 C    0.936
     5   6 C    3.917 --    32 H    0.986    30 H    0.983    31 H    0.982
                             4 O    0.936
     6   6 C    3.954 --     3 C    1.513    25 C    1.178     7 N    1.079
     7   7 N    3.005 --     8 C    1.609     6 C    1.079    21 N    0.134
     8   6 C    3.946 --     7 N    1.609    21 N    1.187     9 C    0.966
     9   6 C    3.929 --    10 C    0.992    11 C    0.989     8 C    0.966
                            12 N    0.913
    10   6 C    3.992 --     9 C    0.992    33 H    0.984    34 H    0.984
                            35 H    0.984
    11   6 C    3.991 --     9 C    0.989    37 H    0.986    36 H    0.981
                            38 H    0.980
    12   7 N    3.341 --    13 C    1.250     9 C    0.913    39 H    0.900
                            14 O    0.170
    13   6 C    3.893 --    14 O    1.559    12 N    1.250    15 C    1.004
    14   8 O    1.865 --    13 C    1.559    12 N    0.170
    15   6 C    3.839 --    16 N    1.596    20 O    1.037    13 C    1.004
    16   7 N    2.957 --    15 C    1.596    17 N    1.193
    17   7 N    2.981 --    18 C    1.617    16 N    1.193
    18   6 C    3.861 --    17 N    1.617    20 O    1.068    19 C    1.030
    19   6 C    3.988 --    18 C    1.030    41 H    0.983    40 H    0.965
                            42 H    0.965
    20   8 O    2.296 --    18 C    1.068    15 C    1.037
    21   7 N    3.402 --     8 C    1.187    23 C    0.956    22 C    0.952
                             7 N    0.134
    22   6 C    3.952 --    45 H    0.980    44 H    0.980    43 H    0.977
                            21 N    0.952
    23   6 C    3.902 --    24 O    1.390    25 C    1.383    21 N    0.956
    24   8 O    1.739 --    23 C    1.390    25 C    0.126
    25   6 C    3.821 --    23 C    1.383     6 C    1.178    26 O    0.968
                            24 O    0.126
    26   8 O    1.944 --    25 C    0.968    46 H    0.851
    27   1 H    1.020 --     1 C    0.986
    28   1 H    1.030 --     1 C    0.981
    29   1 H    1.017 --     1 C    0.983
    30   1 H    1.017 --     5 C    0.983
    31   1 H    1.022 --     5 C    0.982
    32   1 H    1.020 --     5 C    0.986
    33   1 H    1.017 --    10 C    0.984
    34   1 H    1.017 --    10 C    0.984
    35   1 H    1.009 --    10 C    0.984
    36   1 H    1.005 --    11 C    0.981
    37   1 H    1.005 --    11 C    0.986
    38   1 H    1.015 --    11 C    0.980
    39   1 H    0.948 --    12 N    0.900
    40   1 H    0.997 --    19 C    0.965
    41   1 H    1.000 --    19 C    0.983
    42   1 H    0.997 --    19 C    0.965
    43   1 H    1.019 --    22 C    0.977
    44   1 H    1.009 --    22 C    0.980
    45   1 H    1.013 --    22 C    0.980
    46   1 H    0.891 --    26 O    0.851
 ---------------------------------------------------------------------------

           -------------------------------------------------
          | TOTAL ENERGY              -87.024217682865 Eh   |
          | GRADIENT NORM               0.000952132898 Eh/α |
          | HOMO-LUMO GAP               0.165451570928 eV   |
           -------------------------------------------------

 * finished run on 2023/06/20 at 15:17:23.307
