   * xtb version 6.5.1 (579679a) compiled by 'ehlert@majestix' on 2022-07-11
          program call               : /lustre/hpc/kemi/ree/PhD/git/ReactivityQM/dep/xtb-6.5.1/bin/xtb --gfn 1 /lustre/hpc/kemi/ree/PhD/git/ReactivityQM/calculations/R02/reac02prodN01/conf01/R02_reac02prodN01_conf01_gfn1.xyz --opt --vfukui --chrg 1 --uhf 0 --alpb DMSO

   ID    Z sym.   atoms
    1    6 C      1, 4
    2    8 O      2, 5
    3    5 B      3
    4    1 H      6-13

      * Solvation model:               ALPB
        Solvent                        DMSO
        Solvent mass                       7.8130E+01 g/mol
          :  Hamiltonian                  GFN1-xTB          :
 * total energy  :   -19.0506027 Eh     change       -0.6962608E-10 Eh
 * total energy  :   -19.0616827 Eh     change       -0.1107999E-01 Eh
 * total energy  :   -19.0643395 Eh     change       -0.2656747E-02 Eh
 * total energy  :   -19.0648822 Eh     change       -0.5427613E-03 Eh
 * total energy  :   -19.0652379 Eh     change       -0.3556952E-03 Eh
 * total energy  :   -19.0652690 Eh     change       -0.3110817E-04 Eh
 * total energy  :   -19.0652843 Eh     change       -0.1528859E-04 Eh
 * total energy  :   -19.0652920 Eh     change       -0.7641381E-05 Eh
 * total energy  :   -19.0652961 Eh     change       -0.4103266E-05 Eh
   *** GEOMETRY OPTIMIZATION CONVERGED AFTER 9 ITERATIONS ***

 final structure:
================
13
 xtb: 6.5.1 (579679a)
C            1.99989842716834       -0.23416628804939        0.36826198949789
O            0.59412589505495       -0.58927293758963        0.21026515381097
B           -0.50167787958767        0.35269830004603       -0.07272145766517
C           -1.92012645348097       -0.25906273573441       -0.19294082827867
O           -0.05697920823958        1.59678640312817       -0.20001887220570
H            2.09567345656156        0.80247237347525        0.05406290656296
H            2.27193319419459       -0.34951715777318        1.41667884680426
H            2.58963386846417       -0.89036704222362       -0.26896873027091
H            0.40680560608267       -1.52506032832716        0.36111549664657
H           -2.13774312963793       -0.48057995111280       -1.23883280609874
H           -2.01551957364363       -1.18788152366180        0.36424822479398
H           -2.68157256241368        0.43692194561333        0.15371939099438
H           -0.64445064052280        2.32702994220923       -0.39390731459184

          :  Hamiltonian                  GFN1-xTB          :
         :: total energy             -19.065296067722 Eh    ::
         :: gradient norm              0.000413193510 Eh/a0 ::
         :: HOMO-LUMO gap              7.489886493765 eV    ::
         :: SCC energy               -19.256628813022 Eh    ::
         :: -> Gsolv                  -0.095045284073 Eh    ::
         :: repulsion energy           0.194812694967 Eh    ::

    * Orbital Energies and Occupations

         #    Occupation            Energy/Eh            Energy/eV
      -------------------------------------------------------------
         1        2.0000           -0.9096959             -24.7541
       ...           ...                  ...                  ...
         3        2.0000           -0.7655905             -20.8328
         4        2.0000           -0.7558149             -20.5668
         5        2.0000           -0.6871483             -18.6983
         6        2.0000           -0.6732113             -18.3190
         7        2.0000           -0.6638991             -18.0656
         8        2.0000           -0.6502897             -17.6953
         9        2.0000           -0.6223235             -16.9343
        10        2.0000           -0.6042226             -16.4417
        11        2.0000           -0.5661380             -15.4054
        12        2.0000           -0.5532751             -15.0554
        13        2.0000           -0.5443528             -14.8126
        14        2.0000           -0.5434481             -14.7880
        15        2.0000           -0.5241146             -14.2619 (HOMO)
        16                         -0.2488663              -6.7720 (LUMO)
        17                         -0.1894320              -5.1547
        18                         -0.1756991              -4.7810
        19                         -0.1499576              -4.0806
        20                         -0.1263268              -3.4375
        21                         -0.1081632              -2.9433
        22                         -0.0954509              -2.5974
        23                         -0.0790625              -2.1514
        24                         -0.0717133              -1.9514
        25                         -0.0516814              -1.4063
        26                          0.0902480               2.4558
       ...                                ...                  ...
        36                          0.6424484              17.4819
      -------------------------------------------------------------
                  HL-Gap            0.2752483 Eh            7.4899 eV

Wiberg/Mayer (AO) data.
largest (>0.10) Wiberg bond orders for each atom

     #   Z sym  total        # sym  WBO       # sym  WBO       # sym  WBO
 ---------------------------------------------------------------------------
     1   6 C    3.783 --     8 H    0.982     7 H    0.982     6 H    0.978
                             2 O    0.809
     2   8 O    2.394 --     1 C    0.809     3 B    0.768     9 H    0.759
     3   5 B    3.138 --     5 O    1.256     4 C    1.034     2 O    0.768
     4   6 C    3.986 --     3 B    1.034    11 H    0.973    12 H    0.967
                            10 H    0.948
     5   8 O    2.144 --     3 B    1.256    13 H    0.793
     6   1 H    1.000 --     1 C    0.978
     7   1 H    0.995 --     1 C    0.982
     8   1 H    0.995 --     1 C    0.982
     9   1 H    0.790 --     2 O    0.759
    10   1 H    0.990 --     4 C    0.948
    11   1 H    0.993 --     4 C    0.973
    12   1 H    0.992 --     4 C    0.967
    13   1 H    0.812 --     5 O    0.793
 ---------------------------------------------------------------------------

           -------------------------------------------------
          | TOTAL ENERGY              -19.065296067722 Eh   |
          | GRADIENT NORM               0.000413193510 Eh/α |
          | HOMO-LUMO GAP               7.489886493765 eV   |
           -------------------------------------------------

 * finished run on 2023/06/20 at 15:48:42.429
