   * xtb version 6.5.1 (579679a) compiled by 'ehlert@majestix' on 2022-07-11
          program call               : /lustre/hpc/kemi/ree/PhD/git/ReactivityQM/dep/xtb-6.5.1/bin/xtb --gfn 1 /lustre/hpc/kemi/ree/PhD/git/ReactivityQM/calculations/R02oxygendeprot/reac01prodN15/conf16/R02oxygendeprot_reac01prodN15_conf16_gfn1.xyz --opt --vfukui --chrg 0 --uhf 0 --alpb DMSO

   ID    Z sym.   atoms
    1    6 C      1, 3, 5, 7-10, 12, 14, 17, 18, 21, 23, 24
    2    8 O      2, 4, 13, 19, 22, 25
    3    7 N      6, 11, 15, 16, 20
    4    1 H      26-42

      * Solvation model:               ALPB
        Solvent                        DMSO
        Solvent mass                       7.8130E+01 g/mol
          :  Hamiltonian                  GFN1-xTB          :
 * total energy  :   -82.8915973 Eh     change        0.3069545E-11 Eh
 * total energy  :   -82.9114232 Eh     change       -0.1982584E-01 Eh
 * total energy  :   -82.9296592 Eh     change       -0.1823607E-01 Eh
 * total energy  :   -82.9474749 Eh     change       -0.1781571E-01 Eh
 * total energy  :   -82.9554237 Eh     change       -0.7948749E-02 Eh
 * total energy  :   -82.9656416 Eh     change       -0.1021792E-01 Eh
 * total energy  :   -82.9637716 Eh     change        0.1870046E-02 Eh
 * total energy  :   -82.9742638 Eh     change       -0.1049228E-01 Eh
 * total energy  :   -82.9776583 Eh     change       -0.3394461E-02 Eh
 * total energy  :   -82.9835298 Eh     change       -0.5871538E-02 Eh
 * total energy  :   -83.0041083 Eh     change       -0.5972343E-05 Eh
 * total energy  :   -83.0041136 Eh     change       -0.5342856E-05 Eh
 * total energy  :   -83.0041233 Eh     change       -0.9645939E-05 Eh
 * total energy  :   -83.0041284 Eh     change       -0.5102193E-05 Eh
 * total energy  :   -83.0041354 Eh     change       -0.7076326E-05 Eh
 * total energy  :   -83.0041443 Eh     change       -0.8813510E-05 Eh
 * total energy  :   -83.0041497 Eh     change       -0.5420292E-05 Eh
 * total energy  :   -83.0041547 Eh     change       -0.5059817E-05 Eh
 * total energy  :   -83.0041590 Eh     change       -0.4255034E-05 Eh
   *** GEOMETRY OPTIMIZATION CONVERGED AFTER 53 ITERATIONS ***

 final structure:
================
42
 xtb: 6.5.1 (579679a)
C           -5.33629299206891        0.43968408679785        2.15246698027481
O           -4.14154183982255        0.27641916237409        1.37567808848787
C           -4.12986916341368        0.83948097423812        0.17972209836576
O           -5.04850344385804        1.46031487924365       -0.29221827858954
C           -2.81985795907640        0.57329777276477       -0.54522885768399
N           -1.75143810558384        0.19282215926163        0.29744450139157
C           -0.69662309767451       -0.29657753745335       -0.22256242889634
C            0.48303937364940       -0.65536589341909        0.65678530696264
C            0.37161349391225        0.05259986634296        2.00988707097210
C            0.50147546817641       -2.18170271119059        0.83072047465418
N            1.69210539965038       -0.21196385797808       -0.04322400656801
C            2.93924575089051       -0.40812265651530        0.44384749727020
O            3.22089455922469       -1.06206517464749        1.43036976437187
C            3.94550046169524        0.28357842634057       -0.40100923854350
N            3.69290571342350        1.03348253730872       -1.43154007102900
N            4.89288771521223        1.47764629979114       -1.89768008986688
C            5.80200625762881        0.97158691242487       -1.11987086389180
C            7.26761282892031        1.15235527093900       -1.20652111715958
O            5.26561148482446        0.21021811030326       -0.15509348689907
N           -0.58171763145807       -0.62949712940782       -1.55758721514371
C           -1.65570866901146       -0.67644455589037       -2.41740208977385
O           -1.63383041997439       -1.34561727460603       -3.42741169326897
C           -2.83469543913465        0.14290946528091       -1.98582156377932
C           -4.10023089636446       -0.05659174380547       -2.78433857110007
O           -2.51069020396589        1.45032463965148       -1.58624691379999
H           -5.17536689851316       -0.09950734705226        3.08288547879300
H           -5.51013547233881        1.49960094783944        2.34861623112168
H           -6.18916067493294        0.02426728783558        1.61221897704705
H           -0.55777643894808       -0.24038126636513        2.49502844292814
H            1.21046082622371       -0.22616056608203        2.64441020988521
H            0.37038767331401        1.13207290756046        1.86750284197372
H           -0.45326958245372       -2.50880979856368        1.23923672112798
H            1.29787678965612       -2.47144268501603        1.51300775836147
H            0.66284649226807       -2.66697137381024       -0.13005944850385
H            1.58943109107857        0.42888309932040       -0.81640832724561
H            7.51010440680283        1.76795256747512       -2.06899139678407
H            7.63828913441496        1.63122721797325       -0.30058132234956
H            7.75625485679314        0.18305023096923       -1.29909481032302
H            0.22707532743087       -1.15924970842675       -1.84721781511495
H           -4.54478254920806       -1.01999510339007       -2.54118437807036
H           -3.85544061547653       -0.04507392389626       -3.84618862223052
H           -4.81069101190928        0.73776648547773       -2.56911383736976

          :  Hamiltonian                  GFN1-xTB          :
         :: total energy             -83.004158991236 Eh    ::
         :: gradient norm              0.000472094999 Eh/a0 ::
         :: HOMO-LUMO gap              3.714666909032 eV    ::
         :: SCC energy               -83.776171749065 Eh    ::
         :: -> Gsolv                  -0.049341949303 Eh    ::
         :: repulsion energy           0.797320461771 Eh    ::

    * Orbital Energies and Occupations

         #    Occupation            Energy/Eh            Energy/eV
      -------------------------------------------------------------
         1        2.0000           -0.8656333             -23.5551
       ...           ...                  ...                  ...
        55        2.0000           -0.5091094             -13.8536
        56        2.0000           -0.5079249             -13.8213
        57        2.0000           -0.5061534             -13.7731
        58        2.0000           -0.5041051             -13.7174
        59        2.0000           -0.4852582             -13.2045
        60        2.0000           -0.4798431             -13.0572
        61        2.0000           -0.4709368             -12.8148
        62        2.0000           -0.4682876             -12.7428
        63        2.0000           -0.4659934             -12.6803
        64        2.0000           -0.4628303             -12.5943
        65        2.0000           -0.4545152             -12.3680
        66        2.0000           -0.4513105             -12.2808
        67        2.0000           -0.4503298             -12.2541 (HOMO)
        68                         -0.3138183              -8.5394 (LUMO)
        69                         -0.3048987              -8.2967
        70                         -0.2908668              -7.9149
        71                         -0.2617410              -7.1223
        72                         -0.2586314              -7.0377
        73                         -0.2017253              -5.4892
        74                         -0.1438590              -3.9146
        75                         -0.1430033              -3.8913
        76                         -0.1330966              -3.6217
        77                         -0.1303629              -3.5474
        78                         -0.1256767              -3.4198
       ...                                ...                  ...
       134                          0.7247696              19.7220
      -------------------------------------------------------------
                  HL-Gap            0.1365115 Eh            3.7147 eV

Wiberg/Mayer (AO) data.
largest (>0.10) Wiberg bond orders for each atom

     #   Z sym  total        # sym  WBO       # sym  WBO       # sym  WBO
 ---------------------------------------------------------------------------
     1   6 C    3.860 --    26 H    0.986    28 H    0.979    27 H    0.979
                             2 O    0.884
     2   8 O    2.219 --     3 C    1.144     1 C    0.884     4 O    0.142
     3   6 C    3.851 --     4 O    1.683     2 O    1.144     5 C    0.938
     4   8 O    1.952 --     3 C    1.683     2 O    0.142
     5   6 C    3.868 --     6 N    1.029     3 C    0.938    25 O    0.906
                            23 C    0.830
     6   7 N    3.025 --     7 C    1.710     5 C    1.029
     7   6 C    3.928 --     6 N    1.710    20 N    1.108     8 C    0.978
     8   6 C    3.934 --     9 C    0.991     7 C    0.978    10 C    0.976
                            11 N    0.924
     9   6 C    3.989 --     8 C    0.991    31 H    0.985    29 H    0.983
                            30 H    0.982
    10   6 C    3.987 --    32 H    0.985    34 H    0.984    33 H    0.977
                             8 C    0.976
    11   7 N    3.331 --    12 C    1.238     8 C    0.924    35 H    0.894
                            13 O    0.174
    12   6 C    3.915 --    13 O    1.603    11 N    1.238    14 C    0.990
    13   8 O    1.919 --    12 C    1.603    11 N    0.174
    14   6 C    3.876 --    15 N    1.609    19 O    1.065    12 C    0.990
    15   7 N    3.018 --    14 C    1.609    16 N    1.201
    16   7 N    2.981 --    17 C    1.603    15 N    1.201
    17   6 C    3.870 --    16 N    1.603    19 O    1.083    18 C    1.032
    18   6 C    3.986 --    17 C    1.032    36 H    0.982    38 H    0.964
                            37 H    0.962
    19   8 O    2.332 --    17 C    1.083    14 C    1.065
    20   7 N    3.415 --    21 C    1.138     7 C    1.108    39 H    0.885
                            22 O    0.126
    21   6 C    3.892 --    22 O    1.658    20 N    1.138    23 C    0.980
    22   8 O    1.936 --    21 C    1.658    20 N    0.126
    23   6 C    3.860 --    24 C    1.002    21 C    0.980    25 O    0.896
                             5 C    0.830
    24   6 C    3.984 --    23 C    1.002    40 H    0.980    42 H    0.979
                            41 H    0.975
    25   8 O    1.967 --     5 C    0.906    23 C    0.896
    26   1 H    1.009 --     1 C    0.986
    27   1 H    1.005 --     1 C    0.979
    28   1 H    1.005 --     1 C    0.979
    29   1 H    1.009 --     9 C    0.983
    30   1 H    1.006 --     9 C    0.982
    31   1 H    1.004 --     9 C    0.985
    32   1 H    1.001 --    10 C    0.985
    33   1 H    1.009 --    10 C    0.977
    34   1 H    1.000 --    10 C    0.984
    35   1 H    0.951 --    11 N    0.894
    36   1 H    0.998 --    18 C    0.982
    37   1 H    0.996 --    18 C    0.962
    38   1 H    0.996 --    18 C    0.964
    39   1 H    0.931 --    20 N    0.885
    40   1 H    1.000 --    24 C    0.980
    41   1 H    1.002 --    24 C    0.975
    42   1 H    1.009 --    24 C    0.979
 ---------------------------------------------------------------------------

           -------------------------------------------------
          | TOTAL ENERGY              -83.004158991236 Eh   |
          | GRADIENT NORM               0.000472094999 Eh/α |
          | HOMO-LUMO GAP               3.714666909032 eV   |
           -------------------------------------------------

 * finished run on 2023/06/21 at 17:35:37.385
