   * xtb version 6.5.1 (579679a) compiled by 'ehlert@majestix' on 2022-07-11
          program call               : /lustre/hpc/kemi/ree/PhD/git/ReactivityQM/dep/xtb-6.5.1/bin/xtb --gfn 1 /lustre/hpc/kemi/ree/PhD/git/ReactivityQM/calculations/R02/reac01prodN13/conf16/R02_reac01prodN13_conf16_gfn1.xyz --opt --vfukui --chrg 1 --uhf 0 --alpb DMSO

   ID    Z sym.   atoms
    1    6 C      1, 3, 5, 7-10, 12, 14, 17-19, 22, 24
    2    8 O      2, 4, 13, 20, 23, 25
    3    7 N      6, 11, 15, 16, 21
    4    1 H      26-43

      * Solvation model:               ALPB
        Solvent                        DMSO
        Solvent mass                       7.8130E+01 g/mol
          :  Hamiltonian                  GFN1-xTB          :
 * total energy  :   -83.0955461 Eh     change       -0.5016432E-11 Eh
 * total energy  :   -83.1109114 Eh     change       -0.1536533E-01 Eh
 * total energy  :   -83.1165940 Eh     change       -0.5682604E-02 Eh
 * total energy  :   -83.1174168 Eh     change       -0.8227664E-03 Eh
 * total energy  :   -83.1179226 Eh     change       -0.5058157E-03 Eh
 * total energy  :   -83.1180962 Eh     change       -0.1736132E-03 Eh
 * total energy  :   -83.1182404 Eh     change       -0.1442176E-03 Eh
 * total energy  :   -83.1183212 Eh     change       -0.8079793E-04 Eh
 * total energy  :   -83.1183708 Eh     change       -0.4964494E-04 Eh
 * total energy  :   -83.1184032 Eh     change       -0.3239252E-04 Eh
 * total energy  :   -83.1185207 Eh     change       -0.1775512E-04 Eh
 * total energy  :   -83.1185509 Eh     change       -0.3025957E-04 Eh
 * total energy  :   -83.1185692 Eh     change       -0.1822798E-04 Eh
 * total energy  :   -83.1185551 Eh     change        0.1404233E-04 Eh
 * total energy  :   -83.1185739 Eh     change       -0.1884028E-04 Eh
 * total energy  :   -83.1185780 Eh     change       -0.4019900E-05 Eh
 * total energy  :   -83.1185860 Eh     change       -0.8012085E-05 Eh
 * total energy  :   -83.1185912 Eh     change       -0.5181455E-05 Eh
 * total energy  :   -83.1185941 Eh     change       -0.2904198E-05 Eh
   *** GEOMETRY OPTIMIZATION CONVERGED AFTER 23 ITERATIONS ***

 final structure:
================
43
 xtb: 6.5.1 (579679a)
C           -6.20536491934007       -2.26302718177954       -0.45222007233181
O           -4.98306620152985       -1.51275424642541       -0.41489661263899
C           -5.01010981951593       -0.36654206871788        0.23822251273322
O           -5.99944962135712        0.06769724154337        0.80027147832349
C           -3.71809486033024        0.36704266722328        0.22564931137486
N           -2.66402615669741       -0.22017483947033       -0.41491667508164
C           -1.52815007211625        0.39476580279401       -0.44814169933234
C           -0.37184245111661       -0.21733546803706       -1.20351730336411
C           -0.59387558002873       -1.71971413691950       -1.40103214179184
C           -0.24242111948534        0.51546763186660       -2.54845778634145
N            0.84652881014568       -0.01352835051188       -0.40259379188726
C            2.06999501178027       -0.34225508709847       -0.85190533038314
O            2.36625835292429       -0.77786092153703       -1.93899862105941
C            3.11250412422296       -0.09042000872932        0.21104954742765
N            2.85208933069181        0.39334156367907        1.46786906199563
N            3.94985437046496        0.46234394332296        2.08875165381519
C            5.01543960111646        0.01654624446372        1.25126378279295
C            6.01471338792996        1.15148937450629        0.98968321963840
C            5.68733417206334       -1.23205732407371        1.83772242863889
O            4.35189179739403       -0.32533729787481        0.03657805972122
N           -1.34640937904928        1.62016657540833        0.11564719357879
C           -2.32932313733977        2.32015752179361        0.80415302958408
O           -2.09606076139883        3.40590376036135        1.29288365102865
C           -3.60895663429860        1.59665234495788        0.84212506914316
O           -4.60257428332916        2.19663047068417        1.47767842011758
H           -6.98723411073163       -1.67235394979658       -0.93448426179971
H           -6.51481955478761       -2.51793085453831        0.56357592610862
H           -5.99672624277514       -3.16319282986623       -1.02624604562355
H           -1.53305409380664       -1.87369521260262       -1.92999812892957
H            0.22287501444846       -2.14320308772606       -1.98174533966459
H           -0.64482426845486       -2.21597833518164       -0.43367005280804
H            0.51253942683446        0.03861738832622       -3.16995141451948
H           -1.20154982243351        0.48025944917345       -3.06374366138747
H            0.03559903520827        1.55394768482658       -2.37816538107248
H            0.74777121570385        0.25885048709739        0.56289554253175
H            6.76383448476054        0.80102603599389        0.28341664934280
H            6.48666207498171        1.42764426127409        1.92940065402429
H            5.48531060853490        2.00591787037331        0.57387272790178
H            6.15489160548449       -0.96844034071851        2.78313871370499
H            6.43769897868561       -1.58699806422143        1.13505922447451
H            4.93548307474937       -2.00208726813934        1.99591305281689
H           -0.45113410019752        2.07731835079465        0.04350814511863
H           -5.42020428800526        1.63973520350203        1.44435426407839

          :  Hamiltonian                  GFN1-xTB          :
         :: total energy             -83.118594067398 Eh    ::
         :: gradient norm              0.000495984944 Eh/a0 ::
         :: HOMO-LUMO gap              0.143459673695 eV    ::
         :: SCC energy               -83.903933106987 Eh    ::
         :: -> Gsolv                  -0.115486155250 Eh    ::
         :: repulsion energy           0.811158398792 Eh    ::

    * Orbital Energies and Occupations

         #    Occupation            Energy/Eh            Energy/eV
      -------------------------------------------------------------
         1        2.0000           -0.9347669             -25.4363
       ...           ...                  ...                  ...
        55        2.0000           -0.5339571             -14.5297
        56        2.0000           -0.5297216             -14.4145
        57        2.0000           -0.5235081             -14.2454
        58        2.0000           -0.5220318             -14.2052
        59        2.0000           -0.5155681             -14.0293
        60        2.0000           -0.5111858             -13.9101
        61        2.0000           -0.5058961             -13.7661
        62        2.0000           -0.5047724             -13.7356
        63        2.0000           -0.5017589             -13.6536
        64        2.0000           -0.4933770             -13.4255
        65        2.0000           -0.4798575             -13.0576
        66        2.0000           -0.4650075             -12.6535
        67        1.8826           -0.4480778             -12.1928 (HOMO)
        68        0.1174           -0.4428058             -12.0494 (LUMO)
        69                         -0.3617117              -9.8427
        70                         -0.3427029              -9.3254
        71                         -0.3054603              -8.3120
        72                         -0.2599811              -7.0744
        73                         -0.2580049              -7.0207
        74                         -0.1783762              -4.8539
        75                         -0.1621895              -4.4134
        76                         -0.1565389              -4.2596
        77                         -0.1488794              -4.0512
        78                         -0.1430267              -3.8920
       ...                                ...                  ...
       136                          0.7128681              19.3981
      -------------------------------------------------------------
                  HL-Gap            0.0052720 Eh            0.1435 eV

Wiberg/Mayer (AO) data.
largest (>0.10) Wiberg bond orders for each atom

     #   Z sym  total        # sym  WBO       # sym  WBO       # sym  WBO
 ---------------------------------------------------------------------------
     1   6 C    3.858 --    28 H    0.986    27 H    0.978    26 H    0.978
                             2 O    0.885
     2   8 O    2.225 --     3 C    1.151     1 C    0.885     4 O    0.134
     3   6 C    3.851 --     4 O    1.610     2 O    1.151     5 C    1.009
     4   8 O    1.950 --     3 C    1.610     2 O    0.134
     5   6 C    3.926 --    24 C    1.446     6 N    1.202     3 C    1.009
     6   7 N    2.999 --     7 C    1.558     5 C    1.202
     7   6 C    3.906 --     6 N    1.558    21 N    1.186     8 C    0.984
     8   6 C    3.910 --     7 C    0.984     9 C    0.981    10 C    0.967
                            11 N    0.908
     9   6 C    3.977 --    31 H    0.984    30 H    0.982     8 C    0.981
                            29 H    0.980
    10   6 C    3.974 --    34 H    0.984    33 H    0.982    32 H    0.976
                             8 C    0.967
    11   7 N    3.388 --    12 C    1.271     8 C    0.908    35 H    0.884
                            13 O    0.210
    12   6 C    3.923 --    13 O    1.628    11 N    1.271    14 C    0.944
    13   8 O    1.962 --    12 C    1.628    11 N    0.210
    14   6 C    3.740 --    20 O    1.338    15 N    1.208    12 C    0.944
    15   7 N    3.026 --    16 N    1.657    14 C    1.208
    16   7 N    2.911 --    15 N    1.657    17 C    1.053
    17   6 C    3.818 --    16 N    1.053    19 C    0.904    18 C    0.904
                            20 O    0.868
    18   6 C    3.937 --    38 H    0.979    37 H    0.977    36 H    0.976
                            17 C    0.904
    19   6 C    3.938 --    41 H    0.979    39 H    0.977    40 H    0.976
                            17 C    0.904
    20   8 O    2.376 --    14 C    1.338    17 C    0.868
    21   7 N    3.449 --     7 C    1.186    22 C    1.100    42 H    0.881
                            23 O    0.127
    22   6 C    3.896 --    23 O    1.629    21 N    1.100    24 C    1.044
    23   8 O    1.901 --    22 C    1.629    21 N    0.127
    24   6 C    3.873 --     5 C    1.446    25 O    1.160    22 C    1.044
    25   8 O    2.097 --    24 C    1.160    43 H    0.761
    26   1 H    1.004 --     1 C    0.978
    27   1 H    1.004 --     1 C    0.978
    28   1 H    1.009 --     1 C    0.986
    29   1 H    1.006 --     9 C    0.980
    30   1 H    1.001 --     9 C    0.982
    31   1 H    1.001 --     9 C    0.984
    32   1 H    1.004 --    10 C    0.976
    33   1 H    0.998 --    10 C    0.982
    34   1 H    0.997 --    10 C    0.984
    35   1 H    0.935 --    11 N    0.884
    36   1 H    0.991 --    18 C    0.976
    37   1 H    0.992 --    18 C    0.977
    38   1 H    0.991 --    18 C    0.979
    39   1 H    0.992 --    19 C    0.977
    40   1 H    0.991 --    19 C    0.976
    41   1 H    0.991 --    19 C    0.979
    42   1 H    0.922 --    21 N    0.881
    43   1 H    0.842 --    25 O    0.761
 ---------------------------------------------------------------------------

           -------------------------------------------------
          | TOTAL ENERGY              -83.118594067398 Eh   |
          | GRADIENT NORM               0.000495984944 Eh/α |
          | HOMO-LUMO GAP               0.143459673695 eV   |
           -------------------------------------------------

 * finished run on 2023/06/20 at 15:36:02.816
