   * xtb version 6.5.1 (579679a) compiled by 'ehlert@majestix' on 2022-07-11
          program call               : /lustre/hpc/kemi/ree/PhD/git/ReactivityQM/dep/xtb-6.5.1/bin/xtb --gfn 1 /lustre/hpc/kemi/ree/PhD/git/ReactivityQM/calculations/R03/reac02prodN16/conf08/R03_reac02prodN16_conf08_gfn1.xyz --opt --vfukui --chrg 1 --uhf 0 --alpb DMSO

   ID    Z sym.   atoms
    1    6 C      1, 2, 5, 6, 9-12, 14, 15, 18-20, 22, 25
    2    7 N      3, 4, 8, 13, 24
    3    8 O      7, 16, 17, 21, 23, 26
    4    1 H      27-46

      * Solvation model:               ALPB
        Solvent                        DMSO
        Solvent mass                       7.8130E+01 g/mol
          :  Hamiltonian                  GFN1-xTB          :
 * total energy  :   -86.2888167 Eh     change       -0.1466560E-10 Eh
 * total energy  :   -86.3013292 Eh     change       -0.1251240E-01 Eh
 * total energy  :   -86.3051936 Eh     change       -0.3864439E-02 Eh
 * total energy  :   -86.3061549 Eh     change       -0.9613380E-03 Eh
 * total energy  :   -86.3069906 Eh     change       -0.8356934E-03 Eh
 * total energy  :   -86.3076161 Eh     change       -0.6254841E-03 Eh
 * total energy  :   -86.3082258 Eh     change       -0.6097112E-03 Eh
 * total energy  :   -86.3088461 Eh     change       -0.6202380E-03 Eh
 * total energy  :   -86.3092998 Eh     change       -0.4537078E-03 Eh
 * total energy  :   -86.3095804 Eh     change       -0.2806634E-03 Eh
 * total energy  :   -86.3105125 Eh     change       -0.1266477E-04 Eh
 * total energy  :   -86.3105240 Eh     change       -0.1150761E-04 Eh
 * total energy  :   -86.3105389 Eh     change       -0.1491988E-04 Eh
 * total energy  :   -86.3105451 Eh     change       -0.6230689E-05 Eh
 * total energy  :   -86.3105619 Eh     change       -0.1682253E-04 Eh
 * total energy  :   -86.3105687 Eh     change       -0.6729919E-05 Eh
 * total energy  :   -86.3105840 Eh     change       -0.1530411E-04 Eh
 * total energy  :   -86.3105905 Eh     change       -0.6545242E-05 Eh
 * total energy  :   -86.3105946 Eh     change       -0.4112373E-05 Eh
   *** GEOMETRY OPTIMIZATION CONVERGED AFTER 29 ITERATIONS ***

 final structure:
================
46
 xtb: 6.5.1 (579679a)
C            4.99369732873138        1.21504057497029        3.27938498567358
C            4.93712339891927        0.72696573909600        1.88489441404705
N            5.92149405920113        0.56562649276463        1.05644586192181
N            5.38543018864093        0.10509188326468       -0.10686087641255
C            4.10643788974429        0.01171210628920        0.08051967700910
C            3.07385723025379       -0.43268302522053       -0.88485546966325
O            3.34460261347519       -0.77466391939062       -2.02009082156929
N            1.83286707143750       -0.43762743687697       -0.33067785667855
C            0.61211767201867       -0.65276047762705       -1.10783032490630
C            0.66901846675420       -1.94658747132350       -1.93634963306218
C            0.42232112648495        0.54957233550410       -2.04255103520100
C           -0.56688973372017       -0.75577130706769       -0.15074524673437
N           -1.63658256678551       -0.11976924798845       -0.51347790643526
C           -2.79611942448828       -0.20033529685952        0.21212705634063
C           -3.95893906493820        0.50424226557730       -0.26292090342261
O           -5.09379208118413        0.46432985594951        0.06180846681859
O           -3.63324081993159        1.41359545431929       -1.43137900663264
C           -4.82634247713032        1.80396014446045       -2.17113258242775
C           -2.75383781577983        2.53314203868236       -1.11895114509059
C           -2.84265359681778       -0.97046763350672        1.35221188480545
O           -3.91147484497010       -1.11034006533033        2.10862054622166
C           -1.63439456167927       -1.67129023037806        1.79522878157841
O           -1.63442441701533       -2.33156596872086        2.82052520316223
N           -0.53012268564091       -1.53772141428235        0.97676182525087
C            0.66143644626219       -2.24214718293307        1.46810223714553
O            3.75957060954756        0.39264723085367        1.33049774744050
H            6.02245617025913        1.44394350104665        3.54819576031669
H            4.37899077107037        2.10898968050773        3.38241391181414
H            4.59767625321262        0.45654197986110        3.95421732074106
H            1.72179253091707        0.05946149306633        0.53749703136822
H            1.39472046710868       -1.84251175564311       -2.74040046752934
H           -0.31388247094219       -2.12497904720141       -2.36925695063397
H            0.94327631933685       -2.80096705649617       -1.32209433406565
H            0.33946924423828        1.46402502982010       -1.45897132170632
H           -0.48185511356929        0.42433727192733       -2.63429192098936
H            1.28029936668343        0.62664803130629       -2.70906300159016
H           -4.48089166486961        2.32772440367138       -3.05831634808746
H           -5.45075697222982        2.44416628706580       -1.54829436449069
H           -5.34531877967537        0.88573375052861       -2.43603216859835
H           -2.47337508248808        2.98015719848655       -2.06959673137807
H           -1.88224243102746        2.11908953711229       -0.62026378447552
H           -3.27973207801721        3.24595109378428       -0.48415139658092
H           -3.70074411270184       -1.67682216090997        2.87925109325804
H            1.18632001782490       -1.59633915127207        2.17090411449468
H            0.32683712557499       -3.14214010329960        1.98294119188031
H            1.31579842790920       -2.50520542758798        0.64600448707113

          :  Hamiltonian                  GFN1-xTB          :
         :: total energy             -86.310594631311 Eh    ::
         :: gradient norm              0.000681073125 Eh/a0 ::
         :: HOMO-LUMO gap              2.070335059942 eV    ::
         :: SCC energy               -87.151333266626 Eh    ::
         :: -> Gsolv                  -0.121270656392 Eh    ::
         :: repulsion energy           0.870700001934 Eh    ::

    * Orbital Energies and Occupations

         #    Occupation            Energy/Eh            Energy/eV
      -------------------------------------------------------------
         1        2.0000           -0.9270831             -25.2272
       ...           ...                  ...                  ...
        58        2.0000           -0.5277172             -14.3599
        59        2.0000           -0.5194177             -14.1341
        60        2.0000           -0.5134855             -13.9727
        61        2.0000           -0.5092157             -13.8565
        62        2.0000           -0.5020179             -13.6606
        63        2.0000           -0.4914612             -13.3733
        64        2.0000           -0.4840680             -13.1722
        65        2.0000           -0.4804284             -13.0731
        66        2.0000           -0.4724568             -12.8562
        67        2.0000           -0.4660560             -12.6820
        68        2.0000           -0.4601249             -12.5206
        69        2.0000           -0.4565538             -12.4235
        70        2.0000           -0.4535952             -12.3430 (HOMO)
        71                         -0.3775118             -10.2726 (LUMO)
        72                         -0.3180663              -8.6550
        73                         -0.3157986              -8.5933
        74                         -0.2877304              -7.8295
        75                         -0.2600604              -7.0766
        76                         -0.2053480              -5.5878
        77                         -0.1975595              -5.3759
        78                         -0.1801041              -4.9009
        79                         -0.1721925              -4.6856
        80                         -0.1485758              -4.0430
        81                         -0.1432893              -3.8991
       ...                                ...                  ...
       144                          0.7620807              20.7373
      -------------------------------------------------------------
                  HL-Gap            0.0760834 Eh            2.0703 eV

Wiberg/Mayer (AO) data.
largest (>0.10) Wiberg bond orders for each atom

     #   Z sym  total        # sym  WBO       # sym  WBO       # sym  WBO
 ---------------------------------------------------------------------------
     1   6 C    3.985 --     2 C    1.032    27 H    0.982    28 H    0.962
                            29 H    0.962
     2   6 C    3.866 --     3 N    1.608    26 O    1.071     1 C    1.032
     3   7 N    2.983 --     2 C    1.608     4 N    1.201
     4   7 N    3.003 --     5 C    1.621     3 N    1.201
     5   6 C    3.874 --     4 N    1.621    26 O    1.044     6 C    0.997
     6   6 C    3.912 --     7 O    1.607     8 N    1.221     5 C    0.997
     7   8 O    1.920 --     6 C    1.607     8 N    0.168
     8   7 N    3.322 --     6 C    1.221     9 C    0.931    30 H    0.894
                             7 O    0.168
     9   6 C    3.935 --    11 C    0.988    12 C    0.978    10 C    0.975
                             8 N    0.931
    10   6 C    3.984 --    32 H    0.984    33 H    0.978     9 C    0.975
                            31 H    0.975
    11   6 C    3.987 --     9 C    0.988    35 H    0.984    34 H    0.983
                            36 H    0.980
    12   6 C    3.922 --    13 N    1.567    24 N    1.173     9 C    0.978
    13   7 N    3.035 --    12 C    1.567    14 C    1.162
    14   6 C    3.958 --    20 C    1.417    13 N    1.162    15 C    1.111
    15   6 C    3.803 --    16 O    1.819    14 C    1.111    17 O    0.731
    16   8 O    2.092 --    15 C    1.819
    17   8 O    2.485 --    18 C    0.819    19 C    0.812    15 C    0.731
    18   6 C    3.789 --    38 H    0.979    37 H    0.977    39 H    0.976
                            17 O    0.819
    19   6 C    3.786 --    42 H    0.980    40 H    0.976    41 H    0.969
                            17 O    0.812
    20   6 C    3.914 --    14 C    1.417    21 O    1.173    22 C    1.042
    21   8 O    2.144 --    20 C    1.173    43 H    0.783
    22   6 C    3.918 --    23 O    1.592    24 N    1.142    20 C    1.042
    23   8 O    1.939 --    22 C    1.592    24 N    0.142
    24   7 N    3.522 --    12 C    1.173    22 C    1.142    25 C    0.916
                            23 O    0.142
    25   6 C    3.905 --    46 H    0.977    45 H    0.972    44 H    0.971
                            24 N    0.916
    26   8 O    2.315 --     2 C    1.071     5 C    1.044
    27   1 H    0.998 --     1 C    0.982
    28   1 H    0.996 --     1 C    0.962
    29   1 H    0.996 --     1 C    0.962
    30   1 H    0.938 --     8 N    0.894
    31   1 H    1.010 --    10 C    0.975
    32   1 H    1.001 --    10 C    0.984
    33   1 H    1.000 --    10 C    0.978
    34   1 H    1.004 --    11 C    0.983
    35   1 H    1.009 --    11 C    0.984
    36   1 H    1.002 --    11 C    0.980
    37   1 H    0.994 --    18 C    0.977
    38   1 H    0.996 --    18 C    0.979
    39   1 H    0.996 --    18 C    0.976
    40   1 H    0.995 --    19 C    0.976
    41   1 H    1.015 --    19 C    0.969
    42   1 H    0.991 --    19 C    0.980
    43   1 H    0.824 --    21 O    0.783
    44   1 H    0.998 --    25 C    0.971
    45   1 H    1.001 --    25 C    0.972
    46   1 H    1.009 --    25 C    0.977
 ---------------------------------------------------------------------------

           -------------------------------------------------
          | TOTAL ENERGY              -86.310594631311 Eh   |
          | GRADIENT NORM               0.000681073125 Eh/α |
          | HOMO-LUMO GAP               2.070335059942 eV   |
           -------------------------------------------------

 * finished run on 2023/06/20 at 15:52:58.730
