   * xtb version 6.5.1 (579679a) compiled by 'ehlert@majestix' on 2022-07-11
          program call               : /lustre/hpc/kemi/ree/PhD/git/ReactivityQM/dep/xtb-6.5.1/bin/xtb --gfn 1 /lustre/hpc/kemi/ree/PhD/git/ReactivityQM/calculations/R02deprot/reac01prodN16/conf18/R02deprot_reac01prodN16_conf18_gfn1.xyz --opt --vfukui --chrg 0 --uhf 0 --alpb DMSO

   ID    Z sym.   atoms
    1    6 C      1, 3, 5, 7-10, 12, 14, 17, 18, 21, 23, 24
    2    8 O      2, 4, 13, 19, 22, 25
    3    7 N      6, 11, 15, 16, 20
    4    1 H      26-42

      * Solvation model:               ALPB
        Solvent                        DMSO
        Solvent mass                       7.8130E+01 g/mol
          :  Hamiltonian                  GFN1-xTB          :
 * total energy  :   -82.9379647 Eh     change       -0.1544720E-10 Eh
 * total energy  :   -82.9519930 Eh     change       -0.1402823E-01 Eh
 * total energy  :   -82.9577174 Eh     change       -0.5724417E-02 Eh
 * total energy  :   -82.9588175 Eh     change       -0.1100116E-02 Eh
 * total energy  :   -82.9592963 Eh     change       -0.4787747E-03 Eh
 * total energy  :   -82.9595482 Eh     change       -0.2519508E-03 Eh
 * total energy  :   -82.9597441 Eh     change       -0.1958895E-03 Eh
 * total energy  :   -82.9598800 Eh     change       -0.1358523E-03 Eh
 * total energy  :   -82.9599928 Eh     change       -0.1128048E-03 Eh
 * total energy  :   -82.9601130 Eh     change       -0.1202542E-03 Eh
 * total energy  :   -82.9700954 Eh     change       -0.2370665E-04 Eh
 * total energy  :   -82.9701113 Eh     change       -0.1584311E-04 Eh
 * total energy  :   -82.9701206 Eh     change       -0.9319727E-05 Eh
 * total energy  :   -82.9701293 Eh     change       -0.8678973E-05 Eh
 * total energy  :   -82.9701382 Eh     change       -0.8896509E-05 Eh
 * total energy  :   -82.9701372 Eh     change        0.9073222E-06 Eh
 * total energy  :   -82.9701433 Eh     change       -0.6021286E-05 Eh
 * total energy  :   -82.9701499 Eh     change       -0.6634435E-05 Eh
 * total energy  :   -82.9701545 Eh     change       -0.4609841E-05 Eh
   *** GEOMETRY OPTIMIZATION CONVERGED AFTER 99 ITERATIONS ***

 final structure:
================
42
 xtb: 6.5.1 (579679a)
C           -3.72235008455799        0.54533032879958        3.51952096055267
O           -3.38260362853470        0.33907472731135        2.14136864089437
C           -2.36426503886733        1.00906891961047        1.63797395924396
O           -1.67610819614987        1.79393907561022        2.23710511506563
C           -2.13407972519053        0.66080951958746        0.18036350077254
N           -0.92405676261026        0.55845231687939       -0.21385242592641
C           -0.69911924443106        0.19566808192182       -1.55125266127757
C            0.66911528692683       -0.33520292451984       -1.89797577432576
C            1.24321337122593        0.47196037872369       -3.07232326822962
C            0.51280859144224       -1.81724565370041       -2.28068833093687
N            1.52854352143624       -0.20812736842358       -0.72882377068436
C            2.81324480703922       -0.61322637646455       -0.69691087310878
O            3.42745300768559       -1.09890056577605       -1.63075689923840
C            3.40558371011079       -0.38029383004177        0.64602171789299
N            2.79783152876303        0.13482186764299        1.67239463688527
N            3.70402313218526        0.16840839074854        2.68929217544606
C            4.80745791423502       -0.32875293951644        2.21779084075037
C            6.09325035070239       -0.50796207529716        2.92655059824492
O            4.68229102382174       -0.69301131444524        0.93296635253198
N           -1.57125417550129        0.30461425214795       -2.48150296106295
C           -2.86191370554546        0.73429796110375       -2.16162715565736
O           -3.58742657860652        1.29489847402932       -2.94058352089503
C           -3.30188403765208        0.38621454835285       -0.74215663034899
C           -3.60280899664569       -1.13145449715683       -0.66950533195178
O           -4.42802371211459        1.13247607471980       -0.38714071319181
H           -3.47355879887511        1.56468242983166        3.82129891028665
H           -3.17332116855565       -0.16923398916454        4.13538244455348
H           -4.79270499517658        0.36894723405063        3.60823606507993
H            0.53795398890620        0.44696251730908       -3.90123386390693
H            2.18930463509400        0.03947254854810       -3.39123907624306
H            1.40464345221949        1.50541873637771       -2.77010403248555
H            1.47441928075659       -2.22217551067358       -2.58934232789570
H            0.14182015102454       -2.38344736705962       -1.42831688345523
H           -0.19541333756851       -1.90282517202608       -3.10263144578963
H            1.10233516481286        0.14399835936804        0.12043708404432
H            5.97807204348513       -0.22619961654811        3.97028207759245
H            6.41416702883697       -1.54699148538711        2.85922872649825
H            6.86175070876057        0.11255281390374        2.46524934710597
H           -3.91387763366450       -1.37948692684535        0.34256173171257
H           -4.41273216634904       -1.35626660288676       -1.35970968373795
H           -2.72021876796199       -1.70713209555845       -0.93716349776483
H           -4.85156094491661        1.47972275491563       -1.18918075703398

          :  Hamiltonian                  GFN1-xTB          :
         :: total energy             -82.970154515064 Eh    ::
         :: gradient norm              0.000936072650 Eh/a0 ::
         :: HOMO-LUMO gap              1.761779135064 eV    ::
         :: SCC energy               -83.745686047700 Eh    ::
         :: -> Gsolv                  -0.049057704801 Eh    ::
         :: repulsion energy           0.801709953802 Eh    ::

    * Orbital Energies and Occupations

         #    Occupation            Energy/Eh            Energy/eV
      -------------------------------------------------------------
         1        2.0000           -0.8649123             -23.5355
       ...           ...                  ...                  ...
        55        2.0000           -0.5076756             -13.8146
        56        2.0000           -0.5069293             -13.7942
        57        2.0000           -0.5039576             -13.7134
        58        2.0000           -0.5035687             -13.7028
        59        2.0000           -0.4987024             -13.5704
        60        2.0000           -0.4897845             -13.3277
        61        2.0000           -0.4839252             -13.1683
        62        2.0000           -0.4674551             -12.7201
        63        2.0000           -0.4639081             -12.6236
        64        2.0000           -0.4619326             -12.5698
        65        2.0000           -0.4537086             -12.3460
        66        2.0000           -0.4487723             -12.2117
        67        2.0000           -0.4381082             -11.9215 (HOMO)
        68                         -0.3733640             -10.1598 (LUMO)
        69                         -0.3117690              -8.4837
        70                         -0.3102319              -8.4418
        71                         -0.2581885              -7.0257
        72                         -0.2555547              -6.9540
        73                         -0.2417824              -6.5792
        74                         -0.1996619              -5.4331
        75                         -0.1460592              -3.9745
        76                         -0.1432758              -3.8987
        77                         -0.1379347              -3.7534
        78                         -0.1248960              -3.3986
       ...                                ...                  ...
       134                          0.7266339              19.7727
      -------------------------------------------------------------
                  HL-Gap            0.0647442 Eh            1.7618 eV

Wiberg/Mayer (AO) data.
largest (>0.10) Wiberg bond orders for each atom

     #   Z sym  total        # sym  WBO       # sym  WBO       # sym  WBO
 ---------------------------------------------------------------------------
     1   6 C    3.855 --    28 H    0.982    26 H    0.980    27 H    0.978
                             2 O    0.880
     2   8 O    2.237 --     3 C    1.150     1 C    0.880     4 O    0.149
     3   6 C    3.852 --     4 O    1.687     2 O    1.150     5 C    0.939
     4   8 O    1.955 --     3 C    1.687     2 O    0.149
     5   6 C    3.930 --     6 N    1.763    23 C    0.963     3 C    0.939
     6   7 N    3.069 --     5 C    1.763     7 C    1.060
     7   6 C    3.922 --    20 N    1.693     6 N    1.060     8 C    0.996
     8   6 C    3.939 --     7 C    0.996     9 C    0.970    10 C    0.963
                            11 N    0.938
     9   6 C    3.987 --    31 H    0.985    29 H    0.984    30 H    0.979
                             8 C    0.970
    10   6 C    3.987 --    33 H    0.985    34 H    0.985    32 H    0.978
                             8 C    0.963
    11   7 N    3.349 --    12 C    1.256     8 C    0.938    35 H    0.879
                            13 O    0.178
    12   6 C    3.918 --    13 O    1.591    11 N    1.256    14 C    0.989
    13   8 O    1.909 --    12 C    1.591    11 N    0.178
    14   6 C    3.875 --    15 N    1.611    19 O    1.064    12 C    0.989
    15   7 N    3.015 --    14 C    1.611    16 N    1.200
    16   7 N    2.981 --    17 C    1.605    15 N    1.200
    17   6 C    3.871 --    16 N    1.605    19 O    1.083    18 C    1.031
    18   6 C    3.986 --    17 C    1.031    36 H    0.982    37 H    0.965
                            38 H    0.961
    19   8 O    2.330 --    17 C    1.083    14 C    1.064
    20   7 N    3.074 --     7 C    1.693    21 C    1.069
    21   6 C    3.867 --    22 O    1.740    20 N    1.069    23 C    0.934
    22   8 O    1.998 --    21 C    1.740
    23   6 C    3.932 --    25 O    0.983     5 C    0.963    21 C    0.934
                            24 C    0.918
    24   6 C    3.983 --    41 H    0.986    39 H    0.980    40 H    0.978
                            23 C    0.918
    25   8 O    1.901 --    23 C    0.983    42 H    0.827
    26   1 H    1.006 --     1 C    0.980
    27   1 H    1.004 --     1 C    0.978
    28   1 H    1.007 --     1 C    0.982
    29   1 H    1.008 --     9 C    0.984
    30   1 H    1.008 --     9 C    0.979
    31   1 H    1.001 --     9 C    0.985
    32   1 H    1.007 --    10 C    0.978
    33   1 H    1.001 --    10 C    0.985
    34   1 H    1.004 --    10 C    0.985
    35   1 H    0.967 --    11 N    0.879
    36   1 H    0.998 --    18 C    0.982
    37   1 H    0.997 --    18 C    0.965
    38   1 H    0.997 --    18 C    0.961
    39   1 H    1.008 --    24 C    0.980
    40   1 H    0.999 --    24 C    0.978
    41   1 H    1.000 --    24 C    0.986
    42   1 H    0.858 --    25 O    0.827
 ---------------------------------------------------------------------------

           -------------------------------------------------
          | TOTAL ENERGY              -82.970154515064 Eh   |
          | GRADIENT NORM               0.000936072650 Eh/α |
          | HOMO-LUMO GAP               1.761779135064 eV   |
           -------------------------------------------------

 * finished run on 2023/06/20 at 18:26:52.536
