   * xtb version 6.5.1 (579679a) compiled by 'ehlert@majestix' on 2022-07-11
          program call               : /lustre/hpc/kemi/ree/PhD/git/ReactivityQM/dep/xtb-6.5.1/bin/xtb --gfn 1 /lustre/hpc/kemi/ree/PhD/git/ReactivityQM/calculations/R01/reac01prodE06/conf03/R01_reac01prodE06_conf03_gfn1.xyz --opt --vfukui --chrg -1 --uhf 0 --alpb DMSO

   ID    Z sym.   atoms
    1    6 C      1, 3, 5, 8-10
    2    8 O      2, 4, 11
    3    7 N      6, 7
    4    1 H      12-20

      * Solvation model:               ALPB
        Solvent                        DMSO
        Solvent mass                       7.8130E+01 g/mol
          :  Hamiltonian                  GFN1-xTB          :
 * total energy  :   -38.3452112 Eh     change       -0.2671641E-11 Eh
 * total energy  :   -38.3527852 Eh     change       -0.7574031E-02 Eh
 * total energy  :   -38.3548245 Eh     change       -0.2039258E-02 Eh
 * total energy  :   -38.3550339 Eh     change       -0.2093848E-03 Eh
 * total energy  :   -38.3551550 Eh     change       -0.1210906E-03 Eh
 * total energy  :   -38.3551790 Eh     change       -0.2402075E-04 Eh
 * total energy  :   -38.3551940 Eh     change       -0.1497221E-04 Eh
 * total energy  :   -38.3551996 Eh     change       -0.5656453E-05 Eh
 * total energy  :   -38.3552013 Eh     change       -0.1668172E-05 Eh
   *** GEOMETRY OPTIMIZATION CONVERGED AFTER 9 ITERATIONS ***

 final structure:
================
20
 xtb: 6.5.1 (579679a)
C            4.09902314610634        0.19563772072129       -0.43682002242358
O            2.82674492654501       -0.33646735983109       -0.11412834406974
C            1.75350831217529        0.51150999864570       -0.38627639759806
O            1.95480994535805        1.63373668784531       -0.87054804279999
C            0.52582701223943       -0.07960353334221       -0.04434272055043
N            0.33584378368645       -1.29006267956097        0.47881169420623
N           -0.91954366187948       -1.52164177965586        0.67822349236844
C           -1.67199698541509       -0.33141887705297        0.24278632784667
C           -2.63627430075884       -0.71512101699257       -0.89087891883233
C           -2.43662466403474        0.26159464750840        1.43720558601934
O           -0.69980357139985        0.58932119915079       -0.22635628036691
H            4.28726048475463        1.12771032790153        0.10866146410141
H            4.18125158933654        0.39766919965753       -1.51116325526788
H            4.84202944381370       -0.54934151876940       -0.14996315146619
H           -2.07046943229969       -1.14460955108875       -1.71620063591051
H           -3.16937684445942        0.16535038548585       -1.24524210619396
H           -3.35326048474117       -1.44993389347563       -0.53061589830500
H           -1.73105463665029        0.51492707315324        2.22695202728073
H           -3.14918532623336       -0.46782842890257        1.81639024774696
H           -2.96870873614371        1.16131339860266        1.13350493421484

          :  Hamiltonian                  GFN1-xTB          :
         :: total energy             -38.355201275182 Eh    ::
         :: gradient norm              0.000591905884 Eh/a0 ::
         :: HOMO-LUMO gap              2.120757092983 eV    ::
         :: SCC energy               -38.663021904388 Eh    ::
         :: -> Gsolv                  -0.096823464651 Eh    ::
         :: repulsion energy           0.316273092961 Eh    ::

    * Orbital Energies and Occupations

         #    Occupation            Energy/Eh            Energy/eV
      -------------------------------------------------------------
         1        2.0000           -0.7798879             -21.2218
       ...           ...                  ...                  ...
        19        2.0000           -0.5081506             -13.8275
        20        2.0000           -0.4952443             -13.4763
        21        2.0000           -0.4864270             -13.2364
        22        2.0000           -0.4841088             -13.1733
        23        2.0000           -0.4778166             -13.0021
        24        2.0000           -0.4703554             -12.7990
        25        2.0000           -0.4504280             -12.2568
        26        2.0000           -0.4496034             -12.2343
        27        2.0000           -0.4391519             -11.9499
        28        2.0000           -0.4243231             -11.5464
        29        2.0000           -0.4127240             -11.2308
        30        2.0000           -0.3743789             -10.1874
        31        2.0000           -0.3215040              -8.7486 (HOMO)
        32                         -0.2435676              -6.6278 (LUMO)
        33                         -0.1280974              -3.4857
        34                         -0.1157362              -3.1493
        35                         -0.1056137              -2.8739
        36                         -0.0996749              -2.7123
        37                         -0.0588787              -1.6022
        38                         -0.0539855              -1.4690
        39                         -0.0520363              -1.4160
        40                         -0.0473094              -1.2874
        41                         -0.0291077              -0.7921
        42                         -0.0273767              -0.7450
       ...                                ...                  ...
        62                          0.7027633              19.1232
      -------------------------------------------------------------
                  HL-Gap            0.0779364 Eh            2.1208 eV

Wiberg/Mayer (AO) data.
largest (>0.10) Wiberg bond orders for each atom

     #   Z sym  total        # sym  WBO       # sym  WBO       # sym  WBO
 ---------------------------------------------------------------------------
     1   6 C    3.908 --    14 H    0.987    13 H    0.981    12 H    0.981
                             2 O    0.939
     2   8 O    2.085 --     3 C    0.961     1 C    0.939
     3   6 C    3.882 --     4 O    1.489     5 C    1.250     2 O    0.961
                             7 N    0.105
     4   8 O    1.811 --     3 C    1.489
     5   6 C    3.846 --     6 N    1.368     3 C    1.250    11 O    0.931
                             7 N    0.151
     6   7 N    3.024 --     7 N    1.503     5 C    1.368
     7   7 N    2.899 --     6 N    1.503     8 C    0.977     5 C    0.151
                             3 C    0.105
     8   6 C    3.900 --     9 C    0.978    10 C    0.978     7 N    0.977
                            11 O    0.929
     9   6 C    3.995 --    17 H    0.988    16 H    0.986    15 H    0.985
                             8 C    0.978
    10   6 C    3.995 --    19 H    0.988    20 H    0.986    18 H    0.985
                             8 C    0.978
    11   8 O    2.050 --     5 C    0.931     8 C    0.929
    12   1 H    1.017 --     1 C    0.981
    13   1 H    1.016 --     1 C    0.981
    14   1 H    1.018 --     1 C    0.987
    15   1 H    1.014 --     9 C    0.985
    16   1 H    1.008 --     9 C    0.986
    17   1 H    1.010 --     9 C    0.988
    18   1 H    1.014 --    10 C    0.985
    19   1 H    1.010 --    10 C    0.988
    20   1 H    1.008 --    10 C    0.986
 ---------------------------------------------------------------------------

           -------------------------------------------------
          | TOTAL ENERGY              -38.355201275182 Eh   |
          | GRADIENT NORM               0.000591905884 Eh/α |
          | HOMO-LUMO GAP               2.120757092983 eV   |
           -------------------------------------------------

 * finished run on 2023/06/20 at 14:54:20.786
