   * xtb version 6.5.1 (579679a) compiled by 'ehlert@majestix' on 2022-07-11
          program call               : /lustre/hpc/kemi/ree/PhD/git/ReactivityQM/dep/xtb-6.5.1/bin/xtb --gfn 1 /lustre/hpc/kemi/ree/PhD/git/ReactivityQM/calculations/R02/reac01prodN03/conf01/R02_reac01prodN03_conf01_gfn1.xyz --opt --vfukui --chrg 1 --uhf 0 --alpb DMSO

   ID    Z sym.   atoms
    1    6 C      1, 3, 5, 6, 8-11, 13, 15, 18, 19, 22, 24
    2    8 O      2, 4, 14, 20, 23, 25
    3    7 N      7, 12, 16, 17, 21
    4    1 H      26-43

      * Solvation model:               ALPB
        Solvent                        DMSO
        Solvent mass                       7.8130E+01 g/mol
          :  Hamiltonian                  GFN1-xTB          :
 * total energy  :   -83.1206405 Eh     change       -0.8981260E-11 Eh
 * total energy  :   -83.1479522 Eh     change       -0.2731171E-01 Eh
 * total energy  :   -83.1576381 Eh     change       -0.9685902E-02 Eh
 * total energy  :   -83.1601587 Eh     change       -0.2520614E-02 Eh
 * total energy  :   -83.1611185 Eh     change       -0.9597113E-03 Eh
 * total energy  :   -83.1613306 Eh     change       -0.2121936E-03 Eh
 * total energy  :   -83.1614442 Eh     change       -0.1135398E-03 Eh
 * total energy  :   -83.1615151 Eh     change       -0.7093003E-04 Eh
 * total energy  :   -83.1615802 Eh     change       -0.6504735E-04 Eh
 * total energy  :   -83.1616504 Eh     change       -0.7027394E-04 Eh
 * total energy  :   -83.1619863 Eh     change       -0.1471331E-04 Eh
 * total energy  :   -83.1620040 Eh     change       -0.1769316E-04 Eh
 * total energy  :   -83.1620171 Eh     change       -0.1308344E-04 Eh
 * total energy  :   -83.1620255 Eh     change       -0.8431866E-05 Eh
 * total energy  :   -83.1620351 Eh     change       -0.9574664E-05 Eh
 * total energy  :   -83.1620432 Eh     change       -0.8114739E-05 Eh
 * total energy  :   -83.1620485 Eh     change       -0.5301526E-05 Eh
 * total energy  :   -83.1620535 Eh     change       -0.4969068E-05 Eh
 * total energy  :   -83.1620578 Eh     change       -0.4319677E-05 Eh
   *** GEOMETRY OPTIMIZATION CONVERGED AFTER 33 ITERATIONS ***

 final structure:
================
43
 xtb: 6.5.1 (579679a)
C           -3.63136892067636       -1.93684553433853       -0.63746951066629
O           -4.35760509642019       -0.89155428621602        0.02619722159649
C           -3.92071796811567        0.25957686318308        0.39798817152669
O           -4.79225406790091        1.02849826676278        0.97099771115862
C           -6.14959311910956        0.56203686903342        1.14136486414467
C           -2.58177019837195        0.77477226383968        0.23777234816531
N           -1.67543502791862       -0.06956295689908       -0.36993562182863
C           -0.46048390260608        0.32623857205284       -0.56811446771806
C            0.52760932240534       -0.58392692337422       -1.27926571209320
C            0.80014364380681       -0.02671290935057       -2.68490590936917
C           -0.03356381224496       -2.00149379808720       -1.38210349228366
N            1.77291681043560       -0.68166328315944       -0.50992646510771
C            2.73329934073176        0.26206880744104       -0.42619394290676
O            2.63412565503489        1.41085996565112       -0.83512935832208
C            3.93681657612040       -0.25120166894277        0.26081618945460
N            4.09751283021353       -1.44316023207593        0.75339716356569
N            5.35004264397231       -1.48281861741878        1.28166482949953
C            5.87688395835743       -0.31131039276896        1.07680235944704
C            7.22748762646720        0.15279600491181        1.46193486320114
O            5.03146033271324        0.50927822879987        0.43860791215710
N           -0.03356620661884        1.56346637503900       -0.21206765327396
C           -0.80810295884020        2.49943042971338        0.42690597021916
O           -0.38119433503168        3.58525902164814        0.75211488434835
C           -2.19917399131013        2.03971133081371        0.66028813287574
O           -2.95371526403868        2.93092776072254        1.26678660124112
H           -2.80162274015589       -2.26503120987231       -0.01331545536179
H           -3.25801768955218       -1.57660657070762       -1.59506626416645
H           -4.35202484047469       -2.74095479257762       -0.78002875764519
H           -6.14637648486803       -0.32348858111311        1.77676460937568
H           -6.57150185497208        0.32197924415432        0.16562275771678
H           -6.68843320067205        1.38023663773549        1.61112089946737
H            1.17503857165039        0.99344816420036       -2.63885345232621
H           -0.12678246543427       -0.03653905565307       -3.25532878854746
H            1.53415257554588       -0.65566219464800       -3.18559882579582
H            0.70282041668679       -2.65567139015802       -1.84582069921113
H           -0.28298918378576       -2.38468179333581       -0.39420111952598
H           -0.93236250399417       -1.99633943005468       -1.99450093538511
H            1.97927820332708       -1.58751563939156       -0.11431885507792
H            7.14810022626289        0.98138945510797        2.16599400116251
H            7.77897872442531       -0.66421751931698        1.92078579569852
H            7.76245392178903        0.50996207666587        0.58194163394851
H            0.93876834284292        1.82079297589412       -0.42613816295514
H           -3.86923588967484        2.65423046608897        1.43283052959307

          :  Hamiltonian                  GFN1-xTB          :
         :: total energy             -83.162057770369 Eh    ::
         :: gradient norm              0.000659227900 Eh/a0 ::
         :: HOMO-LUMO gap              2.047608187384 eV    ::
         :: SCC energy               -83.953557180263 Eh    ::
         :: -> Gsolv                  -0.112172301524 Eh    ::
         :: repulsion energy           0.818116736158 Eh    ::

    * Orbital Energies and Occupations

         #    Occupation            Energy/Eh            Energy/eV
      -------------------------------------------------------------
         1        2.0000           -0.9158426             -24.9213
       ...           ...                  ...                  ...
        55        2.0000           -0.5297787             -14.4160
        56        2.0000           -0.5252161             -14.2919
        57        2.0000           -0.5175414             -14.0830
        58        2.0000           -0.5137192             -13.9790
        59        2.0000           -0.5124793             -13.9453
        60        2.0000           -0.4931375             -13.4190
        61        2.0000           -0.4898656             -13.3299
        62        2.0000           -0.4807484             -13.0818
        63        2.0000           -0.4756325             -12.9426
        64        2.0000           -0.4714025             -12.8275
        65        2.0000           -0.4624065             -12.5827
        66        2.0000           -0.4603263             -12.5261
        67        2.0000           -0.4578768             -12.4595 (HOMO)
        68                         -0.3826286             -10.4119 (LUMO)
        69                         -0.3235422              -8.8040
        70                         -0.3142950              -8.5524
        71                         -0.2885791              -7.8526
        72                         -0.2629306              -7.1547
        73                         -0.2105821              -5.7302
        74                         -0.1983047              -5.3961
        75                         -0.1710343              -4.6541
        76                         -0.1620389              -4.4093
        77                         -0.1446325              -3.9357
        78                         -0.1370700              -3.7299
       ...                                ...                  ...
       136                          0.7025535              19.1175
      -------------------------------------------------------------
                  HL-Gap            0.0752482 Eh            2.0476 eV

Wiberg/Mayer (AO) data.
largest (>0.10) Wiberg bond orders for each atom

     #   Z sym  total        # sym  WBO       # sym  WBO       # sym  WBO
 ---------------------------------------------------------------------------
     1   6 C    3.812 --    28 H    0.978    26 H    0.970    27 H    0.970
                             2 O    0.848
     2   8 O    2.316 --     3 C    1.260     1 C    0.848
     3   6 C    3.814 --     2 O    1.260     4 O    1.229     6 C    1.134
     4   8 O    2.296 --     3 C    1.229     5 C    0.842
     5   6 C    3.812 --    31 H    0.982    30 H    0.973    29 H    0.973
                             4 O    0.842
     6   6 C    3.954 --    24 C    1.414     7 N    1.148     3 C    1.134
     7   7 N    3.031 --     8 C    1.575     6 C    1.148
     8   6 C    3.924 --     7 N    1.575    21 N    1.198     9 C    0.972
     9   6 C    3.935 --    11 C    1.000    10 C    0.975     8 C    0.972
                            12 N    0.923
    10   6 C    3.984 --    33 H    0.984    34 H    0.981    32 H    0.978
                             9 C    0.975
    11   6 C    3.989 --     9 C    1.000    36 H    0.982    35 H    0.982
                            37 H    0.981
    12   7 N    3.341 --    13 C    1.258     9 C    0.923    38 H    0.889
                            14 O    0.171
    13   6 C    3.912 --    14 O    1.560    12 N    1.258    15 C    1.002
    14   8 O    1.933 --    13 C    1.560    12 N    0.171
    15   6 C    3.880 --    16 N    1.601    20 O    1.065    13 C    1.002
    16   7 N    3.020 --    15 C    1.601    17 N    1.209
    17   7 N    2.981 --    18 C    1.595    16 N    1.209
    18   6 C    3.868 --    17 N    1.595    20 O    1.086    19 C    1.032
    19   6 C    3.985 --    18 C    1.032    40 H    0.982    41 H    0.963
                            39 H    0.961
    20   8 O    2.335 --    18 C    1.086    15 C    1.065
    21   7 N    3.481 --     8 C    1.198    22 C    1.143    42 H    0.820
                            23 O    0.142
    22   6 C    3.914 --    23 O    1.636    21 N    1.143    24 C    1.017
    23   8 O    1.932 --    22 C    1.636    21 N    0.142
    24   6 C    3.904 --     6 C    1.414    25 O    1.180    22 C    1.017
    25   8 O    2.160 --    24 C    1.180    43 H    0.785
    26   1 H    1.013 --     1 C    0.970
    27   1 H    1.012 --     1 C    0.970
    28   1 H    1.001 --     1 C    0.978
    29   1 H    0.997 --     5 C    0.973
    30   1 H    0.998 --     5 C    0.973
    31   1 H    1.000 --     5 C    0.982
    32   1 H    1.006 --    10 C    0.978
    33   1 H    0.999 --    10 C    0.984
    34   1 H    0.997 --    10 C    0.981
    35   1 H    0.996 --    11 C    0.982
    36   1 H    1.000 --    11 C    0.982
    37   1 H    1.004 --    11 C    0.981
    38   1 H    0.944 --    12 N    0.889
    39   1 H    0.996 --    19 C    0.961
    40   1 H    0.998 --    19 C    0.982
    41   1 H    0.996 --    19 C    0.963
    42   1 H    0.916 --    21 N    0.820
    43   1 H    0.830 --    25 O    0.785
 ---------------------------------------------------------------------------

           -------------------------------------------------
          | TOTAL ENERGY              -83.162057770369 Eh   |
          | GRADIENT NORM               0.000659227900 Eh/α |
          | HOMO-LUMO GAP               2.047608187384 eV   |
           -------------------------------------------------

 * finished run on 2023/06/20 at 15:21:06.605
