   * xtb version 6.5.1 (579679a) compiled by 'ehlert@majestix' on 2022-07-11
          program call               : /lustre/hpc/kemi/ree/PhD/git/ReactivityQM/dep/xtb-6.5.1/bin/xtb --gfn 1 /lustre/hpc/kemi/ree/PhD/git/ReactivityQM/calculations/R02oxygendeprot/reac02/conf07/R02oxygendeprot_reac02_conf07_gfn1.xyz --opt --vfukui --chrg 0 --uhf 0 --alpb DMSO

   ID    Z sym.   atoms
    1    6 C      1
    2    5 B      2
    3    8 O      3, 4
    4    1 H      5-9

      * Solvation model:               ALPB
        Solvent                        DMSO
        Solvent mass                       7.8130E+01 g/mol
          :  Hamiltonian                  GFN1-xTB          :
 * total energy  :   -15.7435396 Eh     change       -0.1314504E-12 Eh
 * total energy  :   -15.7456813 Eh     change       -0.2141793E-02 Eh
 * total energy  :   -15.7458904 Eh     change       -0.2090669E-03 Eh
 * total energy  :   -15.7459136 Eh     change       -0.2316470E-04 Eh
 * total energy  :   -15.7459346 Eh     change       -0.2098258E-04 Eh
 * total energy  :   -15.7459395 Eh     change       -0.4926244E-05 Eh
 * total energy  :   -15.7459405 Eh     change       -0.9843342E-06 Eh
   *** GEOMETRY OPTIMIZATION CONVERGED AFTER 7 ITERATIONS ***

 final structure:
================
9
 xtb: 6.5.1 (579679a)
C           -1.04031315175379       -0.41437978217496       -0.07156629332041
B            0.46535274967317        0.04410535871665        0.02093554078974
O            1.45235257710708       -0.90063458331684        0.03727586691714
O            0.84772991216577        1.36213411534484        0.09332126614828
H           -1.12071098112379       -1.47552504317822       -0.30225209522243
H           -1.57775078131155        0.14717872915732       -0.83385650305526
H           -1.54932245683600       -0.23531300902182        0.87540386379290
H            2.34664911061537       -0.56643608102438        0.09943659495988
H            0.17601302146375        2.03887029549741        0.08130175899017

          :  Hamiltonian                  GFN1-xTB          :
         :: total energy             -15.745940473355 Eh    ::
         :: gradient norm              0.000516515981 Eh/a0 ::
         :: HOMO-LUMO gap              7.899291174621 eV    ::
         :: SCC energy               -15.885281661914 Eh    ::
         :: -> Gsolv                  -0.019536210344 Eh    ::
         :: repulsion energy           0.141262280992 Eh    ::

    * Orbital Energies and Occupations

         #    Occupation            Energy/Eh            Energy/eV
      -------------------------------------------------------------
         1        2.0000           -0.7697179             -20.9451
         2        2.0000           -0.7654331             -20.8285
         3        2.0000           -0.6437733             -17.5180
         4        2.0000           -0.6230263             -16.9534
         5        2.0000           -0.6040981             -16.4383
         6        2.0000           -0.5586569             -15.2018
         7        2.0000           -0.5575846             -15.1727
         8        2.0000           -0.5254377             -14.2979
         9        2.0000           -0.5056528             -13.7595
        10        2.0000           -0.5006533             -13.6235
        11        2.0000           -0.4987949             -13.5729
        12        2.0000           -0.4568789             -12.4323 (HOMO)
        13                         -0.1665853              -4.5330 (LUMO)
        14                         -0.1196517              -3.2559
        15                         -0.0879149              -2.3923
        16                         -0.0821324              -2.2349
        17                         -0.0454432              -1.2366
        18                         -0.0407755              -1.1096
        19                          0.1705768               4.6416
        20                          0.2477946               6.7428
        21                          0.2848215               7.7504
        22                          0.3451240               9.3913
        23                          0.3975333              10.8174
       ...                                ...                  ...
        26                          0.5903349              16.0638
      -------------------------------------------------------------
                  HL-Gap            0.2902936 Eh            7.8993 eV

Wiberg/Mayer (AO) data.
largest (>0.10) Wiberg bond orders for each atom

     #   Z sym  total        # sym  WBO       # sym  WBO       # sym  WBO
 ---------------------------------------------------------------------------
     1   6 C    3.975 --     2 B    0.986     5 H    0.985     6 H    0.977
                             7 H    0.970
     2   5 B    3.250 --     3 O    1.129     4 O    1.100     1 C    0.986
     3   8 O    2.044 --     2 B    1.129     8 H    0.836
     4   8 O    2.036 --     2 B    1.100     9 H    0.842
     5   1 H    1.002 --     1 C    0.985
     6   1 H    1.001 --     1 C    0.977
     7   1 H    1.001 --     1 C    0.970
     8   1 H    0.859 --     3 O    0.836
     9   1 H    0.861 --     4 O    0.842
 ---------------------------------------------------------------------------

           -------------------------------------------------
          | TOTAL ENERGY              -15.745940473355 Eh   |
          | GRADIENT NORM               0.000516515981 Eh/α |
          | HOMO-LUMO GAP               7.899291174621 eV   |
           -------------------------------------------------

 * finished run on 2023/06/21 at 17:00:30.064
