                         Program Version 5.0.1 -  RELEASE  -
|  1> # ORCA input file
|  2> ! SP r2SCAN-3c CPCM
|  3>
|  4> %maxcore 1875.0
|  5> %pal nprocs 4 end
|  6> %cpcm smd true SMDsolvent "DMSO" end
|  7>
|  8> *xyz 0 1
|  9> C      -4.765955    2.318002    1.920960
| 10> O      -4.340194    1.359134    0.953734
| 11> C      -3.018534    1.198806    0.826606
| 12> O      -2.234366    1.842193    1.506991
| 13> C      -2.648030    0.167495   -0.150863
| 14> C      -3.573789   -0.843293   -0.531481
| 15> O      -4.770255   -0.879792   -0.239282
| 16> C      -3.000494   -1.978583   -1.341439
| 17> O      -3.637831   -2.898971   -1.810773
| 18> N      -1.623865   -1.951287   -1.502377
| 19> C      -0.790129   -0.941538   -1.166442
| 20> C       0.671840   -1.126958   -1.558909
| 21> C       0.958239   -0.453031   -2.906138
| 22> C       1.044278   -2.616119   -1.660296
| 23> N       1.525824   -0.537814   -0.530309
| 24> C       1.397479   -0.917520    0.765716
| 25> O       0.501103   -1.632337    1.179722
| 26> C       2.431075   -0.328055    1.643529
| 27> N       2.569814   -0.481494    2.923504
| 28> N       3.648031    0.262506    3.293246
| 29> C       4.101743    0.826629    2.217004
| 30> C       5.260092    1.735578    2.086702
| 31> O       3.374990    0.494298    1.136910
| 32> N      -1.302834    0.111532   -0.566403
| 33> C      -0.504021    1.330800   -0.398525
| 34> H      -5.853219    2.348597    1.873793
| 35> H      -4.438818    2.022167    2.921453
| 36> H      -4.351145    3.301242    1.685274
| 37> H      -1.251075   -2.734712   -2.014942
| 38> H       0.788286    0.620072   -2.868846
| 39> H       0.312237   -0.883740   -3.669156
| 40> H       1.995453   -0.631493   -3.182140
| 41> H       2.127578   -2.688941   -1.731084
| 42> H       0.617887   -3.066413   -2.554271
| 43> H       0.712223   -3.160276   -0.777428
| 44> H       2.357755   -0.058704   -0.828218
| 45> H       5.959788    1.339718    1.351293
| 46> H       4.926861    2.713747    1.739096
| 47> H       5.756281    1.840064    3.049040
| 48> H      -1.145049    2.192846   -0.564336
| 49> H       0.296102    1.348700   -1.126410
| 50> H      -0.085358    1.370158    0.605496
| 51> **                         ****END OF INPUT****

CARTESIAN COORDINATES (ANGSTROEM)
---------------------------------
  C     -4.765955    2.318002    1.920960
  O     -4.340194    1.359134    0.953734
  C     -3.018534    1.198806    0.826606
  O     -2.234366    1.842193    1.506991
  C     -2.648030    0.167495   -0.150863
  C     -3.573789   -0.843293   -0.531481
  O     -4.770255   -0.879792   -0.239282
  C     -3.000494   -1.978583   -1.341439
  O     -3.637831   -2.898971   -1.810773
  N     -1.623865   -1.951287   -1.502377
  C     -0.790129   -0.941538   -1.166442
  C      0.671840   -1.126958   -1.558909
  C      0.958239   -0.453031   -2.906138
  C      1.044278   -2.616119   -1.660296
  N      1.525824   -0.537814   -0.530309
  C      1.397479   -0.917520    0.765716
  O      0.501103   -1.632337    1.179722
  C      2.431075   -0.328055    1.643529
  N      2.569814   -0.481494    2.923504
  N      3.648031    0.262506    3.293246
  C      4.101743    0.826629    2.217004
  C      5.260092    1.735578    2.086702
  O      3.374990    0.494298    1.136910
  N     -1.302834    0.111532   -0.566403
  C     -0.504021    1.330800   -0.398525
  H     -5.853219    2.348597    1.873793
  H     -4.438818    2.022167    2.921453
  H     -4.351145    3.301242    1.685274
  H     -1.251075   -2.734712   -2.014942
  H      0.788286    0.620072   -2.868846
  H      0.312237   -0.883740   -3.669156
  H      1.995453   -0.631493   -3.182140
  H      2.127578   -2.688941   -1.731084
  H      0.617887   -3.066413   -2.554271
  H      0.712223   -3.160276   -0.777428
  H      2.357755   -0.058704   -0.828218
  H      5.959788    1.339718    1.351293
  H      4.926861    2.713747    1.739096
  H      5.756281    1.840064    3.049040
  H     -1.145049    2.192846   -0.564336
  H      0.296102    1.348700   -1.126410
  H     -0.085358    1.370158    0.605496

 Total Charge           Charge          ....    0
 Multiplicity           Mult            ....    1
 Number of Electrons    NEL             ....  184
 Basis Dimension        Dim             ....  615

ORBITAL ENERGIES
----------------

  NO   OCC          E(Eh)            E(eV)
   0   2.0000     -19.068624      -518.8836
   1   2.0000     -18.984729      -516.6007
   2   2.0000     -18.944438      -515.5044
   3   2.0000     -18.935308      -515.2559
   4   2.0000     -18.921767      -514.8874
   5   2.0000     -18.898768      -514.2616
   6   2.0000     -14.262027      -388.0895
   7   2.0000     -14.231262      -387.2523
   8   2.0000     -14.208348      -386.6288
   9   2.0000     -14.207994      -386.6192
  10   2.0000     -14.199753      -386.3949
  11   2.0000     -10.163562      -276.5646
  12   2.0000     -10.152866      -276.2735
  13   2.0000     -10.151184      -276.2278
  14   2.0000     -10.150058      -276.1971
  15   2.0000     -10.146519      -276.1008
  16   2.0000     -10.141524      -275.9649
  17   2.0000     -10.124281      -275.4957
  18   2.0000     -10.099030      -274.8086
  19   2.0000     -10.075282      -274.1624
  20   2.0000     -10.069821      -274.0138
  21   2.0000     -10.064735      -273.8754
  22   2.0000     -10.046532      -273.3800
  23   2.0000     -10.035258      -273.0733
  24   2.0000     -10.031979      -272.9840
  25   2.0000      -1.158365       -31.5207
  26   2.0000      -1.063497       -28.9392
  27   2.0000      -1.037492       -28.2316
  28   2.0000      -1.031203       -28.0605
  29   2.0000      -0.997148       -27.1338
  30   2.0000      -0.979013       -26.6403
  31   2.0000      -0.969291       -26.3757
  32   2.0000      -0.964926       -26.2570
  33   2.0000      -0.923190       -25.1213
  34   2.0000      -0.916011       -24.9259
  35   2.0000      -0.835434       -22.7333
  36   2.0000      -0.788880       -21.4665
  37   2.0000      -0.747615       -20.3436
  38   2.0000      -0.716040       -19.4844
  39   2.0000      -0.711908       -19.3720
  40   2.0000      -0.691732       -18.8230
  41   2.0000      -0.677196       -18.4274
  42   2.0000      -0.673121       -18.3166
  43   2.0000      -0.643894       -17.5213
  44   2.0000      -0.624238       -16.9864
  45   2.0000      -0.606105       -16.4929
  46   2.0000      -0.593715       -16.1558
  47   2.0000      -0.574753       -15.6398
  48   2.0000      -0.552572       -15.0363
  49   2.0000      -0.538077       -14.6418
  50   2.0000      -0.529025       -14.3955
  51   2.0000      -0.508461       -13.8359
  52   2.0000      -0.498041       -13.5524
  53   2.0000      -0.488783       -13.3005
  54   2.0000      -0.474023       -12.8988
  55   2.0000      -0.460778       -12.5384
  56   2.0000      -0.458282       -12.4705
  57   2.0000      -0.447645       -12.1810
  58   2.0000      -0.439500       -11.9594
  59   2.0000      -0.435160       -11.8413
  60   2.0000      -0.428514       -11.6605
  61   2.0000      -0.427298       -11.6274
  62   2.0000      -0.414954       -11.2915
  63   2.0000      -0.408714       -11.1217
  64   2.0000      -0.404246       -11.0001
  65   2.0000      -0.401183       -10.9167
  66   2.0000      -0.392974       -10.6934
  67   2.0000      -0.386426       -10.5152
  68   2.0000      -0.383428       -10.4336
  69   2.0000      -0.382193       -10.4000
  70   2.0000      -0.373858       -10.1732
  71   2.0000      -0.367826       -10.0091
  72   2.0000      -0.366858        -9.9827
  73   2.0000      -0.362806        -9.8724
  74   2.0000      -0.356071        -9.6892
  75   2.0000      -0.349490        -9.5101
  76   2.0000      -0.347436        -9.4542
  77   2.0000      -0.343858        -9.3568
  78   2.0000      -0.332528        -9.0485
  79   2.0000      -0.327746        -8.9184
  80   2.0000      -0.317430        -8.6377
  81   2.0000      -0.313177        -8.5220
  82   2.0000      -0.276866        -7.5339
  83   2.0000      -0.270801        -7.3689
  84   2.0000      -0.265762        -7.2318
  85   2.0000      -0.263977        -7.1832
  86   2.0000      -0.257270        -7.0007
  87   2.0000      -0.252526        -6.8716
  88   2.0000      -0.250715        -6.8223
  89   2.0000      -0.233688        -6.3590
  90   2.0000      -0.196444        -5.3455
  91   2.0000      -0.184343        -5.0162
  92   0.0000      -0.092843        -2.5264
  93   0.0000      -0.079504        -2.1634
  94   0.0000      -0.055423        -1.5081
  95   0.0000      -0.022969        -0.6250
  96   0.0000       0.017118         0.4658

MULLIKEN ATOMIC CHARGES
-----------------------
   0 C :   -0.330775
   1 O :   -0.135467
   2 C :    0.274835
   3 O :   -0.454969
   4 C :   -0.164857
   5 C :   -0.025405
   6 O :   -0.373759
   7 C :    0.071045
   8 O :   -0.369925
   9 N :    0.020261
  10 C :    0.086358
  11 C :   -0.040279
  12 C :   -0.474428
  13 C :   -0.624986
  14 N :   -0.154895
  15 C :   -0.116431
  16 O :   -0.418318
  17 C :    0.425131
  18 N :   -0.161311
  19 N :   -0.284770
  20 C :    0.397893
  21 C :   -0.632102
  22 O :   -0.057205
  23 N :    0.394479
  24 C :   -0.410553
  25 H :    0.170838
  26 H :    0.170201
  27 H :    0.169605
  28 H :    0.313825
  29 H :    0.187452
  30 H :    0.206415
  31 H :    0.197491
  32 H :    0.206187
  33 H :    0.190555
  34 H :    0.218402
  35 H :    0.325737
  36 H :    0.200776
  37 H :    0.203414
  38 H :    0.205838
  39 H :    0.189074
  40 H :    0.191146
  41 H :    0.213477
Sum of atomic charges:   -0.0000000

LOEWDIN ATOMIC CHARGES
----------------------
   0 C :   -0.044253
   1 O :   -0.582369
   2 C :    0.392412
   3 O :   -0.489837
   4 C :    0.164785
   5 C :    0.247703
   6 O :   -0.524908
   7 C :    0.378501
   8 O :   -0.418414
   9 N :   -0.449041
  10 C :    0.405103
  11 C :    0.110436
  12 C :   -0.333365
  13 C :   -0.333698
  14 N :   -0.597843
  15 C :    0.379706
  16 O :   -0.433077
  17 C :    0.411592
  18 N :   -0.329664
  19 N :   -0.356857
  20 C :    0.381671
  21 C :   -0.316405
  22 O :   -0.388545
  23 N :   -0.659958
  24 C :   -0.040763
  25 H :    0.182073
  26 H :    0.178128
  27 H :    0.178484
  28 H :    0.309974
  29 H :    0.173619
  30 H :    0.181803
  31 H :    0.179904
  32 H :    0.185283
  33 H :    0.173465
  34 H :    0.186015
  35 H :    0.303087
  36 H :    0.192086
  37 H :    0.193166
  38 H :    0.191768
  39 H :    0.209204
  40 H :    0.200723
  41 H :    0.208304

  Mayer bond orders larger than 0.100000
B(  0-C ,  1-O ) :   0.8364 B(  0-C , 25-H ) :   0.9661 B(  0-C , 26-H ) :   0.9576
B(  0-C , 27-H ) :   0.9581 B(  1-O ,  2-C ) :   1.1339 B(  2-C ,  3-O ) :   1.7611
B(  2-C ,  4-C ) :   1.0793 B(  4-C ,  5-C ) :   1.0615 B(  4-C , 23-N ) :   1.1101
B(  5-C ,  6-O ) :   1.8853 B(  5-C ,  7-C ) :   0.8852 B(  7-C ,  8-O ) :   2.0851
B(  7-C ,  9-N ) :   0.9241 B(  9-N , 10-C ) :   1.2628 B(  9-N , 28-H ) :   0.8826
B( 10-C , 11-C ) :   0.7250 B( 10-C , 16-O ) :   0.1002 B( 10-C , 23-N ) :   1.5307
B( 11-C , 12-C ) :   1.0081 B( 11-C , 13-C ) :   0.8681 B( 11-C , 14-N ) :   0.7954
B( 11-C , 24-C ) :   0.1034 B( 12-C , 29-H ) :   0.9292 B( 12-C , 30-H ) :   0.9586
B( 12-C , 31-H ) :   0.9565 B( 13-C , 32-H ) :   0.9616 B( 13-C , 33-H ) :   0.9557
B( 13-C , 34-H ) :   0.9595 B( 14-N , 15-C ) :   1.1548 B( 14-N , 35-H ) :   0.8945
B( 15-C , 16-O ) :   1.8636 B( 15-C , 17-C ) :   0.7853 B( 15-C , 19-N ) :   0.1047
B( 16-O , 17-C ) :  -0.1117 B( 17-C , 18-N ) :   1.7272 B( 17-C , 20-C ) :   0.1235
B( 17-C , 22-O ) :   1.0765 B( 18-N , 19-N ) :   1.2638 B( 19-N , 20-C ) :   1.6128
B( 20-C , 21-C ) :   0.8254 B( 20-C , 22-O ) :   1.0673 B( 21-C , 36-H ) :   0.9456
B( 21-C , 37-H ) :   0.9388 B( 21-C , 38-H ) :   0.9891 B( 23-N , 24-C ) :   0.8746
B( 24-C , 39-H ) :   0.9271 B( 24-C , 40-H ) :   0.9165 B( 24-C , 41-H ) :   0.9247

Dispersion correction           -0.020044264
FINAL SINGLE POINT ENERGY     -1268.635353455801

DIPOLE MOMENT
-------------
                                X             Y             Z
Electronic contribution:     -7.24368      -6.59131       5.63836
Nuclear contribution   :     14.02476       9.01181      -9.54698
                        -----------------------------------------
Total Dipole Moment    :      6.78108       2.42050      -3.90862
                        -----------------------------------------
Magnitude (a.u.)       :      8.19263
Magnitude (Debye)      :     20.82402

Rotational constants in cm-1:     0.011347     0.004804     0.003823
Rotational constants in MHz :   340.187194   144.030850   114.604442

                             ****ORCA TERMINATED NORMALLY****
TOTAL RUN TIME: 0 days 0 hours 1 minutes 36 seconds 564 msec
