   * xtb version 6.5.1 (579679a) compiled by 'ehlert@majestix' on 2022-07-11
          program call               : /lustre/hpc/kemi/ree/PhD/git/ReactivityQM/dep/xtb-6.5.1/bin/xtb --gfn 1 /lustre/hpc/kemi/ree/PhD/git/ReactivityQM/calculations/R02oxygendeprot/reac01prodN05/conf16/R02oxygendeprot_reac01prodN05_conf16_gfn1.xyz --opt --vfukui --chrg 0 --uhf 0 --alpb DMSO

   ID    Z sym.   atoms
    1    6 C      1, 3, 5, 6, 8, 11-14, 16, 18, 21, 22, 25
    2    8 O      2, 4, 7, 9, 17, 23
    3    7 N      10, 15, 19, 20, 24
    4    1 H      26-42

      * Solvation model:               ALPB
        Solvent                        DMSO
        Solvent mass                       7.8130E+01 g/mol
          :  Hamiltonian                  GFN1-xTB          :
 * total energy  :   -82.9810894 Eh     change       -0.4031619E-10 Eh
 * total energy  :   -82.9928157 Eh     change       -0.1172634E-01 Eh
 * total energy  :   -82.9979234 Eh     change       -0.5107679E-02 Eh
 * total energy  :   -82.9995425 Eh     change       -0.1619097E-02 Eh
 * total energy  :   -83.0008370 Eh     change       -0.1294558E-02 Eh
 * total energy  :   -83.0015280 Eh     change       -0.6909777E-03 Eh
 * total energy  :   -83.0019187 Eh     change       -0.3906944E-03 Eh
 * total energy  :   -83.0021455 Eh     change       -0.2267465E-03 Eh
 * total energy  :   -83.0022728 Eh     change       -0.1273185E-03 Eh
 * total energy  :   -83.0023573 Eh     change       -0.8447362E-04 Eh
 * total energy  :   -83.0027365 Eh     change       -0.1159148E-04 Eh
 * total energy  :   -83.0027480 Eh     change       -0.1150723E-04 Eh
 * total energy  :   -83.0027563 Eh     change       -0.8289676E-05 Eh
 * total energy  :   -83.0027526 Eh     change        0.3656811E-05 Eh
 * total energy  :   -83.0027754 Eh     change       -0.2279003E-04 Eh
 * total energy  :   -83.0027815 Eh     change       -0.6033132E-05 Eh
 * total energy  :   -83.0027905 Eh     change       -0.9014078E-05 Eh
 * total energy  :   -83.0027933 Eh     change       -0.2842639E-05 Eh
 * total energy  :   -83.0027966 Eh     change       -0.3306983E-05 Eh
   *** GEOMETRY OPTIMIZATION CONVERGED AFTER 34 ITERATIONS ***

 final structure:
================
42
 xtb: 6.5.1 (579679a)
C           -4.76595467690078        2.31800243360511        1.92095998732729
O           -4.34019412259092        1.35913364208424        0.95373436803582
C           -3.01853437895528        1.19880639960138        0.82660646481226
O           -2.23436587662413        1.84219294371760        1.50699098690172
C           -2.64802960235211        0.16749471619907       -0.15086263102663
C           -3.57378907350992       -0.84329305346194       -0.53148122404951
O           -4.77025475676059       -0.87979208422553       -0.23928201844653
C           -3.00049389957903       -1.97858333016601       -1.34143947282732
O           -3.63783073835885       -2.89897087390030       -1.81077309770183
N           -1.62386481674984       -1.95128650502807       -1.50237672919370
C           -0.79012910672981       -0.94153826523294       -1.16644224922042
C            0.67183984499462       -1.12695777473496       -1.55890866556688
C            0.95823877381672       -0.45303069066697       -2.90613802236136
C            1.04427799693944       -2.61611855084633       -1.66029611040708
N            1.52582352759872       -0.53781401320994       -0.53030888159250
C            1.39747941134402       -0.91752035462197        0.76571577399003
O            0.50110318046905       -1.63233739841915        1.17972241000433
C            2.43107488368927       -0.32805524731221        1.64352900156495
N            2.56981421862427       -0.48149423962098        2.92350424924103
N            3.64803089479217        0.26250555102030        3.29324573242614
C            4.10174323294122        0.82662911520660        2.21700431793151
C            5.26009171420540        1.73557845192476        2.08670156931798
O            3.37499015221073        0.49429805585519        1.13690956531947
N           -1.30283428514484        0.11153233646446       -0.56640347569380
C           -0.50402110169612        1.33080029504628       -0.39852509158465
H           -5.85321927821169        2.34859741332298        1.87379318075455
H           -4.43881751023643        2.02216741503142        2.92145321709425
H           -4.35114537292706        3.30124181716417        1.68527441016340
H           -1.25107505203260       -2.73471150847669       -2.01494211405235
H            0.78828586319902        0.62007248832874       -2.86884597301158
H            0.31223654158152       -0.88373981597810       -3.66915647864081
H            1.99545286102247       -0.63149329638757       -3.18213971840377
H            2.12757848851764       -2.68894069604156       -1.73108421602593
H            0.61788660784404       -3.06641344153213       -2.55427146818028
H            0.71222342579062       -3.16027562569525       -0.77742805276836
H            2.35775500765281       -0.05870399353978       -0.82821788509095
H            5.95978803221847        1.33971802856741        1.35129255769544
H            4.92686078928554        2.71374742708875        1.73909592809334
H            5.75628107767043        1.84006360403926        3.04903995146193
H           -1.14504872440210        2.19284597639208       -0.56433626219106
H            0.29610212450853        1.34870035360161       -1.12641004371207
H           -0.08535827715440        1.37015829483715        0.60549620961234

          :  Hamiltonian                  GFN1-xTB          :
         :: total energy             -83.002796631271 Eh    ::
         :: gradient norm              0.000769016918 Eh/a0 ::
         :: HOMO-LUMO gap              2.519629897936 eV    ::
         :: SCC energy               -83.784904357535 Eh    ::
         :: -> Gsolv                  -0.084226591551 Eh    ::
         :: repulsion energy           0.809895067228 Eh    ::

    * Orbital Energies and Occupations

         #    Occupation            Energy/Eh            Energy/eV
      -------------------------------------------------------------
         1        2.0000           -0.8697598             -23.6674
       ...           ...                  ...                  ...
        55        2.0000           -0.5099536             -13.8765
        56        2.0000           -0.5095695             -13.8661
        57        2.0000           -0.4932454             -13.4219
        58        2.0000           -0.4901628             -13.3380
        59        2.0000           -0.4885786             -13.2949
        60        2.0000           -0.4853504             -13.2071
        61        2.0000           -0.4757132             -12.9448
        62        2.0000           -0.4721380             -12.8475
        63        2.0000           -0.4666449             -12.6981
        64        2.0000           -0.4573891             -12.4462
        65        2.0000           -0.4552496             -12.3880
        66        2.0000           -0.4250172             -11.5653
        67        2.0000           -0.4136127             -11.2550 (HOMO)
        68                         -0.3210180              -8.7353 (LUMO)
        69                         -0.3191657              -8.6849
        70                         -0.3024335              -8.2296
        71                         -0.2603154              -7.0835
        72                         -0.2377781              -6.4703
        73                         -0.2059915              -5.6053
        74                         -0.1657513              -4.5103
        75                         -0.1473182              -4.0087
        76                         -0.1437293              -3.9111
        77                         -0.1428676              -3.8876
        78                         -0.1338897              -3.6433
       ...                                ...                  ...
       134                          0.7505487              20.4235
      -------------------------------------------------------------
                  HL-Gap            0.0925947 Eh            2.5196 eV

Wiberg/Mayer (AO) data.
largest (>0.10) Wiberg bond orders for each atom

     #   Z sym  total        # sym  WBO       # sym  WBO       # sym  WBO
 ---------------------------------------------------------------------------
     1   6 C    3.879 --    26 H    0.986    28 H    0.980    27 H    0.980
                             2 O    0.905
     2   8 O    2.198 --     3 C    1.101     1 C    0.905     4 O    0.120
     3   6 C    3.865 --     4 O    1.581     2 O    1.101     5 C    1.085
     4   8 O    1.894 --     3 C    1.581     2 O    0.120
     5   6 C    3.852 --     6 C    1.261     3 C    1.085    24 N    1.053
                             7 O    0.140
     6   6 C    3.945 --     7 O    1.568     5 C    1.261     8 C    0.954
     7   8 O    1.879 --     6 C    1.568     5 C    0.140
     8   6 C    3.868 --     9 O    1.657    10 N    1.092     6 C    0.954
     9   8 O    1.928 --     8 C    1.657    10 N    0.117
    10   7 N    3.455 --    11 C    1.206     8 C    1.092    29 H    0.879
                             9 O    0.117
    11   6 C    3.915 --    24 N    1.436    10 N    1.206    12 C    0.976
    12   6 C    3.938 --    14 C    0.985    13 C    0.981    11 C    0.976
                            15 N    0.937
    13   6 C    3.983 --    31 H    0.982    12 C    0.981    32 H    0.979
                            30 H    0.976
    14   6 C    3.986 --    12 C    0.985    35 H    0.980    33 H    0.980
                            34 H    0.979
    15   7 N    3.330 --    16 C    1.230    12 C    0.937    36 H    0.887
                            17 O    0.169
    16   6 C    3.913 --    17 O    1.594    15 N    1.230    18 C    1.001
    17   8 O    1.897 --    16 C    1.594    15 N    0.169
    18   6 C    3.876 --    19 N    1.617    23 O    1.047    16 C    1.001
    19   7 N    3.004 --    18 C    1.617    20 N    1.203
    20   7 N    2.982 --    21 C    1.605    19 N    1.203
    21   6 C    3.866 --    20 N    1.605    23 O    1.073    22 C    1.033
    22   6 C    3.985 --    21 C    1.033    39 H    0.982    37 H    0.963
                            38 H    0.960
    23   8 O    2.317 --    21 C    1.073    18 C    1.047
    24   7 N    3.593 --    11 C    1.436     5 C    1.053    25 C    0.921
    25   6 C    3.913 --    40 H    0.976    41 H    0.975    42 H    0.969
                            24 N    0.921
    26   1 H    1.012 --     1 C    0.986
    27   1 H    1.009 --     1 C    0.980
    28   1 H    1.010 --     1 C    0.980
    29   1 H    0.933 --    10 N    0.879
    30   1 H    0.999 --    13 C    0.976
    31   1 H    0.998 --    13 C    0.982
    32   1 H    0.993 --    13 C    0.979
    33   1 H    0.998 --    14 C    0.980
    34   1 H    0.997 --    14 C    0.979
    35   1 H    1.004 --    14 C    0.980
    36   1 H    0.928 --    15 N    0.887
    37   1 H    0.996 --    22 C    0.963
    38   1 H    0.996 --    22 C    0.960
    39   1 H    0.998 --    22 C    0.982
    40   1 H    1.005 --    25 C    0.976
    41   1 H    1.008 --    25 C    0.975
    42   1 H    1.014 --    25 C    0.969
 ---------------------------------------------------------------------------

           -------------------------------------------------
          | TOTAL ENERGY              -83.002796631271 Eh   |
          | GRADIENT NORM               0.000769016918 Eh/α |
          | HOMO-LUMO GAP               2.519629897936 eV   |
           -------------------------------------------------

 * finished run on 2023/06/21 at 17:20:58.984
