   * xtb version 6.5.1 (579679a) compiled by 'ehlert@majestix' on 2022-07-11
          program call               : /lustre/hpc/kemi/ree/PhD/git/ReactivityQM/dep/xtb-6.5.1/bin/xtb --gfn 1 /lustre/hpc/kemi/ree/PhD/git/ReactivityQM/calculations/R02/reac01prodE08/conf18/R02_reac01prodE08_conf18_gfn1.xyz --opt --vfukui --chrg -1 --uhf 0 --alpb DMSO

   ID    Z sym.   atoms
    1    6 C      1, 3, 5, 7-10, 12, 14, 15, 18, 19, 22, 24
    2    8 O      2, 4, 13, 20, 23, 25
    3    7 N      6, 11, 16, 17, 21
    4    1 H      26-43

      * Solvation model:               ALPB
        Solvent                        DMSO
        Solvent mass                       7.8130E+01 g/mol
          :  Hamiltonian                  GFN1-xTB          :
 * total energy  :   -83.8444050 Eh     change       -0.1647038E-10 Eh
 * total energy  :   -83.8569491 Eh     change       -0.1254407E-01 Eh
 * total energy  :   -83.8615910 Eh     change       -0.4641859E-02 Eh
 * total energy  :   -83.8623940 Eh     change       -0.8030866E-03 Eh
 * total energy  :   -83.8628888 Eh     change       -0.4947531E-03 Eh
 * total energy  :   -83.8631552 Eh     change       -0.2664246E-03 Eh
 * total energy  :   -83.8634492 Eh     change       -0.2939788E-03 Eh
 * total energy  :   -83.8637339 Eh     change       -0.2847133E-03 Eh
 * total energy  :   -83.8639632 Eh     change       -0.2293233E-03 Eh
 * total energy  :   -83.8641171 Eh     change       -0.1538976E-03 Eh
 * total energy  :   -83.8655469 Eh     change       -0.1636492E-04 Eh
 * total energy  :   -83.8655625 Eh     change       -0.1568078E-04 Eh
 * total energy  :   -83.8655737 Eh     change       -0.1116719E-04 Eh
 * total energy  :   -83.8655874 Eh     change       -0.1366355E-04 Eh
 * total energy  :   -83.8655938 Eh     change       -0.6464308E-05 Eh
 * total energy  :   -83.8656013 Eh     change       -0.7466476E-05 Eh
 * total energy  :   -83.8656119 Eh     change       -0.1055244E-04 Eh
 * total energy  :   -83.8656175 Eh     change       -0.5633529E-05 Eh
 * total energy  :   -83.8656194 Eh     change       -0.1944446E-05 Eh
   *** GEOMETRY OPTIMIZATION CONVERGED AFTER 52 ITERATIONS ***

 final structure:
================
43
 xtb: 6.5.1 (579679a)
C            6.41238608031031        0.74774799433198        2.08645440679104
O            5.28351072413585        1.05311941749247        1.27393506385109
C            4.31167525916349        0.11494312597457        1.23486604620725
O            4.39989478559985       -0.92812481771762        1.86529679728417
C            3.17482350548070        0.47021669183593        0.37966824425815
N            2.18662741071781       -0.49294364102361        0.33383352466812
C            1.13712016842717       -0.31150988593245       -0.38678604721465
C            0.06402200809841       -1.37823217886463       -0.46744551835498
C            0.10336335054117       -2.00948529966555       -1.86796736634815
C            0.29489564383890       -2.44108285905345        0.61286647848252
N           -1.21983888159987       -0.71416506396615       -0.25455642034819
C           -2.40902451813408       -1.33881799141624       -0.24557163552100
O           -2.60914980922817       -2.49158999605174       -0.60107267116910
C           -3.54237282339240       -0.39909081384639        0.29133215505177
C           -4.40263972764804       -1.19981719787592        1.27934510976362
N           -2.95176480396307        0.78065739726082        0.89810187184445
N           -3.39487379133070        1.84462449746503        0.16913530040269
C           -4.16364358740079        1.43010041839206       -0.77394753927644
C           -4.86294656087160        2.25478770991631       -1.79378625145991
O           -4.33178153869466        0.06073814821349       -0.80192464141786
N            0.93757546303627        0.82362340942304       -1.12925155010017
C            1.85996103577688        1.85608521375133       -1.16758540333263
O            1.67600252370133        2.86676995111196       -1.85128225835441
C            3.02622180616578        1.63870403772397       -0.35504206358387
O            3.94538199830409        2.63373815932130       -0.37146608154257
H            7.09347894494257        1.59378424435085        2.01139280586091
H            6.10875012100744        0.60374397156091        3.12755556843669
H            6.90615183447961       -0.16152984355584        1.73130036276320
H           -0.09808386940059       -1.25443315461866       -2.62590585717109
H           -0.64328982653092       -2.79762268907757       -1.94572352580104
H            1.08923326104500       -2.43554965625288       -2.04720384679232
H            1.27639695475777       -2.89224026979644        0.47541618907464
H           -0.46794190652795       -3.21422242376318        0.54160329302441
H            0.25342760871804       -1.98470927673961        1.60118196318438
H           -1.24129169042097        0.19281391327883        0.22617565430558
H           -5.25345801243898       -0.59623910332435        1.58773723595165
H           -3.80497848842957       -1.45233649625584        2.15275783084683
H           -4.75792288610873       -2.11320992626266        0.80465565836636
H           -4.60203598972492        3.30176855581346       -1.65281439192837
H           -4.57752970973449        1.94593139236839       -2.80070853623391
H           -5.94474096242385        2.14084746874131       -1.70370564855131
H            0.11591514484203        0.91748057875200       -1.70701895019281
H            3.62249275091469        3.33472828797864       -0.96475935571785

          :  Hamiltonian                  GFN1-xTB          :
         :: total energy             -83.865619438408 Eh    ::
         :: gradient norm              0.000341330829 Eh/a0 ::
         :: HOMO-LUMO gap              0.082097241704 eV    ::
         :: SCC energy               -84.622024776250 Eh    ::
         :: -> Gsolv                  -0.104906367143 Eh    ::
         :: repulsion energy           0.783163141195 Eh    ::

    * Orbital Energies and Occupations

         #    Occupation            Energy/Eh            Energy/eV
      -------------------------------------------------------------
         1        2.0000           -0.8162464             -22.2112
       ...           ...                  ...                  ...
        56        2.0000           -0.4781059             -13.0099
        57        2.0000           -0.4733470             -12.8804
        58        2.0000           -0.4637059             -12.6181
        59        2.0000           -0.4615399             -12.5591
        60        2.0000           -0.4395646             -11.9612
        61        2.0000           -0.4333353             -11.7917
        62        2.0000           -0.4304833             -11.7140
        63        2.0000           -0.4281910             -11.6517
        64        2.0000           -0.4221354             -11.4869
        65        2.0000           -0.4109671             -11.1830
        66        2.0000           -0.4092431             -11.1361
        67        2.0000           -0.3847706             -10.4701
        68        1.6606           -0.3106305              -8.4527 (HOMO)
        69        0.3394           -0.3076135              -8.3706 (LUMO)
        70                         -0.2620048              -7.1295
        71                         -0.2315367              -6.3004
        72                         -0.2177903              -5.9264
        73                         -0.1937669              -5.2727
        74                         -0.1352147              -3.6794
        75                         -0.1300893              -3.5399
        76                         -0.1188652              -3.2345
        77                         -0.1179405              -3.2093
        78                         -0.1123397              -3.0569
        79                         -0.1019496              -2.7742
       ...                                ...                  ...
       136                          0.7092233              19.2989
      -------------------------------------------------------------
                  HL-Gap            0.0030170 Eh            0.0821 eV

Wiberg/Mayer (AO) data.
largest (>0.10) Wiberg bond orders for each atom

     #   Z sym  total        # sym  WBO       # sym  WBO       # sym  WBO
 ---------------------------------------------------------------------------
     1   6 C    3.888 --    26 H    0.987    27 H    0.980    28 H    0.980
                             2 O    0.915
     2   8 O    2.151 --     3 C    1.061     1 C    0.915     4 O    0.117
     3   6 C    3.784 --     4 O    1.591     5 C    1.065     2 O    1.061
     4   8 O    1.826 --     3 C    1.591     2 O    0.117
     5   6 C    3.861 --    24 C    1.398     6 N    1.157     3 C    1.065
     6   7 N    3.016 --     7 C    1.611     5 C    1.157
     7   6 C    3.907 --     6 N    1.611    21 N    1.144     8 C    0.979
     8   6 C    3.946 --    10 C    0.992     9 C    0.980     7 C    0.979
                            11 N    0.929
     9   6 C    3.990 --    31 H    0.987    29 H    0.984     8 C    0.980
                            30 H    0.979
    10   6 C    3.993 --     8 C    0.992    34 H    0.986    32 H    0.985
                            33 H    0.984
    11   7 N    3.327 --    12 C    1.279     8 C    0.929    35 H    0.863
                            13 O    0.164
    12   6 C    3.850 --    13 O    1.601    11 N    1.279    14 C    0.883
    13   8 O    1.893 --    12 C    1.601    11 N    0.164
    14   6 C    3.891 --    16 N    1.018    15 C    0.970    20 O    0.911
                            12 C    0.883
    15   6 C    3.973 --    37 H    0.987    36 H    0.985    38 H    0.985
                            14 C    0.970
    16   7 N    2.492 --    17 N    1.189    14 C    1.018    18 C    0.103
    17   7 N    2.986 --    18 C    1.634    16 N    1.189
    18   6 C    3.767 --    17 N    1.634    19 C    1.022    20 O    0.983
                            16 N    0.103
    19   6 C    3.994 --    18 C    1.022    39 H    0.986    40 H    0.973
                            41 H    0.972
    20   8 O    2.079 --    18 C    0.983    14 C    0.911
    21   7 N    3.381 --     7 C    1.144    22 C    1.093    42 H    0.891
                            23 O    0.114
    22   6 C    3.856 --    23 O    1.516    24 C    1.134    21 N    1.093
    23   8 O    1.815 --    22 C    1.516    21 N    0.114
    24   6 C    3.795 --     5 C    1.398    22 C    1.134    25 O    1.066
    25   8 O    2.023 --    24 C    1.066    43 H    0.821
    26   1 H    1.014 --     1 C    0.987
    27   1 H    1.010 --     1 C    0.980
    28   1 H    1.010 --     1 C    0.980
    29   1 H    1.004 --     9 C    0.984
    30   1 H    1.014 --     9 C    0.979
    31   1 H    1.003 --     9 C    0.987
    32   1 H    1.012 --    10 C    0.985
    33   1 H    1.010 --    10 C    0.984
    34   1 H    1.008 --    10 C    0.986
    35   1 H    0.975 --    11 N    0.863
    36   1 H    1.010 --    15 C    0.985
    37   1 H    1.009 --    15 C    0.987
    38   1 H    1.010 --    15 C    0.985
    39   1 H    1.006 --    19 C    0.986
    40   1 H    1.001 --    19 C    0.973
    41   1 H    1.001 --    19 C    0.972
    42   1 H    0.939 --    21 N    0.891
    43   1 H    0.862 --    25 O    0.821
 ---------------------------------------------------------------------------

           -------------------------------------------------
          | TOTAL ENERGY              -83.865619438408 Eh   |
          | GRADIENT NORM               0.000341330829 Eh/α |
          | HOMO-LUMO GAP               0.082097241704 eV   |
           -------------------------------------------------

 * finished run on 2023/06/20 at 15:06:53.546
