   * xtb version 6.5.1 (579679a) compiled by 'ehlert@majestix' on 2022-07-11
          program call               : /lustre/hpc/kemi/ree/PhD/git/ReactivityQM/dep/xtb-6.5.1/bin/xtb --gfn 1 /lustre/hpc/kemi/ree/PhD/git/ReactivityQM/calculations/R03/reac02prodN05/conf15/R03_reac02prodN05_conf15_gfn1.xyz --opt --vfukui --chrg 1 --uhf 0 --alpb DMSO

   ID    Z sym.   atoms
    1    6 C      1, 3, 5, 6, 8, 11-15, 17, 19, 22, 23, 26
    2    8 O      2, 4, 7, 9, 18, 24
    3    7 N      10, 16, 20, 21, 25
    4    1 H      27-46

      * Solvation model:               ALPB
        Solvent                        DMSO
        Solvent mass                       7.8130E+01 g/mol
          :  Hamiltonian                  GFN1-xTB          :
 * total energy  :   -86.3045250 Eh     change       -0.2427214E-10 Eh
 * total energy  :   -86.3246166 Eh     change       -0.2009153E-01 Eh
 * total energy  :   -86.3324676 Eh     change       -0.7851012E-02 Eh
 * total energy  :   -86.3347685 Eh     change       -0.2300959E-02 Eh
 * total energy  :   -86.3362825 Eh     change       -0.1513969E-02 Eh
 * total energy  :   -86.3370529 Eh     change       -0.7703666E-03 Eh
 * total energy  :   -86.3375181 Eh     change       -0.4652556E-03 Eh
 * total energy  :   -86.3378340 Eh     change       -0.3159183E-03 Eh
 * total energy  :   -86.3381016 Eh     change       -0.2675922E-03 Eh
 * total energy  :   -86.3384082 Eh     change       -0.3065722E-03 Eh
 * total energy  :   -86.3401072 Eh     change       -0.1970752E-04 Eh
 * total energy  :   -86.3401340 Eh     change       -0.2677317E-04 Eh
 * total energy  :   -86.3401486 Eh     change       -0.1462411E-04 Eh
 * total energy  :   -86.3401591 Eh     change       -0.1049846E-04 Eh
 * total energy  :   -86.3401691 Eh     change       -0.1000697E-04 Eh
 * total energy  :   -86.3401613 Eh     change        0.7775928E-05 Eh
 * total energy  :   -86.3401732 Eh     change       -0.1184571E-04 Eh
 * total energy  :   -86.3401786 Eh     change       -0.5393854E-05 Eh
 * total energy  :   -86.3401833 Eh     change       -0.4691631E-05 Eh
   *** GEOMETRY OPTIMIZATION CONVERGED AFTER 37 ITERATIONS ***

 final structure:
================
46
 xtb: 6.5.1 (579679a)
C           -4.86244570335099       -2.75659957978861       -0.58914402121404
O           -4.27744927416214       -1.50249283988099       -0.19832237601184
C           -2.96573491238076       -1.42533795432033       -0.21568590790703
O           -2.22866662497795       -2.32396807340908       -0.53749306453358
C           -2.47616713354130       -0.07872416713341        0.26289217583077
C           -3.12497947769799        0.63669285088106        1.22187093918937
O           -4.27348940153725        0.26762802893804        1.76771039387076
C           -2.57508307423653        1.90246891756560        1.68781726722402
O           -3.17052030075109        2.62932673409331        2.45251348215366
N           -1.30340817766450        2.22298391806540        1.19364401598733
C           -0.87351745461878        3.56322679185928        1.62179305347167
C           -0.60652953457591        1.42133774326924        0.36240166121085
C            0.89853854257519        1.63002094668846        0.13879245121324
C            1.15426055327256        2.60218349944321       -1.02418682351890
C            1.62500107928889        2.08710718840299        1.42081804410898
N            1.44347026939734        0.30179718742405       -0.14397585003118
C            2.65995952285453        0.08734441734370       -0.72975204309366
O            3.35734647665938        0.93026976589756       -1.24895474626815
C            2.97787806390392       -1.35732230582304       -0.69090838477224
N            2.20412806943648       -2.29368872548428       -0.22591422122785
N            2.86213422494077       -3.46959477002637       -0.40452509866654
C            3.99765920488058       -3.17788161209563       -0.96905770341358
C            5.07631022553919       -4.10736142551317       -1.36885142168603
O            4.12547522673514       -1.85961462768506       -1.17526756088732
N           -1.23925613465881        0.38124303254827       -0.19039756671405
C           -0.75318839869179       -0.24114829264337       -1.43930968536274
H           -5.93602772705513       -2.64876028396710       -0.44662974906684
H           -4.63039081435452       -2.95713473577990       -1.63727896162018
H           -4.46638914738404       -3.56002690229642        0.03587455376245
H           -4.57600310837588        0.93917068521460        2.40792309119725
H           -1.76689606104061        4.18722640072744        1.64568738638503
H           -0.45115657911328        3.51236918802614        2.62318071313413
H           -0.16694100376929        3.97629877771941        0.91394410459355
H            1.05403527286786        2.09735481043886       -1.98240556085259
H            0.44165503173723        3.42296442324252       -0.98843940397234
H            2.16194047676260        3.00576793763637       -0.94920305116063
H            2.66777661384220        1.78513390986775        1.32927747481589
H            1.60800451082549        3.16503007062264        1.54533933991844
H            1.19976832584648        1.60599352577827        2.29900972636235
H            1.11134759920326       -0.43924022801956        0.45663257248745
H            5.97421795555016       -3.90686724210031       -0.78320519485761
H            4.75694901464101       -5.13351772663249       -1.20373375740094
H            5.32037493623668       -3.96101595268473       -2.42097273643096
H           -0.08976587055285        0.44577559395057       -1.94921930726381
H           -1.62066801033556       -0.42805015917251       -2.06832375992030
H           -0.24355727218011       -1.17836774116795       -1.22308048906458

          :  Hamiltonian                  GFN1-xTB          :
         :: total energy             -86.340183257315 Eh    ::
         :: gradient norm              0.000910665973 Eh/a0 ::
         :: HOMO-LUMO gap              2.623820008322 eV    ::
         :: SCC energy               -87.174292452542 Eh    ::
         :: -> Gsolv                  -0.107955031153 Eh    ::
         :: repulsion energy           0.864806266147 Eh    ::

    * Orbital Energies and Occupations

         #    Occupation            Energy/Eh            Energy/eV
      -------------------------------------------------------------
         1        2.0000           -0.8916777             -24.2638
       ...           ...                  ...                  ...
        58        2.0000           -0.5337476             -14.5240
        59        2.0000           -0.5266356             -14.3305
        60        2.0000           -0.5231431             -14.2354
        61        2.0000           -0.5223616             -14.2142
        62        2.0000           -0.5189699             -14.1219
        63        2.0000           -0.5162564             -14.0481
        64        2.0000           -0.5005238             -13.6199
        65        2.0000           -0.4939211             -13.4403
        66        2.0000           -0.4823803             -13.1262
        67        2.0000           -0.4794053             -13.0453
        68        2.0000           -0.4760563             -12.9542
        69        2.0000           -0.4635817             -12.6147
        70        2.0000           -0.4618045             -12.5663 (HOMO)
        71                         -0.3653809              -9.9425 (LUMO)
        72                         -0.3640342              -9.9059
        73                         -0.3269183              -8.8959
        74                         -0.2856832              -7.7738
        75                         -0.2658264              -7.2335
        76                         -0.2201941              -5.9918
        77                         -0.2143731              -5.8334
        78                         -0.1673790              -4.5546
        79                         -0.1588413              -4.3223
        80                         -0.1517951              -4.1306
        81                         -0.1500084              -4.0819
       ...                                ...                  ...
       144                          0.7246420              19.7185
      -------------------------------------------------------------
                  HL-Gap            0.0964236 Eh            2.6238 eV

Wiberg/Mayer (AO) data.
largest (>0.10) Wiberg bond orders for each atom

     #   Z sym  total        # sym  WBO       # sym  WBO       # sym  WBO
 ---------------------------------------------------------------------------
     1   6 C    3.848 --    27 H    0.984    29 H    0.978    28 H    0.978
                             2 O    0.874
     2   8 O    2.237 --     3 C    1.165     1 C    0.874     4 O    0.146
     3   6 C    3.866 --     4 O    1.662     2 O    1.165     5 C    0.966
     4   8 O    1.955 --     3 C    1.662     2 O    0.146
     5   6 C    3.921 --     6 C    1.524    25 N    1.088     3 C    0.966
     6   6 C    3.929 --     5 C    1.524     7 O    1.144     8 C    1.049
     7   8 O    2.114 --     6 C    1.144    30 H    0.789
     8   6 C    3.906 --     9 O    1.641    10 N    1.069     6 C    1.049
     9   8 O    1.968 --     8 C    1.641    10 N    0.118
    10   7 N    3.532 --    12 C    1.288     8 C    1.069    11 C    0.905
                             9 O    0.118
    11   6 C    3.889 --    33 H    0.978    32 H    0.970    31 H    0.965
                            10 N    0.905
    12   6 C    3.897 --    25 N    1.368    10 N    1.288    13 C    0.974
    13   6 C    3.927 --    15 C    0.974    12 C    0.974    14 C    0.973
                            16 N    0.941
    14   6 C    3.978 --    35 H    0.979    36 H    0.974    34 H    0.974
                            13 C    0.973
    15   6 C    3.981 --    39 H    0.984    38 H    0.978    37 H    0.976
                            13 C    0.974
    16   7 N    3.293 --    17 C    1.187    13 C    0.941    40 H    0.892
                            18 O    0.163
    17   6 C    3.908 --    18 O    1.634    16 N    1.187    19 C    0.997
    18   8 O    1.942 --    17 C    1.634    16 N    0.163
    19   6 C    3.880 --    20 N    1.598    24 O    1.068    17 C    0.997
    20   7 N    3.026 --    19 C    1.598    21 N    1.210
    21   7 N    2.982 --    22 C    1.593    20 N    1.210
    22   6 C    3.867 --    21 N    1.593    24 O    1.085    23 C    1.033
    23   6 C    3.984 --    22 C    1.033    42 H    0.982    43 H    0.964
                            41 H    0.959
    24   8 O    2.337 --    22 C    1.085    19 C    1.068
    25   7 N    3.564 --    12 C    1.368     5 C    1.088    26 C    0.898
    26   6 C    3.887 --    44 H    0.977    45 H    0.972    46 H    0.967
                            25 N    0.898
    27   1 H    1.007 --     1 C    0.984
    28   1 H    1.003 --     1 C    0.978
    29   1 H    1.003 --     1 C    0.978
    30   1 H    0.823 --     7 O    0.789
    31   1 H    0.997 --    11 C    0.965
    32   1 H    0.995 --    11 C    0.970
    33   1 H    1.001 --    11 C    0.978
    34   1 H    1.001 --    14 C    0.974
    35   1 H    0.999 --    14 C    0.979
    36   1 H    1.007 --    14 C    0.974
    37   1 H    0.996 --    15 C    0.976
    38   1 H    0.999 --    15 C    0.978
    39   1 H    0.995 --    15 C    0.984
    40   1 H    0.948 --    16 N    0.892
    41   1 H    0.995 --    23 C    0.959
    42   1 H    0.997 --    23 C    0.982
    43   1 H    0.996 --    23 C    0.964
    44   1 H    1.005 --    26 C    0.977
    45   1 H    0.996 --    26 C    0.972
    46   1 H    1.015 --    26 C    0.967
 ---------------------------------------------------------------------------

           -------------------------------------------------
          | TOTAL ENERGY              -86.340183257315 Eh   |
          | GRADIENT NORM               0.000910665973 Eh/α |
          | HOMO-LUMO GAP               2.623820008322 eV   |
           -------------------------------------------------

 * finished run on 2023/06/20 at 15:40:27.885
