   * xtb version 6.5.1 (579679a) compiled by 'ehlert@majestix' on 2022-07-11
          program call               : /lustre/hpc/kemi/ree/PhD/git/ReactivityQM/dep/xtb-6.5.1/bin/xtb --gfn 1 /lustre/hpc/kemi/ree/PhD/git/ReactivityQM/calculations/R02methylcation/reac01prodN11/conf02/R02methylcation_reac01prodN11_conf02_gfn1.xyz --opt --vfukui --chrg 0 --uhf 0 --alpb DMSO

   ID    Z sym.   atoms
    1    6 C      1, 3, 5, 7-10, 12, 13, 15, 18, 19, 22, 24
    2    8 O      2, 4, 14, 20, 23, 25
    3    7 N      6, 11, 16, 17, 21
    4    1 H      26-42

      * Solvation model:               ALPB
        Solvent                        DMSO
        Solvent mass                       7.8130E+01 g/mol
          :  Hamiltonian                  GFN1-xTB          :
 * total energy  :   -82.8627884 Eh     change       -0.2034994E-10 Eh
 * total energy  :   -82.8766270 Eh     change       -0.1383868E-01 Eh
 * total energy  :   -82.8834199 Eh     change       -0.6792852E-02 Eh
 * total energy  :   -82.8846371 Eh     change       -0.1217154E-02 Eh
 * total energy  :   -82.8852975 Eh     change       -0.6604742E-03 Eh
 * total energy  :   -82.8856678 Eh     change       -0.3703171E-03 Eh
 * total energy  :   -82.8859174 Eh     change       -0.2495271E-03 Eh
 * total energy  :   -82.8860915 Eh     change       -0.1741218E-03 Eh
 * total energy  :   -82.8862125 Eh     change       -0.1210178E-03 Eh
 * total energy  :   -82.8862999 Eh     change       -0.8738578E-04 Eh
 * total energy  :   -82.8875831 Eh     change       -0.1227435E-04 Eh
 * total energy  :   -82.8875936 Eh     change       -0.1048221E-04 Eh
 * total energy  :   -82.8876044 Eh     change       -0.1080139E-04 Eh
 * total energy  :   -82.8876149 Eh     change       -0.1048335E-04 Eh
 * total energy  :   -82.8876272 Eh     change       -0.1235122E-04 Eh
 * total energy  :   -82.8876368 Eh     change       -0.9607885E-05 Eh
 * total energy  :   -82.8876484 Eh     change       -0.1157255E-04 Eh
 * total energy  :   -82.8876535 Eh     change       -0.5125883E-05 Eh
 * total energy  :   -82.8876577 Eh     change       -0.4150701E-05 Eh
   *** GEOMETRY OPTIMIZATION CONVERGED AFTER 45 ITERATIONS ***

 final structure:
================
42
 xtb: 6.5.1 (579679a)
C            6.81956564635374        1.16983213185824       -0.25591606776909
O            5.48232951370854        1.17232014062820        0.25250860681807
C            4.59207578002037        0.45584233335330       -0.42027239817578
O            4.85547232939674       -0.17622326844905       -1.41846303640099
C            3.21595817824640        0.49526344043696        0.16979097972001
N            2.29490174313630       -0.10321199578426       -0.58092657998461
C            1.03874273409396       -0.18079962871261       -0.19190175193628
C            0.06266195777451       -0.99841977875329       -1.00243228228750
C           -0.09629525464789       -2.36522188731992       -0.31723414277146
C            0.59725597258363       -1.17834251426089       -2.43374012372140
N           -1.15750200948727       -0.23283905367584       -1.04217766071361
C           -2.52946129546981       -0.72760341792903       -0.89216012772439
C           -3.35625976642760        0.09126152708974       -1.96892316851978
O           -2.72574425526784       -1.98752096444640       -0.97500914683598
C           -2.98374398503064       -0.11167168765227        0.45818777034732
N           -2.21420159517471        0.27675815942659        1.42188520727527
N           -3.04105232305424        0.67841131498868        2.43818177339237
C           -4.25288434804423        0.50957173700755        2.01785772633382
C           -5.51475633398012        0.79170320410242        2.73551491329941
O           -4.27955965686048        0.01115328154906        0.76450490739933
N            0.59373695232294        0.46016720730472        0.90327802622536
C            1.41001682037359        1.15008420356832        1.78597704742674
O            0.94689568617649        1.67724982973964        2.77268889809587
C            2.88891022984856        1.14341886270610        1.43045893257343
O            3.69290551034753        1.67757166485527        2.17783427512705
H            7.21432789835100        0.15140246529935       -0.26436968215385
H            6.83390253340491        1.57025283228910       -1.27198275249630
H            7.40669355032505        1.79980358986969        0.40891032741687
H           -0.64928529813501       -3.04857557475600       -0.95675234765984
H           -0.61882369076817       -2.25583945170524        0.63102730782561
H            0.89545163838035       -2.77674037790335       -0.13560472604403
H           -0.12048217619041       -1.75532453200653       -3.01218781737275
H            0.74070404649945       -0.20736027570622       -2.90261578663159
H            1.55056922318081       -1.70278201804743       -2.39744035295651
H           -1.05651697198096        0.75827867824937       -1.18154025910113
H           -3.01074463168327       -0.22338651121039       -2.94879209444259
H           -4.40064484765512       -0.17360316079809       -1.83123914431919
H           -3.21145835999592        1.15769041647501       -1.83209003459708
H           -6.07023927568047        1.57209680529066        2.21588033132383
H           -6.13591179184546       -0.10280371347320        2.76166572363282
H           -5.29434642973380        1.11692730802972        3.74947899667202
H           -0.41316464741537        0.42120867847638        1.13813873370875

          :  Hamiltonian                  GFN1-xTB          :
         :: total energy             -82.887657698884 Eh    ::
         :: gradient norm              0.000498832690 Eh/a0 ::
         :: HOMO-LUMO gap              0.133591739020 eV    ::
         :: SCC energy               -83.649728179157 Eh    ::
         :: -> Gsolv                  -0.060865807742 Eh    ::
         :: repulsion energy           0.789046982242 Eh    ::

    * Orbital Energies and Occupations

         #    Occupation            Energy/Eh            Energy/eV
      -------------------------------------------------------------
         1        2.0000           -0.8709193             -23.6989
       ...           ...                  ...                  ...
        55        2.0000           -0.5129308             -13.9576
        56        2.0000           -0.5090029             -13.8507
        57        2.0000           -0.5049282             -13.7398
        58        2.0000           -0.5000762             -13.6078
        59        2.0000           -0.4904871             -13.3468
        60        2.0000           -0.4882961             -13.2872
        61        2.0000           -0.4804180             -13.0728
        62        2.0000           -0.4682499             -12.7417
        63        2.0000           -0.4613520             -12.5540
        64        2.0000           -0.4506874             -12.2638
        65        2.0000           -0.4468227             -12.1587
        66        2.0000           -0.4393528             -11.9554
        67        1.8596           -0.4233829             -11.5208 (HOMO)
        68        0.1404           -0.4184735             -11.3872 (LUMO)
        69                         -0.3247326              -8.8364
        70                         -0.3024014              -8.2288
        71                         -0.2769302              -7.5357
        72                         -0.2606217              -7.0919
        73                         -0.2493024              -6.7839
        74                         -0.1764007              -4.8001
        75                         -0.1441596              -3.9228
        76                         -0.1394066              -3.7934
        77                         -0.1349140              -3.6712
        78                         -0.1316263              -3.5817
       ...                                ...                  ...
       134                          0.7473925              20.3376
      -------------------------------------------------------------
                  HL-Gap            0.0049094 Eh            0.1336 eV

Wiberg/Mayer (AO) data.
largest (>0.10) Wiberg bond orders for each atom

     #   Z sym  total        # sym  WBO       # sym  WBO       # sym  WBO
 ---------------------------------------------------------------------------
     1   6 C    3.866 --    28 H    0.986    26 H    0.978    27 H    0.978
                             2 O    0.893
     2   8 O    2.208 --     3 C    1.129     1 C    0.893     4 O    0.140
     3   6 C    3.847 --     4 O    1.653     2 O    1.129     5 C    0.993
     4   8 O    1.901 --     3 C    1.653     2 O    0.140
     5   6 C    3.783 --     6 N    1.399    24 C    1.107     3 C    0.993
     6   7 N    2.999 --     5 C    1.399     7 C    1.376
     7   6 C    3.878 --     6 N    1.376    21 N    1.256     8 C    0.980
     8   6 C    3.931 --     7 C    0.980    11 N    0.964     9 C    0.959
                            10 C    0.951
     9   6 C    3.978 --    31 H    0.984    30 H    0.984    29 H    0.975
                             8 C    0.959
    10   6 C    3.973 --    33 H    0.984    32 H    0.983    34 H    0.980
                             8 C    0.951
    11   7 N    3.262 --     8 C    0.964    12 C    0.914    35 H    0.903
                            14 O    0.163
    12   6 C    3.889 --    14 O    1.266    11 N    0.914    15 C    0.838
                            13 C    0.798
    13   6 C    3.850 --    38 H    0.986    36 H    0.981    37 H    0.979
                            12 C    0.798
    14   8 O    1.620 --    12 C    1.266    11 N    0.163
    15   6 C    3.795 --    16 N    1.633    20 O    1.087    12 C    0.838
    16   7 N    3.085 --    15 C    1.633    17 N    1.157
    17   7 N    2.982 --    18 C    1.636    16 N    1.157
    18   6 C    3.859 --    17 N    1.636    20 O    1.053    19 C    1.031
    19   6 C    3.984 --    18 C    1.031    41 H    0.981    40 H    0.965
                            39 H    0.961
    20   8 O    2.326 --    15 C    1.087    18 C    1.053
    21   7 N    3.473 --     7 C    1.256    22 C    1.099    42 H    0.812
                            23 O    0.104
    22   6 C    3.853 --    23 O    1.679    21 N    1.099    24 C    0.936
    23   8 O    1.918 --    22 C    1.679    21 N    0.104
    24   6 C    3.860 --    25 O    1.670     5 C    1.107    22 C    0.936
    25   8 O    1.831 --    24 C    1.670
    26   1 H    1.005 --     1 C    0.978
    27   1 H    1.005 --     1 C    0.978
    28   1 H    1.010 --     1 C    0.986
    29   1 H    1.014 --     9 C    0.975
    30   1 H    1.005 --     9 C    0.984
    31   1 H    1.001 --     9 C    0.984
    32   1 H    0.999 --    10 C    0.983
    33   1 H    1.000 --    10 C    0.984
    34   1 H    1.007 --    10 C    0.980
    35   1 H    0.937 --    11 N    0.903
    36   1 H    0.996 --    13 C    0.981
    37   1 H    1.001 --    13 C    0.979
    38   1 H    0.996 --    13 C    0.986
    39   1 H    0.997 --    19 C    0.961
    40   1 H    0.996 --    19 C    0.965
    41   1 H    0.997 --    19 C    0.981
    42   1 H    0.956 --    21 N    0.812
 ---------------------------------------------------------------------------

           -------------------------------------------------
          | TOTAL ENERGY              -82.887657698884 Eh   |
          | GRADIENT NORM               0.000498832690 Eh/α |
          | HOMO-LUMO GAP               0.133591739020 eV   |
           -------------------------------------------------

 * finished run on 2023/06/21 at 17:43:55.998
