                         Program Version 5.0.1 -  RELEASE  -
|  1> # ORCA input file
|  2> ! SP r2SCAN-3c CPCM
|  3>
|  4> %maxcore 1875.0
|  5> %pal nprocs 4 end
|  6> %cpcm smd true SMDsolvent "DMSO" end
|  7>
|  8> *xyz 1 1
|  9> C       0.248888    0.433372    2.571167
| 10> O       1.257582   -0.134193    1.725832
| 11> C       1.021748   -0.827691    0.645662
| 12> N       2.061080   -1.409107    0.101872
| 13> C       3.424616   -1.315042    0.627652
| 14> C       4.208098   -0.251931   -0.112894
| 15> C       5.369861   -0.595133   -0.799290
| 16> C       6.102237    0.373722   -1.471307
| 17> C       5.645864    1.679270   -1.443572
| 18> F       6.344203    2.619006   -2.092158
| 19> C       4.494254    2.052198   -0.772411
| 20> C       3.775980    1.073108   -0.102810
| 21> C      -0.295958   -0.986398    0.030651
| 22> N      -1.241836   -0.036216    0.302721
| 23> C      -2.429819   -0.084843   -0.226560
| 24> C      -3.375931    1.054934    0.131254
| 25> C      -2.596291    2.181830    0.825947
| 26> C      -4.467892    0.541059    1.080299
| 27> N      -3.990452    1.577844   -1.086081
| 28> N      -2.814066   -1.117247   -1.040854
| 29> C      -4.159596   -1.277097   -1.607699
| 30> C      -1.944142   -2.137859   -1.367410
| 31> O      -2.257527   -3.084391   -2.076933
| 32> C      -0.603663   -2.019244   -0.815237
| 33> O       0.252603   -2.987920   -1.154184
| 34> H      -0.077045    1.387302    2.156579
| 35> H      -0.601402   -0.241176    2.666826
| 36> H       0.727612    0.586876    3.538004
| 37> H       1.939504   -1.935832   -0.752968
| 38> H       3.364093   -1.083899    1.693405
| 39> H       3.886219   -2.295765    0.497263
| 40> H       5.707676   -1.624429   -0.809639
| 41> H       7.007000    0.120310   -2.008536
| 42> H       4.167754    3.083986   -0.774233
| 43> H       2.873046    1.342806    0.429566
| 44> H      -1.746026    2.485097    0.217823
| 45> H      -2.238224    1.853985    1.799801
| 46> H      -3.254560    3.037687    0.965802
| 47> H      -4.010444    0.071366    1.950082
| 48> H      -5.078117    1.379314    1.413136
| 49> H      -5.112078   -0.182233    0.585505
| 50> H      -4.663122    2.288599   -0.830638
| 51> H      -3.278192    2.014832   -1.655101
| 52> H      -4.058462   -1.751844   -2.583380
| 53> H      -4.632435   -0.304923   -1.714100
| 54> H      -4.746421   -1.921604   -0.953260
| 55> H      -0.206213   -3.632483   -1.732198
| 56> **                         ****END OF INPUT****

CARTESIAN COORDINATES (ANGSTROEM)
---------------------------------
  C      0.248888    0.433372    2.571167
  O      1.257582   -0.134193    1.725832
  C      1.021748   -0.827691    0.645662
  N      2.061080   -1.409107    0.101872
  C      3.424616   -1.315042    0.627652
  C      4.208098   -0.251931   -0.112894
  C      5.369861   -0.595133   -0.799290
  C      6.102237    0.373722   -1.471307
  C      5.645864    1.679270   -1.443572
  F      6.344203    2.619006   -2.092158
  C      4.494254    2.052198   -0.772411
  C      3.775980    1.073108   -0.102810
  C     -0.295958   -0.986398    0.030651
  N     -1.241836   -0.036216    0.302721
  C     -2.429819   -0.084843   -0.226560
  C     -3.375931    1.054934    0.131254
  C     -2.596291    2.181830    0.825947
  C     -4.467892    0.541059    1.080299
  N     -3.990452    1.577844   -1.086081
  N     -2.814066   -1.117247   -1.040854
  C     -4.159596   -1.277097   -1.607699
  C     -1.944142   -2.137859   -1.367410
  O     -2.257527   -3.084391   -2.076933
  C     -0.603663   -2.019244   -0.815237
  O      0.252603   -2.987920   -1.154184
  H     -0.077045    1.387302    2.156579
  H     -0.601402   -0.241176    2.666826
  H      0.727612    0.586876    3.538004
  H      1.939504   -1.935832   -0.752968
  H      3.364093   -1.083899    1.693405
  H      3.886219   -2.295765    0.497263
  H      5.707676   -1.624429   -0.809639
  H      7.007000    0.120310   -2.008536
  H      4.167754    3.083986   -0.774233
  H      2.873046    1.342806    0.429566
  H     -1.746026    2.485097    0.217823
  H     -2.238224    1.853985    1.799801
  H     -3.254560    3.037687    0.965802
  H     -4.010444    0.071366    1.950082
  H     -5.078117    1.379314    1.413136
  H     -5.112078   -0.182233    0.585505
  H     -4.663122    2.288599   -0.830638
  H     -3.278192    2.014832   -1.655101
  H     -4.058462   -1.751844   -2.583380
  H     -4.632435   -0.304923   -1.714100
  H     -4.746421   -1.921604   -0.953260
  H     -0.206213   -3.632483   -1.732198

 Total Charge           Charge          ....    1
 Multiplicity           Mult            ....    1
 Number of Electrons    NEL             ....  184
 Basis Dimension        Dim             ....  625

ORBITAL ENERGIES
----------------

  NO   OCC          E(Eh)            E(eV)
   0   2.0000     -24.507795      -666.8910
   1   2.0000     -19.047671      -518.3135
   2   2.0000     -19.027713      -517.7704
   3   2.0000     -18.949243      -515.6351
   4   2.0000     -14.251003      -387.7895
   5   2.0000     -14.245899      -387.6506
   6   2.0000     -14.176501      -385.7622
   7   2.0000     -14.139347      -384.7512
   8   2.0000     -10.204376      -277.6752
   9   2.0000     -10.159853      -276.4637
  10   2.0000     -10.142118      -275.9811
  11   2.0000     -10.134378      -275.7704
  12   2.0000     -10.125428      -275.5269
  13   2.0000     -10.117557      -275.3127
  14   2.0000     -10.094469      -274.6845
  15   2.0000     -10.091983      -274.6168
  16   2.0000     -10.087472      -274.4941
  17   2.0000     -10.057400      -273.6758
  18   2.0000     -10.057399      -273.6757
  19   2.0000     -10.050368      -273.4844
  20   2.0000     -10.049498      -273.4607
  21   2.0000     -10.047393      -273.4035
  22   2.0000     -10.046442      -273.3776
  23   2.0000     -10.022322      -272.7212
  24   2.0000     -10.013716      -272.4871
  25   2.0000      -1.200373       -32.6638
  26   2.0000      -1.111256       -30.2388
  27   2.0000      -1.083067       -29.4718
  28   2.0000      -1.035547       -28.1787
  29   2.0000      -0.980462       -26.6797
  30   2.0000      -0.963835       -26.2273
  31   2.0000      -0.901982       -24.5442
  32   2.0000      -0.870771       -23.6949
  33   2.0000      -0.844255       -22.9733
  34   2.0000      -0.793490       -21.5920
  35   2.0000      -0.761700       -20.7269
  36   2.0000      -0.734188       -19.9783
  37   2.0000      -0.732042       -19.9199
  38   2.0000      -0.724269       -19.7084
  39   2.0000      -0.716689       -19.5021
  40   2.0000      -0.683854       -18.6086
  41   2.0000      -0.660820       -17.9818
  42   2.0000      -0.651592       -17.7307
  43   2.0000      -0.641873       -17.4663
  44   2.0000      -0.603739       -16.4286
  45   2.0000      -0.598105       -16.2753
  46   2.0000      -0.583256       -15.8712
  47   2.0000      -0.573699       -15.6111
  48   2.0000      -0.566702       -15.4207
  49   2.0000      -0.547317       -14.8932
  50   2.0000      -0.525740       -14.3061
  51   2.0000      -0.522427       -14.2159
  52   2.0000      -0.514975       -14.0132
  53   2.0000      -0.490550       -13.3486
  54   2.0000      -0.480113       -13.0645
  55   2.0000      -0.474755       -12.9187
  56   2.0000      -0.470051       -12.7907
  57   2.0000      -0.462058       -12.5732
  58   2.0000      -0.455305       -12.3895
  59   2.0000      -0.451831       -12.2949
  60   2.0000      -0.441385       -12.0107
  61   2.0000      -0.430454       -11.7133
  62   2.0000      -0.429018       -11.6742
  63   2.0000      -0.426305       -11.6004
  64   2.0000      -0.418454       -11.3867
  65   2.0000      -0.417356       -11.3568
  66   2.0000      -0.411122       -11.1872
  67   2.0000      -0.405756       -11.0412
  68   2.0000      -0.395213       -10.7543
  69   2.0000      -0.387385       -10.5413
  70   2.0000      -0.384199       -10.4546
  71   2.0000      -0.381597       -10.3838
  72   2.0000      -0.368138       -10.0175
  73   2.0000      -0.362528        -9.8649
  74   2.0000      -0.361101        -9.8261
  75   2.0000      -0.358274        -9.7491
  76   2.0000      -0.356723        -9.7069
  77   2.0000      -0.352765        -9.5992
  78   2.0000      -0.344940        -9.3863
  79   2.0000      -0.341299        -9.2872
  80   2.0000      -0.335236        -9.1222
  81   2.0000      -0.331258        -9.0140
  82   2.0000      -0.318613        -8.6699
  83   2.0000      -0.316582        -8.6146
  84   2.0000      -0.292956        -7.9717
  85   2.0000      -0.280846        -7.6422
  86   2.0000      -0.265726        -7.2308
  87   2.0000      -0.260922        -7.1001
  88   2.0000      -0.253499        -6.8980
  89   2.0000      -0.234339        -6.3767
  90   2.0000      -0.227403        -6.1879
  91   2.0000      -0.212751        -5.7892
  92   0.0000      -0.121256        -3.2995
  93   0.0000      -0.053500        -1.4558
  94   0.0000      -0.049931        -1.3587
  95   0.0000      -0.040238        -1.0949
  96   0.0000      -0.022762        -0.6194

MULLIKEN ATOMIC CHARGES
-----------------------
   0 C :   -0.305509
   1 O :   -0.192765
   2 C :    0.189462
   3 N :   -0.075743
   4 C :   -0.297991
   5 C :    0.091845
   6 C :   -0.204614
   7 C :   -0.277457
   8 C :    0.362516
   9 F :   -0.229840
  10 C :   -0.330523
  11 C :   -0.130095
  12 C :    0.102553
  13 N :   -0.130206
  14 C :    0.034266
  15 C :    0.258734
  16 C :   -0.597395
  17 C :   -0.522214
  18 N :   -0.696086
  19 N :    0.254909
  20 C :   -0.482975
  21 C :    0.170468
  22 O :   -0.484387
  23 C :    0.136898
  24 O :   -0.405574
  25 H :    0.196206
  26 H :    0.194256
  27 H :    0.183523
  28 H :    0.324063
  29 H :    0.214299
  30 H :    0.201804
  31 H :    0.190213
  32 H :    0.199387
  33 H :    0.199409
  34 H :    0.183610
  35 H :    0.182406
  36 H :    0.175231
  37 H :    0.173693
  38 H :    0.187021
  39 H :    0.183942
  40 H :    0.179606
  41 H :    0.297023
  42 H :    0.290125
  43 H :    0.190426
  44 H :    0.235904
  45 H :    0.205333
  46 H :    0.374243
Sum of atomic charges:    1.0000000

LOEWDIN ATOMIC CHARGES
----------------------
   0 C :   -0.001896
   1 O :   -0.550302
   2 C :    0.464708
   3 N :   -0.500706
   4 C :    0.026305
   5 C :   -0.077654
   6 C :   -0.136527
   7 C :   -0.154166
   8 C :    0.205932
   9 F :   -0.289949
  10 C :   -0.150945
  11 C :   -0.131889
  12 C :    0.208655
  13 N :   -0.582929
  14 C :    0.384169
  15 C :    0.065174
  16 C :   -0.360260
  17 C :   -0.351118
  18 N :   -0.704593
  19 N :   -0.610912
  20 C :   -0.090428
  21 C :    0.381794
  22 O :   -0.476795
  23 C :    0.299043
  24 O :   -0.452583
  25 H :    0.194223
  26 H :    0.197225
  27 H :    0.190910
  28 H :    0.315121
  29 H :    0.221253
  30 H :    0.214975
  31 H :    0.189490
  32 H :    0.196079
  33 H :    0.196166
  34 H :    0.192109
  35 H :    0.172094
  36 H :    0.168000
  37 H :    0.164664
  38 H :    0.172758
  39 H :    0.172195
  40 H :    0.171967
  41 H :    0.257933
  42 H :    0.255150
  43 H :    0.206852
  44 H :    0.220152
  45 H :    0.196455
  46 H :    0.322103

  Mayer bond orders larger than 0.100000
B(  0-C ,  1-O ) :   0.8255 B(  0-C , 25-H ) :   0.9351 B(  0-C , 26-H ) :   0.9438
B(  0-C , 27-H ) :   0.9514 B(  1-O ,  2-C ) :   1.2576 B(  2-C ,  3-N ) :   1.4867
B(  2-C , 12-C ) :   0.9706 B(  3-N ,  4-C ) :   0.7927 B(  3-N , 28-H ) :   0.8782
B(  4-C ,  5-C ) :   0.8653 B(  4-C , 29-H ) :   0.9539 B(  4-C , 30-H ) :   0.9633
B(  5-C ,  6-C ) :   1.4051 B(  5-C , 11-C ) :   1.3728 B(  6-C ,  7-C ) :   1.3616
B(  6-C , 31-H ) :   0.9468 B(  7-C ,  8-C ) :   1.4085 B(  7-C , 32-H ) :   0.9323
B(  8-C ,  9-F ) :   0.8906 B(  8-C , 10-C ) :   1.3804 B( 10-C , 11-C ) :   1.3991
B( 10-C , 33-H ) :   0.9308 B( 11-C , 34-H ) :   0.9377 B( 12-C , 13-N ) :   0.9612
B( 12-C , 23-C ) :   1.4714 B( 12-C , 24-O ) :   0.1110 B( 13-N , 14-C ) :   1.6162
B( 14-C , 15-C ) :   0.8958 B( 14-C , 19-N ) :   1.2669 B( 15-C , 16-C ) :   0.9552
B( 15-C , 17-C ) :   0.9306 B( 15-C , 18-N ) :   0.7568 B( 16-C , 35-H ) :   0.9650
B( 16-C , 36-H ) :   0.9722 B( 16-C , 37-H ) :   0.9675 B( 17-C , 38-H ) :   0.9719
B( 17-C , 39-H ) :   0.9610 B( 17-C , 40-H ) :   0.9446 B( 18-N , 41-H ) :   0.9104
B( 18-N , 42-H ) :   0.9095 B( 19-N , 20-C ) :   0.8439 B( 19-N , 21-C ) :   1.1302
B( 20-C , 43-H ) :   0.9384 B( 20-C , 44-H ) :   0.9159 B( 20-C , 45-H ) :   0.9326
B( 21-C , 22-O ) :   1.8050 B( 21-C , 23-C ) :   0.9799 B( 23-C , 24-O ) :   0.9760
B( 24-O , 46-H ) :   0.8103

Dispersion correction           -0.021486916
FINAL SINGLE POINT ENERGY     -1205.224340709357

DIPOLE MOMENT
-------------
                                X             Y             Z
Electronic contribution:     28.18680      -5.77104     -10.41873
Nuclear contribution   :    -29.48835       5.25548      12.40680
                        -----------------------------------------
Total Dipole Moment    :     -1.30156      -0.51556       1.98806
                        -----------------------------------------
Magnitude (a.u.)       :      2.43151
Magnitude (Debye)      :      6.18041

Rotational constants in cm-1:     0.012517     0.003508     0.003224
Rotational constants in MHz :   375.254568   105.181641    96.663467

                             ****ORCA TERMINATED NORMALLY****
TOTAL RUN TIME: 0 days 0 hours 2 minutes 32 seconds 284 msec
