   * xtb version 6.5.1 (579679a) compiled by 'ehlert@majestix' on 2022-07-11
          program call               : /lustre/hpc/kemi/ree/PhD/git/ReactivityQM/dep/xtb-6.5.1/bin/xtb --gfn 1 /lustre/hpc/kemi/ree/PhD/git/ReactivityQM/calculations/RaltegravirCLI/reac02prodN01/conf17/RaltegravirCLI_reac02prodN01_conf17_gfn1.xyz --opt --vfukui --chrg 1 --uhf 0 --alpb DMSO

   ID    Z sym.   atoms
    1    6 C      1, 3, 5-9, 11-13, 15-18, 21, 22, 24
    2    8 O      2, 23, 25
    3    7 N      4, 14, 19, 20
    4    9 F      10
    5    1 H      26-47

      * Solvation model:               ALPB
        Solvent                        DMSO
        Solvent mass                       7.8130E+01 g/mol
          :  Hamiltonian                  GFN1-xTB          :
 * total energy  :   -79.5045101 Eh     change       -0.2111733E-10 Eh
 * total energy  :   -79.5231947 Eh     change       -0.1868461E-01 Eh
 * total energy  :   -79.5287796 Eh     change       -0.5584869E-02 Eh
 * total energy  :   -79.5301243 Eh     change       -0.1344752E-02 Eh
 * total energy  :   -79.5311035 Eh     change       -0.9791341E-03 Eh
 * total energy  :   -79.5314904 Eh     change       -0.3869100E-03 Eh
 * total energy  :   -79.5318414 Eh     change       -0.3510072E-03 Eh
 * total energy  :   -79.5320569 Eh     change       -0.2155133E-03 Eh
 * total energy  :   -79.5322144 Eh     change       -0.1575543E-03 Eh
 * total energy  :   -79.5323540 Eh     change       -0.1395426E-03 Eh
 * total energy  :   -79.5337915 Eh     change       -0.4790230E-04 Eh
 * total energy  :   -79.5338410 Eh     change       -0.4946850E-04 Eh
 * total energy  :   -79.5338597 Eh     change       -0.1867949E-04 Eh
 * total energy  :   -79.5338719 Eh     change       -0.1220506E-04 Eh
 * total energy  :   -79.5338870 Eh     change       -0.1516483E-04 Eh
 * total energy  :   -79.5338958 Eh     change       -0.8736148E-05 Eh
 * total energy  :   -79.5339031 Eh     change       -0.7362507E-05 Eh
 * total energy  :   -79.5339085 Eh     change       -0.5316857E-05 Eh
 * total energy  :   -79.5339133 Eh     change       -0.4795569E-05 Eh
   *** GEOMETRY OPTIMIZATION CONVERGED AFTER 32 ITERATIONS ***

 final structure:
================
47
 xtb: 6.5.1 (579679a)
C            0.24888767649861        0.43337234979104        2.57116737793900
O            1.25758166743090       -0.13419312358914        1.72583236980480
C            1.02174800679315       -0.82769146495673        0.64566180554221
N            2.06108002555317       -1.40910670660746        0.10187209842088
C            3.42461623066052       -1.31504234735760        0.62765198094017
C            4.20809773722474       -0.25193096360803       -0.11289364479100
C            5.36986101033177       -0.59513338502100       -0.79929025927716
C            6.10223739420304        0.37372171631372       -1.47130707077119
C            5.64586389182599        1.67927028429964       -1.44357183899279
F            6.34420293403295        2.61900572959419       -2.09215750281840
C            4.49425393229791        2.05219775603765       -0.77241106131766
C            3.77597960810744        1.07310778660011       -0.10280989475580
C           -0.29595762431911       -0.98639830621424        0.03065072040066
N           -1.24183587572515       -0.03621625481315        0.30272111649298
C           -2.42981886138495       -0.08484274720704       -0.22655999092139
C           -3.37593104675701        1.05493407948964        0.13125424122148
C           -2.59629070884169        2.18182952653310        0.82594704205146
C           -4.46789152188399        0.54105865173279        1.08029873322507
N           -3.99045192001995        1.57784385076303       -1.08608113305966
N           -2.81406641435452       -1.11724729679101       -1.04085391478030
C           -4.15959633239751       -1.27709717499948       -1.60769862381012
C           -1.94414181641872       -2.13785914055736       -1.36740996185676
O           -2.25752689239694       -3.08439124666313       -2.07693279782551
C           -0.60366343491581       -2.01924437586387       -0.81523703706416
O            0.25260269744906       -2.98791961037375       -1.15418416469400
H           -0.07704516718454        1.38730243059793        2.15657890463247
H           -0.60140231560428       -0.24117570322194        2.66682629472299
H            0.72761232782731        0.58687632579090        3.53800436073300
H            1.93950393206441       -1.93583231147477       -0.75296843376636
H            3.36409295365358       -1.08389887718749        1.69340463950578
H            3.88621927033870       -2.29576482768377        0.49726262766145
H            5.70767585517171       -1.62442886901045       -0.80963906512763
H            7.00700003222968        0.12031022026852       -2.00853641165210
H            4.16775430576796        3.08398551396760       -0.77423287870346
H            2.87304567442847        1.34280591289478        0.42956619852195
H           -1.74602585478042        2.48509687427395        0.21782311738363
H           -2.23822381258138        1.85398519622476        1.79980129688978
H           -3.25456040171632        3.03768729190154        0.96580203905198
H           -4.01044443394929        0.07136624764233        1.95008166737910
H           -5.07811719590654        1.37931360305509        1.41313645209525
H           -5.11207844110640       -0.18223291705492        0.58550542713158
H           -4.66312231544743        2.28859887146835       -0.83063818514293
H           -3.27819214518345        2.01483231469444       -1.65510121193562
H           -4.05846187147896       -1.75184373212104       -2.58337954005162
H           -4.63243494637560       -0.30492300580425       -1.71410047746821
H           -4.74642133281490       -1.92160409538523       -0.95326025185573
H           -0.20621348034313       -3.63248305037407       -1.73219815931098

          :  Hamiltonian                  GFN1-xTB          :
         :: total energy             -79.533913252177 Eh    ::
         :: gradient norm              0.000514228838 Eh/a0 ::
         :: HOMO-LUMO gap              1.724314069054 eV    ::
         :: SCC energy               -80.428900050548 Eh    ::
         :: -> Gsolv                  -0.098413442717 Eh    ::
         :: repulsion energy           0.925671919689 Eh    ::

    * Orbital Energies and Occupations

         #    Occupation            Energy/Eh            Energy/eV
      -------------------------------------------------------------
         1        2.0000           -0.8852128             -24.0879
       ...           ...                  ...                  ...
        55        2.0000           -0.5187426             -14.1157
        56        2.0000           -0.5101092             -13.8808
        57        2.0000           -0.5074419             -13.8082
        58        2.0000           -0.5033445             -13.6967
        59        2.0000           -0.4948198             -13.4647
        60        2.0000           -0.4874704             -13.2647
        61        2.0000           -0.4856978             -13.2165
        62        2.0000           -0.4781960             -13.0124
        63        2.0000           -0.4675079             -12.7215
        64        2.0000           -0.4657407             -12.6735
        65        2.0000           -0.4526089             -12.3161
        66        2.0000           -0.4482437             -12.1973
        67        2.0000           -0.4230840             -11.5127 (HOMO)
        68                         -0.3597166              -9.7884 (LUMO)
        69                         -0.3038886              -8.2692
        70                         -0.2875404              -7.8244
        71                         -0.2840696              -7.7299
        72                         -0.2789382              -7.5903
        73                         -0.1869412              -5.0869
        74                         -0.1613553              -4.3907
        75                         -0.1604897              -4.3671
        76                         -0.1436722              -3.9095
        77                         -0.1434194              -3.9026
        78                         -0.1288772              -3.5069
       ...                                ...                  ...
       144                          0.6802836              18.5115
      -------------------------------------------------------------
                  HL-Gap            0.0633674 Eh            1.7243 eV

Wiberg/Mayer (AO) data.
largest (>0.10) Wiberg bond orders for each atom

     #   Z sym  total        # sym  WBO       # sym  WBO       # sym  WBO
 ---------------------------------------------------------------------------
     1   6 C    3.835 --    28 H    0.979    27 H    0.978    26 H    0.971
                             2 O    0.865
     2   8 O    2.269 --     3 C    1.187     1 C    0.865     4 N    0.105
     3   6 C    3.872 --     4 N    1.464     2 O    1.187    13 C    1.071
     4   7 N    3.487 --     3 C    1.464     5 C    0.917    29 H    0.867
                             2 O    0.105
     5   6 C    3.915 --     6 C    0.987    31 H    0.970    30 H    0.964
                             4 N    0.917
     6   6 C    3.984 --     7 C    1.421    12 C    1.414     5 C    0.987
     7   6 C    3.993 --     8 C    1.441     6 C    1.421    32 H    0.969
                            11 C    0.109
     8   6 C    3.990 --     7 C    1.441     9 C    1.401    33 H    0.968
                            12 C    0.111
     9   6 C    3.864 --     8 C    1.401    11 C    1.395    10 F    0.935
    10   9 F    1.066 --     9 C    0.935
    11   6 C    3.991 --    12 C    1.449     9 C    1.395    34 H    0.968
                             7 C    0.109
    12   6 C    3.994 --    11 C    1.449     6 C    1.414    35 H    0.971
                             8 C    0.111
    13   6 C    3.963 --    24 C    1.463    14 N    1.183     3 C    1.071
    14   7 N    3.031 --    15 C    1.543    13 C    1.183
    15   6 C    3.913 --    14 N    1.543    20 N    1.187    16 C    0.975
    16   6 C    3.964 --    17 C    0.991    19 N    0.982    18 C    0.981
                            15 C    0.975
    17   6 C    3.994 --    16 C    0.991    36 H    0.984    38 H    0.983
                            37 H    0.980
    18   6 C    3.992 --    39 H    0.985    40 H    0.982    41 H    0.981
                            16 C    0.981
    19   7 N    2.995 --    16 C    0.982    43 H    0.939    42 H    0.935
    20   7 N    3.530 --    15 C    1.187    22 C    1.140    21 C    0.918
                            23 O    0.138
    21   6 C    3.905 --    44 H    0.975    46 H    0.973    45 H    0.964
                            20 N    0.918
    22   6 C    3.921 --    23 O    1.567    20 N    1.140    24 C    1.070
    23   8 O    1.914 --    22 C    1.567    20 N    0.138
    24   6 C    3.917 --    13 C    1.463    25 O    1.107    22 C    1.070
    25   8 O    2.096 --    24 C    1.107    47 H    0.783
    26   1 H    1.018 --     1 C    0.971
    27   1 H    1.009 --     1 C    0.978
    28   1 H    1.005 --     1 C    0.979
    29   1 H    0.926 --     4 N    0.867
    30   1 H    1.002 --     5 C    0.964
    31   1 H    0.997 --     5 C    0.970
    32   1 H    0.997 --     7 C    0.969
    33   1 H    0.996 --     8 C    0.968
    34   1 H    0.996 --    11 C    0.968
    35   1 H    1.002 --    12 C    0.971
    36   1 H    1.007 --    17 C    0.984
    37   1 H    1.008 --    17 C    0.980
    38   1 H    1.002 --    17 C    0.983
    39   1 H    1.002 --    18 C    0.985
    40   1 H    0.998 --    18 C    0.982
    41   1 H    1.002 --    18 C    0.981
    42   1 H    0.950 --    19 N    0.935
    43   1 H    0.953 --    19 N    0.939
    44   1 H    1.005 --    21 C    0.975
    45   1 H    1.026 --    21 C    0.964
    46   1 H    1.000 --    21 C    0.973
    47   1 H    0.826 --    25 O    0.783
 ---------------------------------------------------------------------------

           -------------------------------------------------
          | TOTAL ENERGY              -79.533913252177 Eh   |
          | GRADIENT NORM               0.000514228838 Eh/α |
          | HOMO-LUMO GAP               1.724314069054 eV   |
           -------------------------------------------------

 * finished run on 2023/06/20 at 15:17:05.362
