   * xtb version 6.5.1 (579679a) compiled by 'ehlert@majestix' on 2022-07-11
          program call               : /lustre/hpc/kemi/ree/PhD/git/ReactivityQM/dep/xtb-6.5.1/bin/xtb --gfn 1 /lustre/hpc/kemi/ree/PhD/git/ReactivityQM/calculations/RaltegravirCLI/reac02prodE02/conf04/RaltegravirCLI_reac02prodE02_conf04_gfn1.xyz --opt --vfukui --chrg -1 --uhf 0 --alpb DMSO

   ID    Z sym.   atoms
    1    6 C      1, 3, 5, 7, 8, 11-15, 17, 18, 20-24
    2    7 N      2, 10, 19, 25
    3    8 O      4, 6, 9
    4    9 F      16
    5    1 H      26-47

      * Solvation model:               ALPB
        Solvent                        DMSO
        Solvent mass                       7.8130E+01 g/mol
          :  Hamiltonian                  GFN1-xTB          :
 * total energy  :   -80.1999528 Eh     change       -0.4618528E-11 Eh
 * total energy  :   -80.2086945 Eh     change       -0.8741631E-02 Eh
 * total energy  :   -80.2114441 Eh     change       -0.2749639E-02 Eh
 * total energy  :   -80.2123630 Eh     change       -0.9189334E-03 Eh
 * total energy  :   -80.2133938 Eh     change       -0.1030807E-02 Eh
 * total energy  :   -80.2141380 Eh     change       -0.7441455E-03 Eh
 * total energy  :   -80.2147604 Eh     change       -0.6224181E-03 Eh
 * total energy  :   -80.2152379 Eh     change       -0.4775156E-03 Eh
 * total energy  :   -80.2155320 Eh     change       -0.2941019E-03 Eh
 * total energy  :   -80.2157149 Eh     change       -0.1828868E-03 Eh
 * total energy  :   -80.2179844 Eh     change       -0.1222821E-04 Eh
 * total energy  :   -80.2179901 Eh     change       -0.5628370E-05 Eh
 * total energy  :   -80.2180043 Eh     change       -0.1418872E-04 Eh
 * total energy  :   -80.2180132 Eh     change       -0.8939250E-05 Eh
 * total energy  :   -80.2180231 Eh     change       -0.9868136E-05 Eh
 * total energy  :   -80.2180332 Eh     change       -0.1016296E-04 Eh
 * total energy  :   -80.2180431 Eh     change       -0.9907001E-05 Eh
 * total energy  :   -80.2180508 Eh     change       -0.7623784E-05 Eh
 * total energy  :   -80.2180541 Eh     change       -0.3374399E-05 Eh
   *** GEOMETRY OPTIMIZATION CONVERGED AFTER 66 ITERATIONS ***

 final structure:
================
47
 xtb: 6.5.1 (579679a)
C           -3.55287581866695       -0.04118955486349       -2.29583723902800
N           -2.39356822151814       -0.08344258012540       -1.40717949864762
C           -1.18580342127804       -0.37100562021390       -2.02867042014949
O           -1.15940240701146       -0.88802610754809       -3.17122336938244
C           -0.01083675041246       -0.03494907375737       -1.31364873024636
O            1.21123114577850       -0.38380623423074       -1.92822261317530
C           -0.07744838797264        0.72764640311506       -0.15241458144460
C            1.15410180694377        1.25357094784358        0.53215773280883
O            1.22809664122009        1.41260299547756        1.74912317980269
N            2.17805736471056        1.60518548199208       -0.28931850963797
C            3.48341960870909        1.92893809781817        0.26903562173342
C            4.24775702167326        0.65837915509279        0.57685161853455
C            4.07604636880683        0.01831585610047        1.80301901847154
C            4.73398707390594       -1.17220655584228        2.07727274469749
C            5.56130607004351       -1.70282109882536        1.10387932854099
F            6.20383202221296       -2.85799390556938        1.36135818306563
C            5.75857355396439       -1.09428202913655       -0.12189005193783
C            5.08989006290764        0.09517154118232       -0.37902317171582
N           -1.21256972202335        1.04937690512162        0.43913594804048
C           -2.46770921105024        0.53104935647054       -0.06328096523711
C           -3.41961612286028        1.74684067416052       -0.07851060185660
C           -2.93763582975972       -0.55140546039504        0.99954250623821
C           -1.93293792822792       -1.71506201280357        1.02594265105774
C           -4.33419383513639       -1.12597872799644        0.74517562213998
N           -2.94039139187649        0.06200478934806        2.33070036984522
H           -4.47955414858379       -0.15633572935530       -1.73842568340425
H           -3.59365465001190        0.90093032987683       -2.85555892338270
H           -3.47354328078637       -0.86461638404703       -3.00952811133611
H            0.96542900188672       -0.76073559249958       -2.79060696921872
H            2.17347899936621        1.29371319602833       -1.24933604371240
H            4.02561830100294        2.53647030998721       -0.45945363201768
H            3.33281423994885        2.51480706963512        1.18164996676477
H            3.42117412513748        0.45467735314142        2.55005852641029
H            4.61411417978950       -1.67952616060138        3.02585930061614
H            6.41954507879784       -1.53970794288359       -0.85453297792956
H            5.23147250946053        0.58891402067333       -1.33356545400449
H           -3.08071565935094        2.45601124773427       -0.83297465740711
H           -4.45405315106511        1.48179987172122       -0.28165850192326
H           -3.36884104749742        2.23501383703166        0.89330629912506
H           -1.90723585765716       -2.22046780830931        0.06008195593482
H           -0.93279660003943       -1.35110890328167        1.26333794854019
H           -2.22852268840441       -2.43399343990185        1.79119550905469
H           -4.35158065845473       -1.71505693640108       -0.17072342034535
H           -4.60826355007753       -1.78105613136959        1.57399041056234
H           -5.08599296644273       -0.34132191625037        0.67634155087423
H           -2.14216374762373        0.69707782508945        2.38420833721229
H           -3.77803712245900        0.61759964156414        2.44492279707473

          :  Hamiltonian                  GFN1-xTB          :
         :: total energy             -80.218054140996 Eh    ::
         :: gradient norm              0.000875444488 Eh/a0 ::
         :: HOMO-LUMO gap              1.186130932974 eV    ::
         :: SCC energy               -81.071791484213 Eh    ::
         :: -> Gsolv                  -0.098837890226 Eh    ::
         :: repulsion energy           0.886134673958 Eh    ::

    * Orbital Energies and Occupations

         #    Occupation            Energy/Eh            Energy/eV
      -------------------------------------------------------------
         1        2.0000           -0.8572324             -23.3265
       ...           ...                  ...                  ...
        56        2.0000           -0.4592249             -12.4961
        57        2.0000           -0.4564978             -12.4219
        58        2.0000           -0.4437750             -12.0757
        59        2.0000           -0.4429743             -12.0539
        60        2.0000           -0.4317533             -11.7486
        61        2.0000           -0.4207359             -11.4488
        62        2.0000           -0.4172424             -11.3537
        63        2.0000           -0.4074139             -11.0863
        64        2.0000           -0.3893131             -10.5937
        65        2.0000           -0.3891711             -10.5899
        66        2.0000           -0.3749864             -10.2039
        67        2.0000           -0.3596542              -9.7867
        68        2.0000           -0.3085584              -8.3963 (HOMO)
        69                         -0.2649689              -7.2102 (LUMO)
        70                         -0.2585857              -7.0365
        71                         -0.2449091              -6.6643
        72                         -0.1829177              -4.9774
        73                         -0.1370302              -3.7288
        74                         -0.1174226              -3.1952
        75                         -0.1094031              -2.9770
        76                         -0.1058052              -2.8791
        77                         -0.1046748              -2.8483
        78                         -0.0975734              -2.6551
        79                         -0.0958501              -2.6082
       ...                                ...                  ...
       144                          0.7222389              19.6531
      -------------------------------------------------------------
                  HL-Gap            0.0435895 Eh            1.1861 eV

Wiberg/Mayer (AO) data.
largest (>0.10) Wiberg bond orders for each atom

     #   Z sym  total        # sym  WBO       # sym  WBO       # sym  WBO
 ---------------------------------------------------------------------------
     1   6 C    3.967 --    26 H    0.984    27 H    0.982    28 H    0.980
                             2 N    0.960
     2   7 N    3.261 --     3 C    1.113     1 C    0.960    20 C    0.914
                             4 O    0.108
     3   6 C    3.922 --     4 O    1.431     5 C    1.213     2 N    1.113
     4   8 O    1.782 --     3 C    1.431     2 N    0.108
     5   6 C    3.842 --     7 C    1.337     3 C    1.213     6 O    0.949
                            19 N    0.163
     6   8 O    1.940 --     5 C    0.949    29 H    0.843
     7   6 C    3.974 --    19 N    1.447     5 C    1.337     8 C    0.980
     8   6 C    3.876 --     9 O    1.576    10 N    1.230     7 C    0.980
     9   8 O    1.864 --     8 C    1.576    10 N    0.151
    10   7 N    3.307 --     8 C    1.230    11 C    0.950    30 H    0.893
                             9 O    0.151
    11   6 C    3.961 --    12 C    0.994    31 H    0.978    32 H    0.973
                            10 N    0.950
    12   6 C    3.988 --    18 C    1.420    13 C    1.415    11 C    0.994
    13   6 C    3.992 --    14 C    1.445    12 C    1.415    33 H    0.969
                            17 C    0.111
    14   6 C    3.992 --    13 C    1.445    15 C    1.401    34 H    0.970
                            18 C    0.110
    15   6 C    3.857 --    17 C    1.404    14 C    1.401    16 F    0.917
    16   9 F    1.043 --    15 C    0.917
    17   6 C    3.992 --    18 C    1.440    15 C    1.404    35 H    0.970
                            13 C    0.111
    18   6 C    3.994 --    17 C    1.440    12 C    1.420    36 H    0.972
                            14 C    0.110
    19   7 N    2.946 --     7 C    1.447    20 C    1.007     5 C    0.163
    20   6 C    3.939 --    19 N    1.007    21 C    0.987    22 C    0.922
                             2 N    0.914
    21   6 C    3.996 --    20 C    0.987    37 H    0.985    39 H    0.983
                            38 H    0.982
    22   6 C    3.961 --    24 C    1.002    23 C    0.998    25 N    0.984
                            20 C    0.922
    23   6 C    3.997 --    22 C    0.998    42 H    0.987    40 H    0.986
                            41 H    0.983
    24   6 C    3.996 --    22 C    1.002    44 H    0.984    43 H    0.983
                            45 H    0.981
    25   7 N    2.959 --    22 C    0.984    47 H    0.954    46 H    0.937
    26   1 H    1.015 --     1 C    0.984
    27   1 H    1.007 --     1 C    0.982
    28   1 H    1.024 --     1 C    0.980
    29   1 H    0.889 --     6 O    0.843
    30   1 H    0.960 --    10 N    0.893
    31   1 H    1.007 --    11 C    0.978
    32   1 H    1.014 --    11 C    0.973
    33   1 H    1.015 --    13 C    0.969
    34   1 H    1.000 --    14 C    0.970
    35   1 H    0.999 --    17 C    0.970
    36   1 H    1.000 --    18 C    0.972
    37   1 H    1.012 --    21 C    0.985
    38   1 H    1.007 --    21 C    0.982
    39   1 H    1.018 --    21 C    0.983
    40   1 H    1.012 --    23 C    0.986
    41   1 H    1.013 --    23 C    0.983
    42   1 H    1.013 --    23 C    0.987
    43   1 H    1.007 --    24 C    0.983
    44   1 H    1.008 --    24 C    0.984
    45   1 H    1.007 --    24 C    0.981
    46   1 H    0.992 --    25 N    0.937
    47   1 H    0.972 --    25 N    0.954
 ---------------------------------------------------------------------------

           -------------------------------------------------
          | TOTAL ENERGY              -80.218054140996 Eh   |
          | GRADIENT NORM               0.000875444488 Eh/α |
          | HOMO-LUMO GAP               1.186130932974 eV   |
           -------------------------------------------------

 * finished run on 2023/06/20 at 14:56:49.901
