   * xtb version 6.5.1 (579679a) compiled by 'ehlert@majestix' on 2022-07-11
          program call               : /lustre/hpc/kemi/ree/PhD/git/ReactivityQM/dep/xtb-6.5.1/bin/xtb --gfn 1 /lustre/hpc/kemi/ree/PhD/git/ReactivityQM/calculations/R02oxygendeprot/reac01prodN17/conf13/R02oxygendeprot_reac01prodN17_conf13_gfn1.xyz --opt --vfukui --chrg 0 --uhf 0 --alpb DMSO

   ID    Z sym.   atoms
    1    6 C      1, 3, 5, 7-10, 12, 13, 15, 18, 19, 22, 24
    2    8 O      2, 4, 14, 20, 23, 25
    3    7 N      6, 11, 16, 17, 21
    4    1 H      26-42

      * Solvation model:               ALPB
        Solvent                        DMSO
        Solvent mass                       7.8130E+01 g/mol
          :  Hamiltonian                  GFN1-xTB          :
 * total energy  :   -82.9324635 Eh     change       -0.3975344E-09 Eh
 * total energy  :   -82.9458253 Eh     change       -0.1336174E-01 Eh
 * total energy  :   -82.9503801 Eh     change       -0.4554798E-02 Eh
 * total energy  :   -82.9512606 Eh     change       -0.8804969E-03 Eh
 * total energy  :   -82.9518999 Eh     change       -0.6393345E-03 Eh
 * total energy  :   -82.9522905 Eh     change       -0.3905697E-03 Eh
 * total energy  :   -82.9526168 Eh     change       -0.3262769E-03 Eh
 * total energy  :   -82.9528779 Eh     change       -0.2611416E-03 Eh
 * total energy  :   -82.9530914 Eh     change       -0.2134979E-03 Eh
 * total energy  :   -82.9532728 Eh     change       -0.1814505E-03 Eh
 * total energy  :   -82.9556747 Eh     change       -0.2999479E-04 Eh
 * total energy  :   -82.9557122 Eh     change       -0.3748982E-04 Eh
 * total energy  :   -82.9557385 Eh     change       -0.2629344E-04 Eh
 * total energy  :   -82.9557607 Eh     change       -0.2227848E-04 Eh
 * total energy  :   -82.9557723 Eh     change       -0.1150404E-04 Eh
 * total energy  :   -82.9557793 Eh     change       -0.7037719E-05 Eh
 * total energy  :   -82.9557882 Eh     change       -0.8870641E-05 Eh
 * total energy  :   -82.9557937 Eh     change       -0.5569729E-05 Eh
 * total energy  :   -82.9557981 Eh     change       -0.4414920E-05 Eh
   *** GEOMETRY OPTIMIZATION CONVERGED AFTER 38 ITERATIONS ***

 final structure:
================
42
 xtb: 6.5.1 (579679a)
C            6.55882460184226       -0.01393881894565        0.92256268754402
O            5.33869020571678        0.67760565730479        0.67517687431543
C            4.26990927102644       -0.09102648689102        0.38967063304240
O            4.35334863690848       -1.30928815022099        0.35027325317860
C            3.03377931555021        0.65552093882196        0.14123772138736
N            1.97882076682269       -0.15923553998219       -0.17211509229337
C            0.81814688938763        0.32577216481366       -0.44401652020146
C           -0.30503723755089       -0.60894836853101       -0.79834456108629
C           -1.20383272499392       -0.05445627724136       -1.89860427226952
C            0.24373744503348       -1.97991877807518       -1.17197256441180
N           -1.19065027443854       -0.71790800461704        0.48522895551658
C           -0.46227429673962       -1.27825703918415        1.65404273171583
C           -2.42814914326651       -1.52828664230319        0.24948671941703
O           -2.36122773186244       -2.72381609325159        0.20665751384149
C           -3.60925127180339       -0.71612389282424        0.11878063182019
N           -4.84168935962503       -1.11774045492906       -0.06157054747156
N           -5.61072726711514       -0.01801486438393       -0.09436818130521
C           -4.82289864306751        1.01138742342898        0.06796305440899
C           -5.20033552405321        2.43608875756573        0.10330553204208
O           -3.54576971577786        0.63460365766505        0.20831042888265
N            0.56563895736471        1.68129615038069       -0.38084170550292
C            1.52609655324531        2.61923101302692       -0.06749934858408
O            1.22644989547082        3.80348160894933       -0.02800328784299
C            2.91224715128304        2.07430129592344        0.21119186603054
O            3.81920174705642        2.87164725437813        0.47944141514986
H            6.85455396803357       -0.59509697912273        0.04410520056486
H            6.44942125993826       -0.69020385195986        1.77542273982406
H            7.31310678037502        0.74116013837418        1.14044360094403
H           -1.93660816770764       -0.80008192873976       -2.20250195291562
H           -0.58925891425470        0.20384718019618       -2.75989025219260
H           -1.73264714698165        0.83595563047466       -1.56613357772116
H            0.78990177487364       -1.87622305503069       -2.10918077699885
H            0.93539938960007       -2.34128193723074       -0.41255748349372
H           -0.55720281313512       -2.70093053182605       -1.31250662464908
H           -1.47787548926569        0.23592801633569        0.70840515119248
H           -1.05007352090388       -1.06015760968524        2.54154906210545
H           -0.35975967059629       -2.35248331129357        1.52304030004273
H            0.51311978433354       -0.79959741089557        1.71012699034829
H           -4.72373656111455        2.96521973255392       -0.72222043745949
H           -4.85408725116259        2.88808702087737        1.03273431519432
H           -6.28056876649623        2.53234910959496        0.02402830112355
H           -0.35673190194378        2.03527027650333       -0.56085849323921

          :  Hamiltonian                  GFN1-xTB          :
         :: total energy             -82.955798145415 Eh    ::
         :: gradient norm              0.000663168748 Eh/a0 ::
         :: HOMO-LUMO gap              0.379864238259 eV    ::
         :: SCC energy               -83.730315268991 Eh    ::
         :: -> Gsolv                  -0.096274684622 Eh    ::
         :: repulsion energy           0.802418945211 Eh    ::

    * Orbital Energies and Occupations

         #    Occupation            Energy/Eh            Energy/eV
      -------------------------------------------------------------
         1        2.0000           -0.8955636             -24.3695
       ...           ...                  ...                  ...
        55        2.0000           -0.5137916             -13.9810
        56        2.0000           -0.5084016             -13.8343
        57        2.0000           -0.5035585             -13.7025
        58        2.0000           -0.4963648             -13.5068
        59        2.0000           -0.4837104             -13.1624
        60        2.0000           -0.4792649             -13.0415
        61        2.0000           -0.4753321             -12.9344
        62        2.0000           -0.4748572             -12.9215
        63        2.0000           -0.4607656             -12.5381
        64        2.0000           -0.4508872             -12.2693
        65        2.0000           -0.4391123             -11.9489
        66        2.0000           -0.3969108             -10.8005
        67        1.9987           -0.3860329             -10.5045 (HOMO)
        68        0.0013           -0.3720731             -10.1246 (LUMO)
        69                         -0.2855681              -7.7707
        70                         -0.2833665              -7.7108
        71                         -0.2701647              -7.3516
        72                         -0.2456994              -6.6858
        73                         -0.2121873              -5.7739
        74                         -0.1608642              -4.3773
        75                         -0.1521364              -4.1398
        76                         -0.1489680              -4.0536
        77                         -0.1392303              -3.7886
        78                         -0.1306764              -3.5559
       ...                                ...                  ...
       134                          0.7545345              20.5319
      -------------------------------------------------------------
                  HL-Gap            0.0139598 Eh            0.3799 eV

Wiberg/Mayer (AO) data.
largest (>0.10) Wiberg bond orders for each atom

     #   Z sym  total        # sym  WBO       # sym  WBO       # sym  WBO
 ---------------------------------------------------------------------------
     1   6 C    3.890 --    28 H    0.987    26 H    0.980    27 H    0.980
                             2 O    0.916
     2   8 O    2.175 --     3 C    1.073     1 C    0.916     4 O    0.117
     3   6 C    3.848 --     4 O    1.596     5 C    1.079     2 O    1.073
     4   8 O    1.861 --     3 C    1.596     2 O    0.117
     5   6 C    3.870 --    24 C    1.236     6 N    1.204     3 C    1.079
                            25 O    0.112
     6   7 N    3.042 --     7 C    1.575     5 C    1.204
     7   6 C    3.925 --     6 N    1.575    21 N    1.097     8 C    0.994
     8   6 C    3.878 --    10 C    1.008     9 C    1.003     7 C    0.994
                            11 N    0.794
     9   6 C    3.987 --     8 C    1.003    29 H    0.979    31 H    0.978
                            30 H    0.977
    10   6 C    3.984 --     8 C    1.008    34 H    0.980    33 H    0.977
                            32 H    0.976
    11   7 N    3.593 --    12 C    0.901    35 H    0.887    13 C    0.878
                             8 C    0.794
    12   6 C    3.886 --    36 H    0.982    37 H    0.980    38 H    0.975
                            11 N    0.901
    13   6 C    3.846 --    14 O    1.735    15 C    1.093    11 N    0.878
    14   8 O    2.003 --    13 C    1.735
    15   6 C    3.877 --    16 N    1.529    13 C    1.093    20 O    1.030
    16   7 N    2.980 --    15 C    1.529    17 N    1.264
    17   7 N    2.987 --    18 C    1.543    16 N    1.264
    18   6 C    3.841 --    17 N    1.543    20 O    1.086    19 C    1.040
    19   6 C    3.979 --    18 C    1.040    41 H    0.980    40 H    0.956
                            39 H    0.953
    20   8 O    2.322 --    18 C    1.086    15 C    1.030
    21   7 N    3.415 --    22 C    1.140     7 C    1.097    42 H    0.892
                            23 O    0.134
    22   6 C    3.868 --    23 O    1.610    21 N    1.140    24 C    0.958
    23   8 O    1.881 --    22 C    1.610    21 N    0.134
    24   6 C    3.927 --    25 O    1.559     5 C    1.236    22 C    0.958
    25   8 O    1.835 --    24 C    1.559     5 C    0.112
    26   1 H    1.011 --     1 C    0.980
    27   1 H    1.011 --     1 C    0.980
    28   1 H    1.014 --     1 C    0.987
    29   1 H    0.997 --     9 C    0.979
    30   1 H    0.996 --     9 C    0.977
    31   1 H    1.000 --     9 C    0.978
    32   1 H    1.001 --    10 C    0.976
    33   1 H    1.013 --    10 C    0.977
    34   1 H    1.003 --    10 C    0.980
    35   1 H    0.938 --    11 N    0.887
    36   1 H    0.991 --    12 C    0.982
    37   1 H    0.999 --    12 C    0.980
    38   1 H    1.003 --    12 C    0.975
    39   1 H    0.991 --    19 C    0.953
    40   1 H    0.991 --    19 C    0.956
    41   1 H    0.995 --    19 C    0.980
    42   1 H    0.938 --    21 N    0.892
 ---------------------------------------------------------------------------

           -------------------------------------------------
          | TOTAL ENERGY              -82.955798145415 Eh   |
          | GRADIENT NORM               0.000663168748 Eh/α |
          | HOMO-LUMO GAP               0.379864238259 eV   |
           -------------------------------------------------

 * finished run on 2023/06/21 at 17:37:54.337
