   * xtb version 6.5.1 (579679a) compiled by 'ehlert@majestix' on 2022-07-11
          program call               : /lustre/hpc/kemi/ree/PhD/applications/universalRXNpredictor/dep/xtb-6.5.1/bin/xtb --gfn 1 /lustre/hpc/kemi/ree/PhD/applications/universalRXNpredictor/src/uniRXNpred/ref_calcs/calc/methyl_cation/methyl_cation.xyz --opt --vfukui --lmo --chrg 1 --uhf 0 --alpb DMSO

   ID    Z sym.   atoms
    1    6 C      1
    2    1 H      2-4

      * Solvation model:               ALPB
        Solvent                        DMSO
        Solvent mass                       7.8130E+01 g/mol
          :  Hamiltonian                  GFN1-xTB          :
 * total energy  :    -3.1718994 Eh     change       -0.3348433E-12 Eh
 * total energy  :    -3.1721732 Eh     change       -0.2737834E-03 Eh
 * total energy  :    -3.1668001 Eh     change        0.5373046E-02 Eh
 * total energy  :    -3.1722194 Eh     change       -0.5419301E-02 Eh
 * total energy  :    -3.1722638 Eh     change       -0.4440590E-04 Eh
 * total energy  :    -3.1722652 Eh     change       -0.1377113E-05 Eh
   *** GEOMETRY OPTIMIZATION CONVERGED AFTER 6 ITERATIONS ***

 final structure:
================
4
 xtb: 6.5.1 (579679a)
C            0.00013480724123       -0.00018557146518        0.00096666111631
H            1.06000755824644       -0.24434505306460        0.00703206288710
H           -0.74190609164605       -0.79530315195076       -0.01180420870729
H           -0.31823627384161        1.03983377648053        0.00381548470388

          :  Hamiltonian                  GFN1-xTB          :
         :: total energy              -3.172265197289 Eh    ::
         :: gradient norm              0.000494617190 Eh/a0 ::
         :: HOMO-LUMO gap              3.273158836664 eV    ::
         :: SCC energy                -3.222568774327 Eh    ::
         :: -> Gsolv                  -0.105565821636 Eh    ::
         :: repulsion energy           0.050627653075 Eh    ::

    * Orbital Energies and Occupations

         #    Occupation            Energy/Eh            Energy/eV
      -------------------------------------------------------------
         1        2.0000           -0.7759911             -21.1158
         2        2.0000           -0.6798778             -18.5004
         3        2.0000           -0.6798149             -18.4987 (HOMO)
         4                         -0.5595286             -15.2255 (LUMO)
         5                         -0.2458599              -6.6902
         6                         -0.1750639              -4.7637
         7                         -0.1750305              -4.7628
         8                          0.1423163               3.8726
         9                          0.1853400               5.0434
        10                          0.1860239               5.0620
      -------------------------------------------------------------
                  HL-Gap            0.1202864 Eh            3.2732 eV

Wiberg/Mayer (AO) data.
largest (>0.10) Wiberg bond orders for each atom

     #   Z sym  total        # sym  WBO       # sym  WBO       # sym  WBO
 ---------------------------------------------------------------------------
     1   6 C    2.843 --     4 H    0.948     3 H    0.948     2 H    0.948
     2   1 H    0.950 --     1 C    0.948
     3   1 H    0.950 --     1 C    0.948
     4   1 H    0.950 --     1 C    0.948
 ---------------------------------------------------------------------------

           -------------------------------------------------
          | TOTAL ENERGY               -3.172265197289 Eh   |
          | GRADIENT NORM               0.000494617190 Eh/α |
          | HOMO-LUMO GAP               3.273158836664 eV   |
           -------------------------------------------------

 * finished run on 2022/12/19 at 14:21:08.624
