                         Program Version 5.0.1 -  RELEASE  -
|  1> # ORCA input file
|  2> ! OPT NumFreq r2SCAN-3c CPCM
|  3>
|  4> %maxcore 7500.0
|  5> %pal nprocs True end
|  6> %cpcm smd true SMDsolvent "DMSO" end
|  7>
|  8> *xyz 1 1
|  9> C       0.000135   -0.000186    0.000967
| 10> H       1.060008   -0.244345    0.007032
| 11> H      -0.741906   -0.795303   -0.011804
| 12> H      -0.318236    1.039834    0.003815
| 13> **                         ****END OF INPUT****
 Total Charge           Charge          ....    1
 Multiplicity           Mult            ....    1
 Number of Electrons    NEL             ....    8
Dispersion correction           -0.000168567
FINAL SINGLE POINT ENERGY       -39.584986731107
Dispersion correction            ... Starting D4
Dispersion correction           -0.000168562
FINAL SINGLE POINT ENERGY       -39.584995035891
Dispersion correction            ... Starting D4
Dispersion correction           -0.000168559
FINAL SINGLE POINT ENERGY       -39.584990351335
Dispersion correction            ... Starting D4
Dispersion correction           -0.000168562
FINAL SINGLE POINT ENERGY       -39.584999093750
Dispersion correction            ... Starting D4
                    ***********************HURRAY********************

CARTESIAN COORDINATES (ANGSTROEM)
---------------------------------
  C      0.000112    0.000227    0.000092
  H      1.061993   -0.245046    0.007337
  H     -0.743350   -0.797569   -0.011538
  H     -0.318753    1.042388    0.004119

 Multiplicity           Mult            ....    1
 Number of Electrons    NEL             ....    8
 Basis Dimension        Dim             ....   34

ORBITAL ENERGIES
----------------

  NO   OCC          E(Eh)            E(eV)
   0   2.0000     -10.230189      -278.3776
   1   2.0000      -0.743553       -20.2331
   2   2.0000      -0.484208       -13.1760
   3   2.0000      -0.484066       -13.1721
   4   0.0000      -0.242784        -6.6065
   5   0.0000       0.100184         2.7261
   6   0.0000       0.163030         4.4363
   7   0.0000       0.163401         4.4464
   8   0.0000       0.215930         5.8758

MULLIKEN ATOMIC CHARGES
-----------------------
   0 C :    0.204065
   1 H :    0.265326
   2 H :    0.265195
   3 H :    0.265414
Sum of atomic charges:    1.0000000

LOEWDIN ATOMIC CHARGES
----------------------
   0 C :    0.344820
   1 H :    0.218325
   2 H :    0.218502
   3 H :    0.218354

  Mayer bond orders larger than 0.100000
B(  0-C ,  1-H ) :   0.9184 B(  0-C ,  2-H ) :   0.9184 B(  0-C ,  3-H ) :   0.9183

Dispersion correction           -0.000168562
FINAL SINGLE POINT ENERGY       -39.584999120900

DIPOLE MOMENT
-------------
                                X             Y             Z
Electronic contribution:      0.00045       0.00059       0.00016
Nuclear contribution   :     -0.00034      -0.00068      -0.00027
                        -----------------------------------------
Total Dipole Moment    :      0.00011      -0.00009      -0.00011
                        -----------------------------------------
Magnitude (a.u.)       :      0.00018
Magnitude (Debye)      :      0.00045

VIBRATIONAL FREQUENCIES
-----------------------

Scaling factor for frequencies =  1.000000000 (already applied!)

   0:         0.00 cm**-1
   1:         0.00 cm**-1
   2:         0.00 cm**-1
   3:         0.00 cm**-1
   4:         0.00 cm**-1
   5:         0.00 cm**-1
   6:      1380.01 cm**-1
   7:      1389.36 cm**-1
   8:      1439.51 cm**-1
   9:      3074.97 cm**-1
  10:      3283.25 cm**-1
  11:      3284.22 cm**-1

IR SPECTRUM
-----------

 Mode   freq       eps      Int      T**2         TX        TY        TZ
       cm**-1   L/(mol*cm) km/mol    a.u.
----------------------------------------------------------------------------
  6:   1380.01   0.005531   27.95  0.001251  ( 0.023988 -0.025986 -0.000094)
  7:   1389.36   0.005734   28.98  0.001288  ( 0.026194  0.024532  0.000205)
  8:   1439.51   0.003459   17.48  0.000750  (-0.000042  0.000174 -0.027383)
  9:   3074.97   0.000004    0.02  0.000000  ( 0.000447  0.000502  0.000029)
 10:   3283.25   0.013030   65.85  0.001238  ( 0.035126 -0.002123  0.000297)
 11:   3284.22   0.013205   66.73  0.001255  (-0.002814 -0.035309 -0.000272)

--------------------------
THERMOCHEMISTRY AT 298.15K
--------------------------

Temperature         ... 298.15 K
Pressure            ... 1.00 atm
Total Mass          ... 15.03 AMU

Throughout the following assumptions are being made:
  (1) The electronic state is orbitally nondegenerate
  (2) There are no thermally accessible electronically excited states
  (3) Hindered rotations indicated by low frequency modes are not
      treated as such but are treated as vibrations and this may
      cause some error
  (4) All equations used are the standard statistical mechanics
      equations for an ideal gas
  (5) All vibrations are strictly harmonic

freq.    1380.01  E(vib)   ...       0.01
freq.    1389.36  E(vib)   ...       0.00
freq.    1439.51  E(vib)   ...       0.00
freq.    3074.97  E(vib)   ...       0.00
freq.    3283.25  E(vib)   ...       0.00
freq.    3284.22  E(vib)   ...       0.00

------------
INNER ENERGY
------------

The inner energy is: U= E(el) + E(ZPE) + E(vib) + E(rot) + E(trans)
    E(el)   - is the total energy from the electronic structure calculation
              = E(kin-el) + E(nuc-el) + E(el-el) + E(nuc-nuc)
    E(ZPE)  - the the zero temperature vibrational energy from the frequency calculation
    E(vib)  - the the finite temperature correction to E(ZPE) due to population
              of excited vibrational states
    E(rot)  - is the rotational thermal energy
    E(trans)- is the translational thermal energy

Summary of contributions to the inner energy U:
Electronic energy                ...    -39.58499912 Eh
Zero point energy                ...      0.03155561 Eh      19.80 kcal/mol
Thermal vibrational correction   ...      0.00002216 Eh       0.01 kcal/mol
Thermal rotational correction    ...      0.00141627 Eh       0.89 kcal/mol
Thermal translational correction ...      0.00141627 Eh       0.89 kcal/mol
-----------------------------------------------------------------------
Total thermal energy                    -39.55058881 Eh

Summary of corrections to the electronic energy:
(perhaps to be used in another calculation)
Total thermal correction                  0.00285471 Eh       1.79 kcal/mol
Non-thermal (ZPE) correction              0.03155561 Eh      19.80 kcal/mol
-----------------------------------------------------------------------
Total correction                          0.03441031 Eh      21.59 kcal/mol

--------
ENTHALPY
--------

The enthalpy is H = U + kB*T
                kB is Boltzmann's constant
Total free energy                 ...    -39.55058881 Eh
Thermal Enthalpy correction       ...      0.00094421 Eh       0.59 kcal/mol
-----------------------------------------------------------------------
Total Enthalpy                    ...    -39.54964460 Eh

Note: Only C1 symmetry has been detected, increase convergence thresholds
      if your molecule has a higher symmetry. Symmetry factor of 1.0 is
      used for the rotational entropy correction.

Note: Rotational entropy computed according to Herzberg
Infrared and Raman Spectra, Chapter V,1, Van Nostrand Reinhold, 1945
Point Group:  C1, Symmetry Number:   1
Rotational constants in cm-1:     9.385460     9.379331     4.691197

Vibrational entropy computed according to the QRRHO of S. Grimme
Chem.Eur.J. 2012 18 9955

-------
ENTROPY
-------

The entropy contributions are T*S = T*(S(el)+S(vib)+S(rot)+S(trans))
     S(el)   - electronic entropy
     S(vib)  - vibrational entropy
     S(rot)  - rotational entropy
     S(trans)- translational entropy
The entropies will be listed as multiplied by the temperature to get
units of energy

Electronic entropy                ...      0.00000000 Eh      0.00 kcal/mol
Vibrational entropy               ...      0.00002545 Eh      0.02 kcal/mol
Rotational entropy                ...      0.00666724 Eh      4.18 kcal/mol
Translational entropy             ...      0.01618771 Eh     10.16 kcal/mol
-----------------------------------------------------------------------
Final entropy term                ...      0.02288040 Eh     14.36 kcal/mol

In case the symmetry of your molecule has not been determined correctly
or in case you have a reason to use a different symmetry number we print
out the resulting rotational entropy values for sn=1,12 :
 --------------------------------------------------------
|  sn= 1 | S(rot)=       0.00666724 Eh      4.18 kcal/mol|
|  sn= 2 | S(rot)=       0.00601278 Eh      3.77 kcal/mol|
|  sn= 3 | S(rot)=       0.00562995 Eh      3.53 kcal/mol|
|  sn= 4 | S(rot)=       0.00535833 Eh      3.36 kcal/mol|
|  sn= 5 | S(rot)=       0.00514764 Eh      3.23 kcal/mol|
|  sn= 6 | S(rot)=       0.00497550 Eh      3.12 kcal/mol|
|  sn= 7 | S(rot)=       0.00482995 Eh      3.03 kcal/mol|
|  sn= 8 | S(rot)=       0.00470387 Eh      2.95 kcal/mol|
|  sn= 9 | S(rot)=       0.00459266 Eh      2.88 kcal/mol|
|  sn=10 | S(rot)=       0.00449318 Eh      2.82 kcal/mol|
|  sn=11 | S(rot)=       0.00440319 Eh      2.76 kcal/mol|
|  sn=12 | S(rot)=       0.00432104 Eh      2.71 kcal/mol|
 --------------------------------------------------------

-------------------
GIBBS FREE ENERGY
-------------------

The Gibbs free energy is G = H - T*S

Total enthalpy                    ...    -39.54964460 Eh
Total entropy correction          ...     -0.02288040 Eh    -14.36 kcal/mol
-----------------------------------------------------------------------
Final Gibbs free energy         ...    -39.57252499 Eh

For completeness - the Gibbs free energy minus the electronic energy
G-E(el)                           ...      0.01247413 Eh      7.83 kcal/mol

                             ****ORCA TERMINATED NORMALLY****
TOTAL RUN TIME: 0 days 0 hours 1 minutes 56 seconds 752 msec
