   * xtb version 6.5.1 (579679a) compiled by 'ehlert@majestix' on 2022-07-11
          program call               : /lustre/hpc/kemi/ree/PhD/git/ReactivityQM/dep/xtb-6.5.1/bin/xtb --gfn 1 /lustre/hpc/kemi/ree/PhD/git/ReactivityQM/calculations/R02oxygendeprot/reac01prodE08/conf12/R02oxygendeprot_reac01prodE08_conf12_gfn1.xyz --opt --vfukui --chrg -2 --uhf 0 --alpb DMSO

   ID    Z sym.   atoms
    1    6 C      1, 3, 5, 7-10, 12, 14, 15, 18, 19, 22, 24
    2    8 O      2, 4, 13, 20, 23, 25
    3    7 N      6, 11, 16, 17, 21
    4    1 H      26-42

      * Solvation model:               ALPB
        Solvent                        DMSO
        Solvent mass                       7.8130E+01 g/mol
          :  Hamiltonian                  GFN1-xTB          :
 * total energy  :   -83.6229992 Eh     change       -0.1532641E-09 Eh
 * total energy  :   -83.6363958 Eh     change       -0.1339654E-01 Eh
 * total energy  :   -83.6412188 Eh     change       -0.4823006E-02 Eh
 * total energy  :   -83.6422861 Eh     change       -0.1067352E-02 Eh
 * total energy  :   -83.6432466 Eh     change       -0.9604918E-03 Eh
 * total energy  :   -83.6437182 Eh     change       -0.4716168E-03 Eh
 * total energy  :   -83.6440263 Eh     change       -0.3080185E-03 Eh
 * total energy  :   -83.6442219 Eh     change       -0.1956459E-03 Eh
 * total energy  :   -83.6443575 Eh     change       -0.1355982E-03 Eh
 * total energy  :   -83.6444873 Eh     change       -0.1298055E-03 Eh
 * total energy  :   -83.6736239 Eh     change       -0.1683955E-04 Eh
 * total energy  :   -83.6736406 Eh     change       -0.1667234E-04 Eh
 * total energy  :   -83.6736491 Eh     change       -0.8466910E-05 Eh
 * total energy  :   -83.6736716 Eh     change       -0.2256516E-04 Eh
 * total energy  :   -83.6736819 Eh     change       -0.1027549E-04 Eh
 * total energy  :   -83.6736970 Eh     change       -0.1510611E-04 Eh
 * total energy  :   -83.6737024 Eh     change       -0.5366090E-05 Eh
 * total energy  :   -83.6737057 Eh     change       -0.3311593E-05 Eh
 * total energy  :   -83.6737096 Eh     change       -0.3913228E-05 Eh
   *** GEOMETRY OPTIMIZATION CONVERGED AFTER 70 ITERATIONS ***

 final structure:
================
42
 xtb: 6.5.1 (579679a)
C           -5.91672691396526       -0.31203453126896        2.31193219707015
O           -4.72184777908678       -0.14178075781378        1.56891801358969
C           -4.73325735141795        0.88678037447089        0.65697155122216
O           -5.73466117394232        1.58136212491498        0.53786933884349
C           -3.48475479342579        1.00302883653744       -0.06856977474611
N           -2.51595741137406        0.06873046274635        0.26707267200167
C           -1.37103093775272        0.08840502326243       -0.31397201580575
C           -0.30733104346233       -0.95448050570619        0.00210120001818
C           -0.70188886861059       -2.24034767720221       -0.75631013996647
C           -0.32103469981974       -1.21191703078425        1.51969560599701
N            0.97683580799735       -0.42976151139766       -0.45429230667985
C            2.03479331369147       -1.17435417828525       -0.28375213981110
O            2.15594838102767       -2.32282618089013        0.20508686344374
C            3.35100532453208       -0.49004323089253       -0.80955859732746
C            4.13986081242152       -1.46362610159830       -1.68577204554589
N            3.08929373048830        0.76116915171631       -1.54060459872387
N            3.68941616141004        1.80794250612033       -0.78015364094989
C            4.28772849003088        1.26025485968987        0.19823261692292
C            5.09425268754087        1.97488732718023        1.22402273234390
O            4.17899031107164       -0.08139032052877        0.29815165940875
N           -1.07089392825715        1.01522233565692       -1.28410327394028
C           -1.91891397795914        1.99296845000854       -1.71067558976067
O           -1.55967615543585        2.79273646354863       -2.57973365639538
C           -3.27951948638762        2.00688059269855       -1.05155362137034
O           -4.10766377803871        2.87482539529406       -1.39948437367813
H           -6.76286836803859       -0.52415533697966        1.64964876917900
H           -6.14630579709100        0.58540936976378        2.89659281242730
H           -5.76025543438852       -1.15492590234790        2.98447827068454
H           -0.02074947214881       -3.05298803072804       -0.50790823809748
H           -0.66501096285342       -2.06374009441322       -1.83142658290067
H           -1.71610210717439       -2.53329874924361       -0.48192141854003
H            0.01485562512192       -0.32056285215870        2.05076645963620
H           -1.33600381088659       -1.44970950014672        1.84101757151779
H            0.33435354124575       -2.04374071321422        1.77338264151473
H            2.07309853978697        0.94352652820850       -1.52383030163583
H            5.10344253446060       -1.03322330965735       -1.95281866764686
H            3.57529582680128       -1.66641084377071       -2.59402425985173
H            4.29583990753249       -2.39513105078814       -1.14285631137471
H            5.10568922454838        3.04050492209170        1.00829026137434
H            4.67381883809389        1.80880226951115        2.21575678573866
H            6.11552692484497        1.59539320976087        1.22426969594367
H           -0.13758873113217        0.97162120664598       -1.68093616412545

          :  Hamiltonian                  GFN1-xTB          :
         :: total energy             -83.673709616024 Eh    ::
         :: gradient norm              0.000789461288 Eh/a0 ::
         :: HOMO-LUMO gap              2.439849855539 eV    ::
         :: SCC energy               -84.413275684899 Eh    ::
         :: -> Gsolv                  -0.261699527183 Eh    ::
         :: repulsion energy           0.765770969283 Eh    ::

    * Orbital Energies and Occupations

         #    Occupation            Energy/Eh            Energy/eV
      -------------------------------------------------------------
         1        2.0000           -0.7898657             -21.4933
       ...           ...                  ...                  ...
        56        2.0000           -0.4469813             -12.1630
        57        2.0000           -0.4420133             -12.0278
        58        2.0000           -0.4371936             -11.8966
        59        2.0000           -0.4252077             -11.5705
        60        2.0000           -0.4231211             -11.5137
        61        2.0000           -0.4187378             -11.3944
        62        2.0000           -0.3956510             -10.7662
        63        2.0000           -0.3915981             -10.6559
        64        2.0000           -0.3673934              -9.9973
        65        2.0000           -0.3591168              -9.7721
        66        2.0000           -0.3503926              -9.5347
        67        2.0000           -0.3478541              -9.4656
        68        2.0000           -0.3452805              -9.3956 (HOMO)
        69                         -0.2556177              -6.9557 (LUMO)
        70                         -0.2145900              -5.8393
        71                         -0.2138455              -5.8190
        72                         -0.1819143              -4.9501
        73                         -0.1666249              -4.5341
        74                         -0.1254662              -3.4141
        75                         -0.1174582              -3.1962
        76                         -0.0969343              -2.6377
        77                         -0.0927199              -2.5230
        78                         -0.0867634              -2.3610
        79                         -0.0841145              -2.2889
       ...                                ...                  ...
       134                          0.7706673              20.9709
      -------------------------------------------------------------
                  HL-Gap            0.0896628 Eh            2.4398 eV

Wiberg/Mayer (AO) data.
largest (>0.10) Wiberg bond orders for each atom

     #   Z sym  total        # sym  WBO       # sym  WBO       # sym  WBO
 ---------------------------------------------------------------------------
     1   6 C    3.905 --    28 H    0.987    26 H    0.980    27 H    0.980
                             2 O    0.933
     2   8 O    2.130 --     3 C    1.012     1 C    0.933     4 O    0.105
     3   6 C    3.848 --     4 O    1.578     5 C    1.136     2 O    1.012
     4   8 O    1.856 --     3 C    1.578     2 O    0.105
     5   6 C    3.921 --    24 C    1.275     6 N    1.144     3 C    1.136
                            25 O    0.129
     6   7 N    3.017 --     7 C    1.625     5 C    1.144
     7   6 C    3.922 --     6 N    1.625    21 N    1.107     8 C    0.973
     8   6 C    3.973 --    11 N    0.983    10 C    0.983     7 C    0.973
                             9 C    0.970
     9   6 C    3.994 --    31 H    0.988    30 H    0.987    29 H    0.981
                             8 C    0.970
    10   6 C    3.996 --    32 H    0.987    33 H    0.986    34 H    0.983
                             8 C    0.983
    11   7 N    2.941 --    12 C    1.528     8 C    0.983    13 O    0.212
    12   6 C    3.935 --    11 N    1.528    13 O    1.435    14 C    0.887
    13   8 O    1.793 --    12 C    1.435    11 N    0.212
    14   6 C    3.839 --    15 C    0.991    16 N    0.961    12 C    0.887
                            20 O    0.880
    15   6 C    3.996 --    14 C    0.991    36 H    0.987    37 H    0.986
                            38 H    0.983
    16   7 N    3.034 --    17 N    1.006    14 C    0.961    35 H    0.910
    17   7 N    2.969 --    18 C    1.748    16 N    1.006    20 O    0.124
    18   6 C    3.904 --    17 N    1.748    20 O    1.050    19 C    1.017
    19   6 C    3.994 --    18 C    1.017    39 H    0.986    41 H    0.972
                            40 H    0.971
    20   8 O    2.143 --    18 C    1.050    14 C    0.880    17 N    0.124
    21   7 N    3.450 --    22 C    1.186     7 C    1.107    42 H    0.883
                            23 O    0.136
    22   6 C    3.886 --    23 O    1.550    21 N    1.186    24 C    0.974
    23   8 O    1.829 --    22 C    1.550    21 N    0.136
    24   6 C    3.944 --    25 O    1.503     5 C    1.275    22 C    0.974
    25   8 O    1.806 --    24 C    1.503     5 C    0.129
    26   1 H    1.016 --     1 C    0.980
    27   1 H    1.016 --     1 C    0.980
    28   1 H    1.017 --     1 C    0.987
    29   1 H    1.021 --     9 C    0.981
    30   1 H    1.010 --     9 C    0.987
    31   1 H    1.011 --     9 C    0.988
    32   1 H    1.011 --    10 C    0.987
    33   1 H    1.021 --    10 C    0.986
    34   1 H    1.021 --    10 C    0.983
    35   1 H    1.014 --    16 N    0.910
    36   1 H    1.011 --    15 C    0.987
    37   1 H    1.010 --    15 C    0.986
    38   1 H    1.018 --    15 C    0.983
    39   1 H    1.004 --    19 C    0.986
    40   1 H    1.003 --    19 C    0.971
    41   1 H    1.003 --    19 C    0.972
    42   1 H    0.982 --    21 N    0.883
 ---------------------------------------------------------------------------

           -------------------------------------------------
          | TOTAL ENERGY              -83.673709616024 Eh   |
          | GRADIENT NORM               0.000789461288 Eh/α |
          | HOMO-LUMO GAP               2.439849855539 eV   |
           -------------------------------------------------

 * finished run on 2023/06/21 at 17:10:34.570
