   * xtb version 6.5.1 (579679a) compiled by 'ehlert@majestix' on 2022-07-11
          program call               : /lustre/hpc/kemi/ree/PhD/git/ReactivityQM/dep/xtb-6.5.1/bin/xtb --gfn 1 /lustre/hpc/kemi/ree/PhD/git/ReactivityQM/calculations/RaltegravirCLI/reac02prodN16/conf16/RaltegravirCLI_reac02prodN16_conf16_gfn1.xyz --opt --vfukui --chrg 1 --uhf 0 --alpb DMSO

   ID    Z sym.   atoms
    1    6 C      1, 3-7, 9, 11, 13-16, 19, 20, 22, 24, 25
    2    9 F      2
    3    7 N      8, 12, 17, 18
    4    8 O      10, 21, 23
    5    1 H      26-47

      * Solvation model:               ALPB
        Solvent                        DMSO
        Solvent mass                       7.8130E+01 g/mol
          :  Hamiltonian                  GFN1-xTB          :
 * total energy  :   -79.4229768 Eh     change       -0.9222845E-11 Eh
 * total energy  :   -79.4390631 Eh     change       -0.1608625E-01 Eh
 * total energy  :   -79.4438746 Eh     change       -0.4811480E-02 Eh
 * total energy  :   -79.4446950 Eh     change       -0.8203884E-03 Eh
 * total energy  :   -79.4451538 Eh     change       -0.4588784E-03 Eh
 * total energy  :   -79.4454127 Eh     change       -0.2588082E-03 Eh
 * total energy  :   -79.4455885 Eh     change       -0.1758915E-03 Eh
 * total energy  :   -79.4457133 Eh     change       -0.1247124E-03 Eh
 * total energy  :   -79.4458037 Eh     change       -0.9045528E-04 Eh
 * total energy  :   -79.4458597 Eh     change       -0.5600159E-04 Eh
 * total energy  :   -79.4508743 Eh     change       -0.2886107E-04 Eh
 * total energy  :   -79.4508911 Eh     change       -0.1670731E-04 Eh
 * total energy  :   -79.4509079 Eh     change       -0.1688063E-04 Eh
 * total energy  :   -79.4509156 Eh     change       -0.7686821E-05 Eh
 * total energy  :   -79.4509277 Eh     change       -0.1212566E-04 Eh
 * total energy  :   -79.4509362 Eh     change       -0.8434077E-05 Eh
 * total energy  :   -79.4509447 Eh     change       -0.8474320E-05 Eh
 * total energy  :   -79.4509515 Eh     change       -0.6888001E-05 Eh
 * total energy  :   -79.4509564 Eh     change       -0.4826523E-05 Eh
   *** GEOMETRY OPTIMIZATION CONVERGED AFTER 99 ITERATIONS ***

 final structure:
================
47
 xtb: 6.5.1 (579679a)
C            7.89233519291485       -1.19144199675531        0.48630502036821
F            6.89413040736496       -0.32597637689437        1.06022138689851
C            5.67502839409109        0.20859722139592        0.44046686348449
C            4.49227399856519       -0.32034150644263        0.88620134105988
C            3.33697603083391        0.23358310330798        0.34556058543397
C            3.41122161000076        1.25877222810072       -0.59564220405605
C            2.16630734892359        1.87474454723426       -1.18991300563074
N            0.97219821442064        1.49960287179930       -0.46360411937896
C            0.03826097326646        0.69101212034320       -1.01752667601082
O            0.09311786622630        0.30954825711536       -2.17601077557957
C           -1.08421957715677        0.31930421689711       -0.09357055312885
N           -2.29012484985275        0.10192326700096       -0.68988707892096
C           -3.33555530571339       -0.23986416768691       -0.00006631694445
C           -4.61620293324582       -0.44629136904934       -0.80032531816790
C           -4.76977916081693       -1.94303879131531       -1.11110071936426
C           -4.51505504570699        0.33913542422728       -2.11949977193958
N           -5.77615928879891        0.01472651725495       -0.04525590072594
N           -3.27219382175986       -0.45022967986473        1.35422103868749
C           -4.42428055169079       -0.85683948774399        2.16467178584532
C           -2.09399868542130       -0.25710609353746        2.05381122783175
O           -2.00316572579316       -0.41882811746522        3.26947621249598
C           -0.95984112712857        0.15309700580277        1.25286412608893
O            0.19940940195578        0.33212855908303        1.92826792793147
C            4.65686704103269        1.73663751011755       -1.00777912769184
C            5.83068652867758        1.20915212576470       -0.48423676512248
H            8.35419219845807       -0.62765862562607       -0.31865736322924
H            8.56571522203492       -1.38619832588766        1.31575303962958
H            7.36349985579498       -2.07581283847848        0.14345648791470
H            4.46139411580648       -1.11239865453739        1.62068305208931
H            2.37294420243715       -0.13501978597602        0.67677619593484
H            2.04933637105207        1.53684318342026       -2.22660157135908
H            2.26500383948795        2.96459400531654       -1.19396004092612
H            0.91014090255803        1.78015678674686        0.49986723985836
H           -4.89979983332939       -2.52174668169243       -0.19839024175419
H           -3.88499307652687       -2.30554303704735       -1.63347334231096
H           -5.64168483948075       -2.09570961272231       -1.74565744975716
H           -4.33344901126520        1.39289929141536       -1.91358052618176
H           -5.44994356125036        0.24206216360850       -2.66866785208635
H           -3.69902461480066       -0.04374070409569       -2.73106780948793
H           -6.61804422683914       -0.28225158161384       -0.51901140201344
H           -5.78008985541963        1.02601789746881       -0.01903475920717
H           -5.00630996020833       -1.60823742862586        1.64103868385929
H           -5.05184214957804        0.00955000105711        2.36713931740019
H           -4.05031618605069       -1.26644937686989        3.10270468357030
H            0.03035050043053        0.15685245084314        2.87394027742235
H            4.72078624658563        2.53282242682336       -1.73948660005159
H            6.80389792494605        1.57139905778910       -0.78141920281525

          :  Hamiltonian                  GFN1-xTB          :
         :: total energy             -79.450956366541 Eh    ::
         :: gradient norm              0.000400066952 Eh/a0 ::
         :: HOMO-LUMO gap              2.665432586316 eV    ::
         :: SCC energy               -80.350815600307 Eh    ::
         :: -> Gsolv                  -0.113592245418 Eh    ::
         :: repulsion energy           0.929081460540 Eh    ::

    * Orbital Energies and Occupations

         #    Occupation            Energy/Eh            Energy/eV
      -------------------------------------------------------------
         1        2.0000           -1.0100612             -27.4852
       ...           ...                  ...                  ...
        55        2.0000           -0.5109219             -13.9029
        56        2.0000           -0.5030112             -13.6876
        57        2.0000           -0.4953925             -13.4803
        58        2.0000           -0.4924790             -13.4010
        59        2.0000           -0.4872943             -13.2600
        60        2.0000           -0.4841477             -13.1743
        61        2.0000           -0.4730377             -12.8720
        62        2.0000           -0.4680153             -12.7353
        63        2.0000           -0.4536244             -12.3437
        64        2.0000           -0.4494618             -12.2305
        65        2.0000           -0.4380789             -11.9207
        66        2.0000           -0.4239927             -11.5374
        67        2.0000           -0.4145000             -11.2791 (HOMO)
        68                         -0.3165472              -8.6137 (LUMO)
        69                         -0.3145641              -8.5597
        70                         -0.3124595              -8.5025
        71                         -0.2772135              -7.5434
        72                         -0.2623128              -7.1379
        73                         -0.2363722              -6.4320
        74                         -0.1930096              -5.2521
        75                         -0.1840248              -5.0076
        76                         -0.1579646              -4.2984
        77                         -0.1461738              -3.9776
        78                         -0.1419589              -3.8629
       ...                                ...                  ...
       144                          0.7106979              19.3391
      -------------------------------------------------------------
                  HL-Gap            0.0979528 Eh            2.6654 eV

Wiberg/Mayer (AO) data.
largest (>0.10) Wiberg bond orders for each atom

     #   Z sym  total        # sym  WBO       # sym  WBO       # sym  WBO
 ---------------------------------------------------------------------------
     1   6 C    3.675 --    26 H    0.980    28 H    0.979    27 H    0.973
                             2 F    0.715
     2   9 F    1.438 --     1 C    0.715     3 C    0.635
     3   6 C    3.689 --     4 C    1.435    25 C    1.428     2 F    0.635
     4   6 C    3.984 --     3 C    1.435     5 C    1.420    29 H    0.961
                            24 C    0.110
     5   6 C    3.986 --     4 C    1.420     6 C    1.417    30 H    0.961
                            25 C    0.109
     6   6 C    3.983 --     5 C    1.417    24 C    1.408     7 C    1.004
     7   6 C    3.952 --     6 C    1.004    32 H    0.963     8 N    0.961
                            31 H    0.950
     8   7 N    3.335 --     9 C    1.241     7 C    0.961    33 H    0.893
                            10 O    0.168
     9   6 C    3.901 --    10 O    1.598     8 N    1.241    11 C    0.981
    10   8 O    1.891 --     9 C    1.598     8 N    0.168
    11   6 C    3.967 --    22 C    1.512    12 N    1.206     9 C    0.981
    12   7 N    3.028 --    13 C    1.553    11 C    1.206
    13   6 C    3.922 --    12 N    1.553    18 N    1.180    14 C    0.976
    14   6 C    3.966 --    16 C    0.988    17 N    0.985    15 C    0.981
                            13 C    0.976
    15   6 C    3.993 --    35 H    0.985    36 H    0.983    14 C    0.981
                            34 H    0.980
    16   6 C    3.994 --    14 C    0.988    38 H    0.986    37 H    0.985
                            39 H    0.983
    17   7 N    2.977 --    14 C    0.985    41 H    0.941    40 H    0.938
    18   7 N    3.517 --    13 C    1.180    20 C    1.133    19 C    0.926
                            21 O    0.132
    19   6 C    3.920 --    42 H    0.978    44 H    0.976    43 H    0.975
                            18 N    0.926
    20   6 C    3.918 --    21 O    1.538    18 N    1.133    22 C    1.096
    21   8 O    1.888 --    20 C    1.538    18 N    0.132
    22   6 C    3.916 --    11 C    1.512    20 C    1.096    23 O    1.061
    23   8 O    2.055 --    22 C    1.061    45 H    0.803
    24   6 C    3.988 --    25 C    1.431     6 C    1.408    46 H    0.966
                             4 C    0.110
    25   6 C    3.984 --    24 C    1.431     3 C    1.428    47 H    0.961
                             5 C    0.109
    26   1 H    0.993 --     1 C    0.980
    27   1 H    0.991 --     1 C    0.973
    28   1 H    0.993 --     1 C    0.979
    29   1 H    0.990 --     4 C    0.961
    30   1 H    1.009 --     5 C    0.961
    31   1 H    1.009 --     7 C    0.950
    32   1 H    1.001 --     7 C    0.963
    33   1 H    0.941 --     8 N    0.893
    34   1 H    1.005 --    15 C    0.980
    35   1 H    1.004 --    15 C    0.985
    36   1 H    0.999 --    15 C    0.983
    37   1 H    1.007 --    16 C    0.985
    38   1 H    1.003 --    16 C    0.986
    39   1 H    1.014 --    16 C    0.983
    40   1 H    0.953 --    17 N    0.938
    41   1 H    0.956 --    17 N    0.941
    42   1 H    1.022 --    19 C    0.978
    43   1 H    1.017 --    19 C    0.975
    44   1 H    1.009 --    19 C    0.976
    45   1 H    0.845 --    23 O    0.803
    46   1 H    0.993 --    24 C    0.966
    47   1 H    0.989 --    25 C    0.961
 ---------------------------------------------------------------------------

           -------------------------------------------------
          | TOTAL ENERGY              -79.450956366541 Eh   |
          | GRADIENT NORM               0.000400066952 Eh/α |
          | HOMO-LUMO GAP               2.665432586316 eV   |
           -------------------------------------------------

 * finished run on 2023/06/20 at 15:39:11.430
