   * xtb version 6.5.1 (579679a) compiled by 'ehlert@majestix' on 2022-07-11
          program call               : /lustre/hpc/kemi/ree/PhD/git/ReactivityQM/dep/xtb-6.5.1/bin/xtb --gfn 1 /lustre/hpc/kemi/ree/PhD/git/ReactivityQM/calculations/R02deprot/reac01prodN04/conf03/R02deprot_reac01prodN04_conf03_gfn1.xyz --opt --vfukui --chrg 0 --uhf 0 --alpb DMSO

   ID    Z sym.   atoms
    1    6 C      1, 3, 5, 6, 8-11, 13, 15, 18, 19, 22, 24
    2    8 O      2, 4, 14, 20, 23, 25
    3    7 N      7, 12, 16, 17, 21
    4    1 H      26-42

      * Solvation model:               ALPB
        Solvent                        DMSO
        Solvent mass                       7.8130E+01 g/mol
          :  Hamiltonian                  GFN1-xTB          :
 * total energy  :   -82.9436143 Eh     change       -0.1952571E-10 Eh
 * total energy  :   -82.9621466 Eh     change       -0.1853229E-01 Eh
 * total energy  :   -82.9683687 Eh     change       -0.6222112E-02 Eh
 * total energy  :   -82.9698569 Eh     change       -0.1488161E-02 Eh
 * total energy  :   -82.9708330 Eh     change       -0.9761271E-03 Eh
 * total energy  :   -82.9712740 Eh     change       -0.4409839E-03 Eh
 * total energy  :   -82.9716347 Eh     change       -0.3607372E-03 Eh
 * total energy  :   -82.9719555 Eh     change       -0.3207655E-03 Eh
 * total energy  :   -82.9721353 Eh     change       -0.1798204E-03 Eh
 * total energy  :   -82.9722491 Eh     change       -0.1137735E-03 Eh
 * total energy  :   -82.9751390 Eh     change       -0.8867733E-05 Eh
 * total energy  :   -82.9751522 Eh     change       -0.1315682E-04 Eh
 * total energy  :   -82.9751640 Eh     change       -0.1175989E-04 Eh
 * total energy  :   -82.9751736 Eh     change       -0.9624948E-05 Eh
 * total energy  :   -82.9751839 Eh     change       -0.1035356E-04 Eh
 * total energy  :   -82.9751895 Eh     change       -0.5567541E-05 Eh
 * total energy  :   -82.9751987 Eh     change       -0.9175700E-05 Eh
 * total energy  :   -82.9752042 Eh     change       -0.5469929E-05 Eh
 * total energy  :   -82.9752086 Eh     change       -0.4450096E-05 Eh
   *** GEOMETRY OPTIMIZATION CONVERGED AFTER 47 ITERATIONS ***

 final structure:
================
42
 xtb: 6.5.1 (579679a)
C           -4.18490100906863       -1.08810731357856        2.69903100545206
O           -3.74495732529180       -1.04776131038567        1.33443016311191
C           -2.59493021102683       -0.51934295047669        1.04380121353954
O           -1.92275966668519       -0.06405767677558        2.05952959513005
C           -0.66353200581783        0.61716408891065        1.99778347041354
C           -2.19988763650959       -0.47860908403789       -0.32916936845864
N           -0.93505546465938       -0.02672046844855       -0.62200065721711
C           -0.57916995153421        0.03409211283230       -1.88940341536727
C            0.82012257997199        0.56409817109510       -2.16755202857611
C            0.73393727617454        2.09435586456303       -2.28010593601297
C            1.39908307933065       -0.05712839398826       -3.44154289106186
N            1.64492651096756        0.20424678687761       -1.01186189694756
C            2.93458959928773        0.53510816066449       -0.85829651067132
O            3.62859429958127        1.12040624637172       -1.67653654630567
C            3.48194405821691        0.08368784796744        0.45189262639480
N            4.71167066152201        0.13913858562139        0.85615861456158
N            4.74187815769708       -0.40521492579636        2.10726356234231
C            3.52861763962238       -0.75765105375910        2.39000743580646
C            3.03729536270345       -1.40257083361802        3.62705674922137
O            2.67868052404348       -0.47699243713576        1.38557750288434
N           -1.31596665429773       -0.27049049378911       -2.95439262935750
C           -2.56856101752232       -0.73245751005674       -2.76748154016545
O           -3.35979981067100       -1.06118707924614       -3.66140513587677
C           -3.03254962723205       -0.85674784315346       -1.37011644350875
O           -4.26975620103228       -1.31290220432240       -1.23254651575412
H           -3.47179537256702       -1.65307557752373        3.30054094440976
H           -5.15490194796370       -1.58018900894069        2.68793914089092
H           -4.27075675812888       -0.07307122186448        3.08940452838659
H            0.12514764335997       -0.08055711108997        1.71446810404528
H           -0.48969333972381        0.99567126701227        3.00437743124505
H           -0.70648918882450        1.43532654248830        1.27878064972862
H            1.71536191011170        2.51669356009619       -2.49111076167572
H            0.36009606013906        2.50663348217945       -1.34407895728002
H            0.04880474501530        2.35936474553274       -3.08427587757957
H            2.37302169039372        0.37436586553052       -3.66658655227492
H            0.72129412176925        0.13398665780127       -4.27269097142256
H            1.50500245538688       -1.13373350525752       -3.31331580491003
H            1.15544843705397       -0.23330615701871       -0.24591473690973
H            2.23937573655456       -0.80614429768640        4.06751906751060
H            3.85464210745908       -1.50279081855684        4.33735748349116
H            2.63184613174070       -2.38779501793617        3.39638630427042
H           -4.60592059955882       -1.46825869111348       -2.14891741551565

          :  Hamiltonian                  GFN1-xTB          :
         :: total energy             -82.975208608398 Eh    ::
         :: gradient norm              0.000491720704 Eh/a0 ::
         :: HOMO-LUMO gap              1.635519708325 eV    ::
         :: SCC energy               -83.743800379151 Eh    ::
         :: -> Gsolv                  -0.063739162187 Eh    ::
         :: repulsion energy           0.795370483218 Eh    ::

    * Orbital Energies and Occupations

         #    Occupation            Energy/Eh            Energy/eV
      -------------------------------------------------------------
         1        2.0000           -0.8835966             -24.0439
       ...           ...                  ...                  ...
        55        2.0000           -0.5024704             -13.6729
        56        2.0000           -0.4906402             -13.3510
        57        2.0000           -0.4887199             -13.2987
        58        2.0000           -0.4769349             -12.9781
        59        2.0000           -0.4668189             -12.7028
        60        2.0000           -0.4594346             -12.5019
        61        2.0000           -0.4589177             -12.4878
        62        2.0000           -0.4548596             -12.3774
        63        2.0000           -0.4481361             -12.1944
        64        2.0000           -0.4395638             -11.9611
        65        2.0000           -0.4326274             -11.7724
        66        2.0000           -0.4046289             -11.0105
        67        2.0000           -0.4036500             -10.9839 (HOMO)
        68                         -0.3435458              -9.3484 (LUMO)
        69                         -0.3046059              -8.2887
        70                         -0.2599998              -7.0750
        71                         -0.2550412              -6.9400
        72                         -0.2365283              -6.4363
        73                         -0.1932425              -5.2584
        74                         -0.1557172              -4.2373
        75                         -0.1491851              -4.0595
        76                         -0.1425051              -3.8778
        77                         -0.1377635              -3.7487
        78                         -0.1172401              -3.1903
       ...                                ...                  ...
       134                          0.7343343              19.9823
      -------------------------------------------------------------
                  HL-Gap            0.0601042 Eh            1.6355 eV

Wiberg/Mayer (AO) data.
largest (>0.10) Wiberg bond orders for each atom

     #   Z sym  total        # sym  WBO       # sym  WBO       # sym  WBO
 ---------------------------------------------------------------------------
     1   6 C    3.843 --    27 H    0.983    26 H    0.976    28 H    0.975
                             2 O    0.871
     2   8 O    2.282 --     3 C    1.218     1 C    0.871
     3   6 C    3.809 --     2 O    1.218     4 O    1.209     6 C    1.175
     4   8 O    2.279 --     3 C    1.209     5 C    0.863
     5   6 C    3.831 --    30 H    0.981    31 H    0.974    29 H    0.970
                             4 O    0.863
     6   6 C    3.954 --    24 C    1.372     3 C    1.175     7 N    1.165
     7   7 N    3.019 --     8 C    1.457     6 C    1.165
     8   6 C    3.950 --     7 N    1.457    21 N    1.360     9 C    0.975
     9   6 C    3.931 --    11 C    0.992    10 C    0.976     8 C    0.975
                            12 N    0.920
    10   6 C    3.990 --    33 H    0.986    34 H    0.985    32 H    0.982
                             9 C    0.976
    11   6 C    3.991 --     9 C    0.992    37 H    0.986    35 H    0.983
                            36 H    0.983
    12   7 N    3.372 --    13 C    1.286     9 C    0.920    38 H    0.884
                            14 O    0.184
    13   6 C    3.922 --    14 O    1.570    12 N    1.286    15 C    0.984
    14   8 O    1.889 --    13 C    1.570    12 N    0.184
    15   6 C    3.867 --    16 N    1.631    20 O    1.043    13 C    0.984
    16   7 N    2.998 --    15 C    1.631    17 N    1.190
    17   7 N    2.982 --    18 C    1.621    16 N    1.190
    18   6 C    3.870 --    17 N    1.621    20 O    1.067    19 C    1.031
    19   6 C    3.987 --    18 C    1.031    40 H    0.982    39 H    0.966
                            41 H    0.962
    20   8 O    2.314 --    18 C    1.067    15 C    1.043
    21   7 N    2.998 --     8 C    1.360    22 C    1.260    23 O    0.132
    22   6 C    3.930 --    23 O    1.505    21 N    1.260    24 C    1.033
    23   8 O    1.852 --    22 C    1.505    21 N    0.132
    24   6 C    3.893 --     6 C    1.372    25 O    1.151    22 C    1.033
    25   8 O    2.123 --    24 C    1.151    42 H    0.786
    26   1 H    1.002 --     1 C    0.976
    27   1 H    1.005 --     1 C    0.983
    28   1 H    1.002 --     1 C    0.975
    29   1 H    1.025 --     5 C    0.970
    30   1 H    1.006 --     5 C    0.981
    31   1 H    1.019 --     5 C    0.974
    32   1 H    1.009 --    10 C    0.982
    33   1 H    1.006 --    10 C    0.986
    34   1 H    1.003 --    10 C    0.985
    35   1 H    1.011 --    11 C    0.983
    36   1 H    1.017 --    11 C    0.983
    37   1 H    1.005 --    11 C    0.986
    38   1 H    0.961 --    12 N    0.884
    39   1 H    0.998 --    19 C    0.966
    40   1 H    0.998 --    19 C    0.982
    41   1 H    0.997 --    19 C    0.962
    42   1 H    0.852 --    25 O    0.786
 ---------------------------------------------------------------------------

           -------------------------------------------------
          | TOTAL ENERGY              -82.975208608398 Eh   |
          | GRADIENT NORM               0.000491720704 Eh/α |
          | HOMO-LUMO GAP               1.635519708325 eV   |
           -------------------------------------------------

 * finished run on 2023/06/20 at 18:09:56.506
