   * xtb version 6.5.1 (579679a) compiled by 'ehlert@majestix' on 2022-07-11
          program call               : /lustre/hpc/kemi/ree/PhD/git/ReactivityQM/dep/xtb-6.5.1/bin/xtb --gfn 1 /lustre/hpc/kemi/ree/PhD/git/ReactivityQM/calculations/R02methylcation/reac01prodN12/conf19/R02methylcation_reac01prodN12_conf19_gfn1.xyz --opt --vfukui --chrg 0 --uhf 0 --alpb DMSO

   ID    Z sym.   atoms
    1    6 C      1, 3, 5, 7-10, 12, 14, 15, 18, 19, 22, 24
    2    8 O      2, 4, 13, 20, 23, 25
    3    7 N      6, 11, 16, 17, 21
    4    1 H      26-42

      * Solvation model:               ALPB
        Solvent                        DMSO
        Solvent mass                       7.8130E+01 g/mol
          :  Hamiltonian                  GFN1-xTB          :
 * total energy  :   -82.9277263 Eh     change       -0.3411174E-09 Eh
 * total energy  :   -82.9388311 Eh     change       -0.1110472E-01 Eh
 * total energy  :   -82.9435245 Eh     change       -0.4693481E-02 Eh
 * total energy  :   -82.9443268 Eh     change       -0.8022620E-03 Eh
 * total energy  :   -82.9448097 Eh     change       -0.4828787E-03 Eh
 * total energy  :   -82.9450278 Eh     change       -0.2181353E-03 Eh
 * total energy  :   -82.9451806 Eh     change       -0.1527859E-03 Eh
 * total energy  :   -82.9453050 Eh     change       -0.1243620E-03 Eh
 * total energy  :   -82.9454224 Eh     change       -0.1174614E-03 Eh
 * total energy  :   -82.9455307 Eh     change       -0.1082847E-03 Eh
 * total energy  :   -82.9497073 Eh     change       -0.2033504E-04 Eh
 * total energy  :   -82.9497340 Eh     change       -0.2668452E-04 Eh
 * total energy  :   -82.9497509 Eh     change       -0.1687496E-04 Eh
 * total energy  :   -82.9497695 Eh     change       -0.1864012E-04 Eh
 * total energy  :   -82.9497894 Eh     change       -0.1986700E-04 Eh
 * total energy  :   -82.9497977 Eh     change       -0.8299681E-05 Eh
 * total energy  :   -82.9498056 Eh     change       -0.7915258E-05 Eh
 * total energy  :   -82.9498117 Eh     change       -0.6090945E-05 Eh
 * total energy  :   -82.9498145 Eh     change       -0.2761633E-05 Eh
   *** GEOMETRY OPTIMIZATION CONVERGED AFTER 124 ITERATIONS ***

 final structure:
================
42
 xtb: 6.5.1 (579679a)
C            4.60831711188312        2.21744615338374        2.11829889582179
O            4.09718465179578        1.73540766125151        0.87729895947328
C            3.07402456282393        0.87654215961386        0.95130606890217
O            2.59414629346095        0.52726236524078        2.01458249295852
C            2.58864719474365        0.39241308692887       -0.35912190462330
N            1.58428606991141       -0.50875846551759       -0.25175120471628
C            1.03621441054571       -1.03317511194995       -1.30775954007831
C           -0.05300060201877       -2.05720603473836       -1.08525881730591
C            0.52199563715785       -3.20996408223326       -0.25629417981680
C           -0.70784116845228       -2.56632787522270       -2.36758837351345
N           -1.10064321770065       -1.41651704961868       -0.25999644945432
C           -1.54255449681618       -0.20400370057019       -0.57829995390185
O           -1.04305676219496        0.54633654873906       -1.37828850408467
C           -2.82901210719460        0.19667007255627        0.26062158896212
C           -4.02211773111472       -0.61023028150196       -0.24264737939919
N           -2.49579230302316       -0.01041723986338        1.62557702684223
N           -2.47803033815632        1.14029874102769        2.22590892693026
C           -2.82492258185932        2.07784811600524        1.34337756754460
C           -2.95236177309370        3.51689653015699        1.61352865175152
O           -3.06411862591198        1.58108902982744        0.15208653342047
N            1.47363410980524       -0.74202553019003       -2.56398157972796
C            2.48348921807031        0.16017646206851       -2.83620058654607
O            2.81784705060577        0.37134883732862       -3.98853816591223
C            3.11134826110712        0.82064238182831       -1.62595208119345
O            4.00444436609519        1.65288340679985       -1.79263990796680
H            5.01542465606671        1.39079025121451        2.70647394175526
H            3.81668844807848        2.70721810211681        2.69119549541846
H            5.39513288212104        2.93079322433449        1.87966060708000
H            1.28781555851760       -3.72510767663191       -0.83315941767257
H            0.96567833449307       -2.81924457577879        0.65938254962010
H           -0.26585787593041       -3.91691614266133       -0.00562801616352
H            0.01369925545545       -3.11363293000449       -2.97091678732154
H           -1.52370720487069       -3.23832192666720       -2.10891314248054
H           -1.11232616441315       -1.73573663425741       -2.94377314269214
H           -1.61212821793016       -2.00487704317387        0.37501826053384
H           -4.89980876281196       -0.34189786637236        0.34105656696976
H           -4.19785525252763       -0.37948255542046       -1.29086138900135
H           -3.81848007324516       -1.67106892315148       -0.12959977284328
H           -4.00080685777571        3.80601164524034        1.52426778137357
H           -2.39381809925835        4.08795668477034        0.87157217842678
H           -2.59788412827873        3.74635423770158        2.61483415722020
H            1.04610327189681       -1.17747405261475       -3.36453895458825

          :  Hamiltonian                  GFN1-xTB          :
         :: total energy             -82.949814471477 Eh    ::
         :: gradient norm              0.000604682793 Eh/a0 ::
         :: HOMO-LUMO gap              0.148117240241 eV    ::
         :: SCC energy               -83.720854581776 Eh    ::
         :: -> Gsolv                  -0.083441359060 Eh    ::
         :: repulsion energy           0.798044616381 Eh    ::

    * Orbital Energies and Occupations

         #    Occupation            Energy/Eh            Energy/eV
      -------------------------------------------------------------
         1        2.0000           -0.8854943             -24.0955
       ...           ...                  ...                  ...
        55        2.0000           -0.5145897             -14.0027
        56        2.0000           -0.5110953             -13.9076
        57        2.0000           -0.5081906             -13.8286
        58        2.0000           -0.4950864             -13.4720
        59        2.0000           -0.4886010             -13.2955
        60        2.0000           -0.4883677             -13.2892
        61        2.0000           -0.4772144             -12.9857
        62        2.0000           -0.4763424             -12.9619
        63        2.0000           -0.4718321             -12.8392
        64        2.0000           -0.4686698             -12.7532
        65        2.0000           -0.4528975             -12.3240
        66        2.0000           -0.4153221             -11.3015
        67        1.8921           -0.3997162             -10.8768 (HOMO)
        68        0.1079           -0.3942730             -10.7287 (LUMO)
        69                         -0.3023290              -8.2268
        70                         -0.2885442              -7.8517
        71                         -0.2783092              -7.5732
        72                         -0.2762880              -7.5182
        73                         -0.2287050              -6.2234
        74                         -0.1581173              -4.3026
        75                         -0.1500079              -4.0819
        76                         -0.1480003              -4.0273
        77                         -0.1428271              -3.8865
        78                         -0.1375505              -3.7429
       ...                                ...                  ...
       134                          0.7472035              20.3324
      -------------------------------------------------------------
                  HL-Gap            0.0054432 Eh            0.1481 eV

Wiberg/Mayer (AO) data.
largest (>0.10) Wiberg bond orders for each atom

     #   Z sym  total        # sym  WBO       # sym  WBO       # sym  WBO
 ---------------------------------------------------------------------------
     1   6 C    3.880 --    28 H    0.986    27 H    0.980    26 H    0.979
                             2 O    0.907
     2   8 O    2.187 --     3 C    1.098     1 C    0.907     4 O    0.127
     3   6 C    3.840 --     4 O    1.618     2 O    1.098     5 C    1.039
     4   8 O    1.877 --     3 C    1.618     2 O    0.127
     5   6 C    3.766 --     6 N    1.279    24 C    1.183     3 C    1.039
     6   7 N    3.004 --     7 C    1.490     5 C    1.279
     7   6 C    3.876 --     6 N    1.490    21 N    1.169     8 C    0.986
     8   6 C    3.923 --    10 C    0.996     7 C    0.986     9 C    0.981
                            11 N    0.893
     9   6 C    3.982 --    29 H    0.983    31 H    0.983    30 H    0.982
                             8 C    0.981
    10   6 C    3.990 --     8 C    0.996    33 H    0.981    34 H    0.981
                            32 H    0.981
    11   7 N    3.360 --    12 C    1.314     8 C    0.893    35 H    0.893
                            13 O    0.172
    12   6 C    3.887 --    13 O    1.648    11 N    1.314    14 C    0.797
    13   8 O    2.003 --    12 C    1.648    11 N    0.172
    14   6 C    3.855 --    16 N    1.065    15 C    0.942    20 O    0.915
                            12 C    0.797
    15   6 C    3.947 --    38 H    0.981    37 H    0.980    36 H    0.977
                            14 C    0.942
    16   7 N    2.766 --    17 N    1.456    14 C    1.065
    17   7 N    2.966 --    16 N    1.456    18 C    1.352
    18   6 C    3.697 --    17 N    1.352    20 O    1.175    19 C    1.051
    19   6 C    3.975 --    18 C    1.051    41 H    0.980    40 H    0.951
                            39 H    0.939
    20   8 O    2.255 --    18 C    1.175    14 C    0.915
    21   7 N    3.432 --     7 C    1.169    22 C    1.122    42 H    0.884
                            23 O    0.120
    22   6 C    3.849 --    23 O    1.633    21 N    1.122    24 C    0.953
    23   8 O    1.868 --    22 C    1.633    21 N    0.120
    24   6 C    3.881 --    25 O    1.594     5 C    1.183    22 C    0.953
    25   8 O    1.795 --    24 C    1.594
    26   1 H    1.008 --     1 C    0.979
    27   1 H    1.009 --     1 C    0.980
    28   1 H    1.012 --     1 C    0.986
    29   1 H    0.999 --     9 C    0.983
    30   1 H    1.008 --     9 C    0.982
    31   1 H    0.996 --     9 C    0.983
    32   1 H    0.996 --    10 C    0.981
    33   1 H    0.999 --    10 C    0.981
    34   1 H    0.998 --    10 C    0.981
    35   1 H    0.939 --    11 N    0.893
    36   1 H    0.993 --    15 C    0.977
    37   1 H    0.994 --    15 C    0.980
    38   1 H    0.997 --    15 C    0.981
    39   1 H    0.981 --    19 C    0.939
    40   1 H    0.984 --    19 C    0.951
    41   1 H    0.995 --    19 C    0.980
    42   1 H    0.934 --    21 N    0.884
 ---------------------------------------------------------------------------

           -------------------------------------------------
          | TOTAL ENERGY              -82.949814471477 Eh   |
          | GRADIENT NORM               0.000604682793 Eh/α |
          | HOMO-LUMO GAP               0.148117240241 eV   |
           -------------------------------------------------

 * finished run on 2023/06/21 at 17:44:46.673
