   * xtb version 6.5.1 (579679a) compiled by 'ehlert@majestix' on 2022-07-11
          program call               : /lustre/hpc/kemi/ree/PhD/git/ReactivityQM/dep/xtb-6.5.1/bin/xtb --gfn 1 /lustre/hpc/kemi/ree/PhD/git/ReactivityQM/calculations/R02deprot/reac01prodN13/conf07/R02deprot_reac01prodN13_conf07_gfn1.xyz --opt --vfukui --chrg 0 --uhf 0 --alpb DMSO

   ID    Z sym.   atoms
    1    6 C      1, 3, 5, 7-10, 12, 14, 15, 18, 19, 22, 24
    2    8 O      2, 4, 13, 20, 23, 25
    3    7 N      6, 11, 16, 17, 21
    4    1 H      26-42

      * Solvation model:               ALPB
        Solvent                        DMSO
        Solvent mass                       7.8130E+01 g/mol
          :  Hamiltonian                  GFN1-xTB          :
 * total energy  :   -82.9237639 Eh     change       -0.5424283E-10 Eh
 * total energy  :   -82.9349485 Eh     change       -0.1118468E-01 Eh
 * total energy  :   -82.9389064 Eh     change       -0.3957849E-02 Eh
 * total energy  :   -82.9397295 Eh     change       -0.8230559E-03 Eh
 * total energy  :   -82.9404154 Eh     change       -0.6859027E-03 Eh
 * total energy  :   -82.9407183 Eh     change       -0.3029389E-03 Eh
 * total energy  :   -82.9409014 Eh     change       -0.1830827E-03 Eh
 * total energy  :   -82.9410401 Eh     change       -0.1387154E-03 Eh
 * total energy  :   -82.9411339 Eh     change       -0.9376048E-04 Eh
 * total energy  :   -82.9412092 Eh     change       -0.7539508E-04 Eh
 * total energy  :   -82.9872363 Eh     change       -0.2238651E-04 Eh
 * total energy  :   -82.9872934 Eh     change       -0.5719361E-04 Eh
 * total energy  :   -82.9873124 Eh     change       -0.1890711E-04 Eh
 * total energy  :   -82.9873231 Eh     change       -0.1075994E-04 Eh
 * total energy  :   -82.9873335 Eh     change       -0.1038974E-04 Eh
 * total energy  :   -82.9873443 Eh     change       -0.1083063E-04 Eh
 * total energy  :   -82.9873521 Eh     change       -0.7770244E-05 Eh
 * total energy  :   -82.9873577 Eh     change       -0.5603541E-05 Eh
 * total energy  :   -82.9873618 Eh     change       -0.4110197E-05 Eh
   *** GEOMETRY OPTIMIZATION CONVERGED AFTER 157 ITERATIONS ***

 final structure:
================
42
 xtb: 6.5.1 (579679a)
C            6.13754185109227        0.96671321096530        0.61024069403964
O            4.76339613519424        0.58794228145059        0.49557371550703
C            4.51959141970074       -0.70811182959367        0.29712904340157
O            5.39261907203490       -1.53917275607737        0.21042318920954
C            3.05434118080566       -0.99065408973852        0.20178224407004
N            2.22400862357644        0.06710397594107        0.28274132299434
C            0.92606203433280       -0.12468452090763        0.20432227149860
C            0.05340945395360        1.10633489804138        0.33552289578173
C            0.17920357241984        1.62783830539047        1.77620714035966
C            0.51377427555648        2.16572295968238       -0.67534403574501
N           -1.32853099135169        0.71653586333454        0.06015071879094
C           -2.35852996291250        1.56080896512953        0.13047908695721
O           -2.29405240458074        2.74870707256167        0.40254168297598
C           -3.73609723307216        0.91035768807864       -0.15326156765403
C           -4.62152576338743        1.02021687276590        1.08801665960143
N           -4.35879952578849        1.61940342568068       -1.27027213499678
N           -4.59016254929458        0.82933142019729       -2.19714386885111
C           -4.16737301375236       -0.46270836184354       -1.84394012067225
C           -4.28940132898663       -1.54329634723380       -2.61018593869442
O           -3.62213180174899       -0.42302724909886       -0.59813807998620
N            0.33791463672348       -1.32315959961609        0.05328127613562
C            1.12344000371128       -2.37446158288346       -0.02142573959400
O            0.61195771466938       -3.59969402531453       -0.16094672955633
C            2.53540019635303       -2.26754067891391        0.04498737169994
O            3.30065762466353       -3.36612394003283       -0.03703304306471
H            6.61569232475387        0.40778984572614        1.41837387919906
H            6.66215505858275        0.76548990099494       -0.32699049271677
H            6.14994756882106        2.03264752146694        0.82839758996367
H           -0.37662964062696        2.55628440866120        1.89417219871649
H            1.22993003356769        1.80796696727195        1.99897353943744
H           -0.21025022663975        0.88647134319075        2.47215422495811
H           -0.04491411907699        3.08980838465170       -0.53737481837002
H            1.57462809230136        2.36178402524188       -0.52615768480769
H            0.35939187546980        1.80136489849853       -1.69009074033368
H           -1.49234500842830       -0.26447382373947       -0.12589095467080
H           -5.62001948098450        0.65755678942038        0.85432965192889
H           -4.19717652517196        0.41568512734544        1.88625765056353
H           -4.66907099479340        2.06151723641391        1.40093139164753
H           -3.95062428470207       -2.50954937593631       -2.27626096324325
H           -0.35360907772293       -3.58983201074000       -0.17517783973383
H           -4.73483431995712       -1.46961749952135       -3.58806359755284
H            2.75101450469908       -4.15739269691263       -0.13329208919775

          :  Hamiltonian                  GFN1-xTB          :
         :: total energy             -82.987361819311 Eh    ::
         :: gradient norm              0.000480760733 Eh/a0 ::
         :: HOMO-LUMO gap              2.478351463357 eV    ::
         :: SCC energy               -83.769761321225 Eh    ::
         :: -> Gsolv                  -0.057964791133 Eh    ::
         :: repulsion energy           0.808582576352 Eh    ::

    * Orbital Energies and Occupations

         #    Occupation            Energy/Eh            Energy/eV
      -------------------------------------------------------------
         1        2.0000           -0.8398017             -22.8522
       ...           ...                  ...                  ...
        55        2.0000           -0.5003159             -13.6143
        56        2.0000           -0.4982605             -13.5584
        57        2.0000           -0.4971784             -13.5289
        58        2.0000           -0.4966531             -13.5146
        59        2.0000           -0.4812960             -13.0967
        60        2.0000           -0.4796536             -13.0520
        61        2.0000           -0.4711828             -12.8215
        62        2.0000           -0.4607368             -12.5373
        63        2.0000           -0.4498521             -12.2411
        64        2.0000           -0.4402751             -11.9805
        65        2.0000           -0.4354615             -11.8495
        66        2.0000           -0.4319049             -11.7527
        67        2.0000           -0.4218346             -11.4787 (HOMO)
        68                         -0.3307568              -9.0004 (LUMO)
        69                         -0.3236707              -8.8075
        70                         -0.2834680              -7.7136
        71                         -0.2529098              -6.8820
        72                         -0.2386250              -6.4933
        73                         -0.2104571              -5.7268
        74                         -0.1551915              -4.2230
        75                         -0.1384442              -3.7673
        76                         -0.1260483              -3.4299
        77                         -0.1195325              -3.2526
        78                         -0.1182031              -3.2165
       ...                                ...                  ...
       134                          0.7303123              19.8728
      -------------------------------------------------------------
                  HL-Gap            0.0910777 Eh            2.4784 eV

Wiberg/Mayer (AO) data.
largest (>0.10) Wiberg bond orders for each atom

     #   Z sym  total        # sym  WBO       # sym  WBO       # sym  WBO
 ---------------------------------------------------------------------------
     1   6 C    3.872 --    28 H    0.986    26 H    0.979    27 H    0.979
                             2 O    0.898
     2   8 O    2.203 --     3 C    1.114     1 C    0.898     4 O    0.136
     3   6 C    3.849 --     4 O    1.666     2 O    1.114     5 C    0.991
     4   8 O    1.929 --     3 C    1.666     2 O    0.136
     5   6 C    3.969 --    24 C    1.395     6 N    1.300     3 C    0.991
     6   7 N    3.030 --     7 C    1.463     5 C    1.300
     7   6 C    3.944 --     6 N    1.463    21 N    1.309     8 C    0.985
     8   6 C    3.936 --     7 C    0.985    10 C    0.983     9 C    0.976
                            11 N    0.927
     9   6 C    3.990 --    31 H    0.986    30 H    0.985    29 H    0.981
                             8 C    0.976
    10   6 C    3.991 --    34 H    0.986    33 H    0.984     8 C    0.983
                            32 H    0.982
    11   7 N    3.368 --    12 C    1.313     8 C    0.927    35 H    0.876
                            13 O    0.176
    12   6 C    3.907 --    13 O    1.591    11 N    1.313    14 C    0.894
    13   8 O    1.905 --    12 C    1.591    11 N    0.176
    14   6 C    3.882 --    16 N    0.975    15 C    0.960    20 O    0.924
                            12 C    0.894
    15   6 C    3.986 --    36 H    0.983    38 H    0.983    37 H    0.983
                            14 C    0.960
    16   7 N    3.011 --    17 N    1.820    14 C    0.975    19 C    0.119
    17   7 N    3.021 --    16 N    1.820    18 C    1.068
    18   6 C    3.884 --    19 C    1.756    17 N    1.068    20 O    1.006
    19   6 C    3.976 --    18 C    1.756    41 H    0.978    39 H    0.976
                            16 N    0.119
    20   8 O    2.145 --    18 C    1.006    14 C    0.924
    21   7 N    3.044 --    22 C    1.415     7 C    1.309
    22   6 C    3.906 --    21 N    1.415    24 C    1.215    23 O    1.091
    23   8 O    2.077 --    22 C    1.091    40 H    0.806
    24   6 C    3.924 --     5 C    1.395    22 C    1.215    25 O    1.092
    25   8 O    2.069 --    24 C    1.092    42 H    0.815
    26   1 H    1.007 --     1 C    0.979
    27   1 H    1.007 --     1 C    0.979
    28   1 H    1.011 --     1 C    0.986
    29   1 H    1.010 --     9 C    0.981
    30   1 H    1.008 --     9 C    0.985
    31   1 H    1.003 --     9 C    0.986
    32   1 H    1.010 --    10 C    0.982
    33   1 H    1.012 --    10 C    0.984
    34   1 H    1.003 --    10 C    0.986
    35   1 H    0.960 --    11 N    0.876
    36   1 H    1.001 --    15 C    0.983
    37   1 H    1.001 --    15 C    0.983
    38   1 H    1.004 --    15 C    0.983
    39   1 H    0.997 --    19 C    0.976
    40   1 H    0.833 --    23 O    0.806
    41   1 H    1.000 --    19 C    0.978
    42   1 H    0.843 --    25 O    0.815
 ---------------------------------------------------------------------------

           -------------------------------------------------
          | TOTAL ENERGY              -82.987361819311 Eh   |
          | GRADIENT NORM               0.000480760733 Eh/α |
          | HOMO-LUMO GAP               2.478351463357 eV   |
           -------------------------------------------------

 * finished run on 2023/06/20 at 18:21:27.002
