   * xtb version 6.5.1 (579679a) compiled by 'ehlert@majestix' on 2022-07-11
          program call               : /lustre/hpc/kemi/ree/PhD/git/ReactivityQM/dep/xtb-6.5.1/bin/xtb --gfn 1 /lustre/hpc/kemi/ree/PhD/git/ReactivityQM/calculations/R02oxygendeprot/reac01prodE04/conf07/R02oxygendeprot_reac01prodE04_conf07_gfn1.xyz --opt --vfukui --chrg -2 --uhf 0 --alpb DMSO

   ID    Z sym.   atoms
    1    6 C      1, 3, 5, 6, 8-11, 13, 15, 18, 19, 22, 24
    2    8 O      2, 4, 14, 20, 23, 25
    3    7 N      7, 12, 16, 17, 21
    4    1 H      26-42

      * Solvation model:               ALPB
        Solvent                        DMSO
        Solvent mass                       7.8130E+01 g/mol
          :  Hamiltonian                  GFN1-xTB          :
 * total energy  :   -83.5783811 Eh     change       -0.8526513E-13 Eh
 * total energy  :   -83.5988245 Eh     change       -0.2044334E-01 Eh
 * total energy  :   -83.6053516 Eh     change       -0.6527172E-02 Eh
 * total energy  :   -83.6065499 Eh     change       -0.1198315E-02 Eh
 * total energy  :   -83.6076429 Eh     change       -0.1092952E-02 Eh
 * total energy  :   -83.6081374 Eh     change       -0.4945163E-03 Eh
 * total energy  :   -83.6085381 Eh     change       -0.4006887E-03 Eh
 * total energy  :   -83.6088888 Eh     change       -0.3507398E-03 Eh
 * total energy  :   -83.6091978 Eh     change       -0.3089865E-03 Eh
 * total energy  :   -83.6094365 Eh     change       -0.2386993E-03 Eh
 * total energy  :   -83.6132180 Eh     change       -0.2346182E-04 Eh
 * total energy  :   -83.6132324 Eh     change       -0.1436557E-04 Eh
 * total energy  :   -83.6132491 Eh     change       -0.1676374E-04 Eh
 * total energy  :   -83.6132617 Eh     change       -0.1252414E-04 Eh
 * total energy  :   -83.6132693 Eh     change       -0.7615505E-05 Eh
 * total energy  :   -83.6132776 Eh     change       -0.8362030E-05 Eh
 * total energy  :   -83.6132828 Eh     change       -0.5154032E-05 Eh
 * total energy  :   -83.6132894 Eh     change       -0.6616069E-05 Eh
 * total energy  :   -83.6132941 Eh     change       -0.4729331E-05 Eh
   *** GEOMETRY OPTIMIZATION CONVERGED AFTER 50 ITERATIONS ***

 final structure:
================
42
 xtb: 6.5.1 (579679a)
C           -2.39631710406864        2.95805197766457       -0.98435761318222
O           -2.26476560044854        1.61057257503961       -0.55152801192405
C           -3.42724436212526        0.97283480379016       -0.25818283493567
O           -4.50618347429682        1.53795908503970       -0.37631228653496
C           -3.25559872966350       -0.49828643927785        0.08037607280358
C           -4.43429459836155       -0.96570278975552        0.94099991663909
N           -2.01152115337268       -0.75035871228569        0.78820372635295
C           -0.94554488273871       -0.94645428279074        0.09542975127786
C            0.37400221330832       -1.14698667546569        0.84662905368158
C            0.16857337509912       -0.76620587237518        2.31678294228006
C            0.78760496763259       -2.62618271497464        0.76526207190730
N            1.41430617387671       -0.25224785629007        0.32523447949683
C            2.26526359397224       -0.58065466986422       -0.73353553160573
O            1.96110347887417       -1.40408131379436       -1.62839278065714
C            3.47947798550350        0.16928747308442       -0.74794853994605
N            4.45466802085770        0.12901987655049       -1.66241035634580
N            5.42045347117110        0.99862470758714       -1.23752421664235
C            5.01802490529752        1.51720548410225       -0.12484938481680
C            5.73347171861572        2.51266568540179        0.71136250132471
O            3.80175887489819        1.05815139631733        0.26593920039072
N           -0.92747712375678       -1.01082096980696       -1.25603920668037
C           -2.10204393267470       -1.28485729566517       -2.02426672486422
O           -1.92471194680730       -1.70699025942706       -3.20406229516633
C           -3.33218460679598       -1.11637990488138       -1.34424015169874
O           -4.48318289990585       -1.41171171527250       -1.81456172149594
H           -1.39396902452434        3.33245867224127       -1.18888501645310
H           -2.86296765630695        3.56724957022527       -0.20424064236104
H           -3.00856424916201        3.02079051347935       -1.89025714668774
H           -4.35694856877150       -2.03763397025821        1.11942242604636
H           -5.37346093095388       -0.75794237152960        0.42823991809470
H           -4.42823046151559       -0.44952595654500        1.90037432060279
H            1.08750607268494       -0.92283479679871        2.87914634575137
H           -0.62005724283609       -1.37858268299956        2.75225961903630
H           -0.12586491478784        0.27973924992519        2.39857323434031
H            0.04244936253068       -3.23325207867296        1.27838447804358
H            0.86084519761894       -2.96242833184306       -0.26786550026053
H            1.75135331627963       -2.76932331441462        1.25191065312410
H            1.87296635964123        0.27789922180820        1.05046837000286
H            5.15606946276066        3.43464913477556        0.78684998280062
H            6.70103787044247        2.73135432225392        0.26566391641965
H            5.88030229354377        2.12524304704908        1.71959518895284
H           -0.05010225074447       -1.25431382135252       -1.70726020710102

          :  Hamiltonian                  GFN1-xTB          :
         :: total energy             -83.613294135364 Eh    ::
         :: gradient norm              0.000544570657 Eh/a0 ::
         :: HOMO-LUMO gap              0.033659347196 eV    ::
         :: SCC energy               -84.337981669905 Eh    ::
         :: -> Gsolv                  -0.282881969222 Eh    ::
         :: repulsion energy           0.751686332446 Eh    ::

    * Orbital Energies and Occupations

         #    Occupation            Energy/Eh            Energy/eV
      -------------------------------------------------------------
         1        2.0000           -0.8019560             -21.8223
       ...           ...                  ...                  ...
        56        2.0000           -0.4485521             -12.2057
        57        2.0000           -0.4437004             -12.0737
        58        2.0000           -0.4271081             -11.6222
        59        2.0000           -0.4240815             -11.5398
        60        2.0000           -0.4080531             -11.1037
        61        2.0000           -0.4045514             -11.0084
        62        2.0000           -0.4034021             -10.9771
        63        2.0000           -0.3975841             -10.8188
        64        2.0000           -0.3903471             -10.6219
        65        2.0000           -0.3760959             -10.2341
        66        2.0000           -0.3708007             -10.0900
        67        2.0000           -0.3440301              -9.3615
        68        1.3145           -0.2678852              -7.2895 (HOMO)
        69        0.6855           -0.2666483              -7.2559 (LUMO)
        70                         -0.2224446              -6.0530
        71                         -0.2094118              -5.6984
        72                         -0.1995593              -5.4303
        73                         -0.1403471              -3.8190
        74                         -0.1235204              -3.3612
        75                         -0.1223378              -3.3290
        76                         -0.1139291              -3.1002
        77                         -0.1016143              -2.7651
        78                         -0.0971690              -2.6441
        79                         -0.0874976              -2.3809
       ...                                ...                  ...
       134                          0.7125541              19.3896
      -------------------------------------------------------------
                  HL-Gap            0.0012370 Eh            0.0337 eV

Wiberg/Mayer (AO) data.
largest (>0.10) Wiberg bond orders for each atom

     #   Z sym  total        # sym  WBO       # sym  WBO       # sym  WBO
 ---------------------------------------------------------------------------
     1   6 C    3.898 --    26 H    0.987    27 H    0.981    28 H    0.981
                             2 O    0.922
     2   8 O    2.148 --     3 C    1.049     1 C    0.922     4 O    0.108
     3   6 C    3.775 --     4 O    1.596     2 O    1.049     5 C    0.946
     4   8 O    1.861 --     3 C    1.596     2 O    0.108
     5   6 C    3.960 --     6 C    0.990     7 N    0.981     3 C    0.946
                            24 C    0.878
     6   6 C    3.989 --     5 C    0.990    31 H    0.989    29 H    0.988
                            30 H    0.984
     7   7 N    2.931 --     8 C    1.638     5 C    0.981    21 N    0.150
     8   6 C    3.930 --     7 N    1.638    21 N    1.196     9 C    0.961
     9   6 C    3.950 --    10 C    1.001    11 C    0.983     8 C    0.961
                            12 N    0.939
    10   6 C    3.996 --     9 C    1.001    32 H    0.987    34 H    0.985
                            33 H    0.983
    11   6 C    3.991 --    35 H    0.987    37 H    0.986     9 C    0.983
                            36 H    0.979
    12   7 N    3.143 --    13 C    1.093     9 C    0.939    38 H    0.919
                            14 O    0.110
    13   6 C    3.748 --    14 O    1.425    15 C    1.160    12 N    1.093
    14   8 O    1.701 --    13 C    1.425    12 N    0.110
    15   6 C    3.692 --    16 N    1.397    13 C    1.160    20 O    0.965
    16   7 N    2.722 --    15 C    1.397    17 N    1.189
    17   7 N    2.982 --    18 C    1.629    16 N    1.189
    18   6 C    3.811 --    17 N    1.629    20 O    1.039    19 C    1.024
    19   6 C    3.994 --    18 C    1.024    40 H    0.986    41 H    0.972
                            39 H    0.970
    20   8 O    2.176 --    18 C    1.039    15 C    0.965
    21   7 N    3.342 --     8 C    1.196    22 C    0.974    42 H    0.885
                             7 N    0.150
    22   6 C    3.748 --    23 O    1.391    24 C    1.235    21 N    0.974
    23   8 O    1.600 --    22 C    1.391
    24   6 C    3.722 --    25 O    1.375    22 C    1.235     5 C    0.878
    25   8 O    1.573 --    24 C    1.375
    26   1 H    1.016 --     1 C    0.987
    27   1 H    1.014 --     1 C    0.981
    28   1 H    1.014 --     1 C    0.981
    29   1 H    1.012 --     6 C    0.988
    30   1 H    1.026 --     6 C    0.984
    31   1 H    1.011 --     6 C    0.989
    32   1 H    1.003 --    10 C    0.987
    33   1 H    1.021 --    10 C    0.983
    34   1 H    1.012 --    10 C    0.985
    35   1 H    1.007 --    11 C    0.987
    36   1 H    1.020 --    11 C    0.979
    37   1 H    1.005 --    11 C    0.986
    38   1 H    0.964 --    12 N    0.919
    39   1 H    1.000 --    19 C    0.970
    40   1 H    1.004 --    19 C    0.986
    41   1 H    1.000 --    19 C    0.972
    42   1 H    0.971 --    21 N    0.885
 ---------------------------------------------------------------------------

           -------------------------------------------------
          | TOTAL ENERGY              -83.613294135364 Eh   |
          | GRADIENT NORM               0.000544570657 Eh/α |
          | HOMO-LUMO GAP               0.033659347196 eV   |
           -------------------------------------------------

 * finished run on 2023/06/21 at 17:04:34.423
