   * xtb version 6.5.1 (579679a) compiled by 'ehlert@majestix' on 2022-07-11
          program call               : /lustre/hpc/kemi/ree/PhD/git/ReactivityQM/dep/xtb-6.5.1/bin/xtb --gfn 1 /lustre/hpc/kemi/ree/PhD/git/ReactivityQM/calculations/R02methylcation/reac01prodE13/conf15/R02methylcation_reac01prodE13_conf15_gfn1.xyz --opt --vfukui --chrg -2 --uhf 0 --alpb DMSO

   ID    Z sym.   atoms
    1    6 C      1, 3, 5, 6, 8, 10, 12-15, 17, 19, 22, 23
    2    8 O      2, 4, 7, 9, 18, 24
    3    7 N      11, 16, 20, 21, 25
    4    1 H      26-42

      * Solvation model:               ALPB
        Solvent                        DMSO
        Solvent mass                       7.8130E+01 g/mol
          :  Hamiltonian                  GFN1-xTB          :
 * total energy  :   -83.5665075 Eh     change       -0.3061018E-10 Eh
 * total energy  :   -83.5798224 Eh     change       -0.1331487E-01 Eh
 * total energy  :   -83.5849316 Eh     change       -0.5109255E-02 Eh
 * total energy  :   -83.5858554 Eh     change       -0.9237937E-03 Eh
 * total energy  :   -83.5864049 Eh     change       -0.5495354E-03 Eh
 * total energy  :   -83.5866592 Eh     change       -0.2542275E-03 Eh
 * total energy  :   -83.5868988 Eh     change       -0.2396595E-03 Eh
 * total energy  :   -83.5870996 Eh     change       -0.2007676E-03 Eh
 * total energy  :   -83.5872940 Eh     change       -0.1943708E-03 Eh
 * total energy  :   -83.5875496 Eh     change       -0.2556710E-03 Eh
 * total energy  :   -83.5934187 Eh     change       -0.2875358E-04 Eh
 * total energy  :   -83.5934429 Eh     change       -0.2427322E-04 Eh
 * total energy  :   -83.5934587 Eh     change       -0.1581113E-04 Eh
 * total energy  :   -83.5934821 Eh     change       -0.2338020E-04 Eh
 * total energy  :   -83.5934914 Eh     change       -0.9305820E-05 Eh
 * total energy  :   -83.5935024 Eh     change       -0.1098317E-04 Eh
 * total energy  :   -83.5935086 Eh     change       -0.6215274E-05 Eh
 * total energy  :   -83.5935137 Eh     change       -0.5044360E-05 Eh
 * total energy  :   -83.5935177 Eh     change       -0.4027228E-05 Eh
   *** GEOMETRY OPTIMIZATION CONVERGED AFTER 74 ITERATIONS ***

 final structure:
================
42
 xtb: 6.5.1 (579679a)
C           -1.58121935437049       -3.48857583246798        2.12740494998519
O           -1.45066990073205       -2.29897531173173        1.38341200449701
C           -2.68111573404097       -1.73630041482661        0.95116582040819
O           -3.72922789950690       -2.33017013833496        1.27008510936882
C           -2.51090606069040       -0.55422673812960        0.20877300291795
C           -3.64243317602992        0.21772098231458       -0.35417256586572
O           -4.85734867427694       -0.12882483875479       -0.21982374653272
C           -3.25883304227498        1.35598848288454       -1.06871165984765
O           -4.12560651867968        2.23624459809206       -1.71663398324469
C           -5.08057677821863        2.88791394030701       -0.88838025470139
N           -1.90953359960531        1.76664167416407       -1.14062230338802
C           -0.92736991693222        0.95375156911952       -0.63554426212495
C            0.51363995728935        1.40344264421623       -0.84017391495049
C            0.84253070631919        1.41491719506866       -2.34537020436481
C            0.71507955798158        2.80440102961465       -0.23832638316459
N            1.35391757336592        0.44552172425921       -0.14007974726326
C            2.72989019333426        0.44145793032532       -0.20946727636829
O            3.39844094300866        1.39351944791642       -0.66640151241973
C            3.29145719339834       -0.75941878710124        0.34614942400531
N            2.61576742040541       -1.80404280833463        0.82303648308959
N            3.54899912322212       -2.71752191399293        1.23008868069337
C            4.71355405348048       -2.21032774584512        0.99144131435060
C            6.03458698785021       -2.82755964839786        1.26722978070026
O            4.65072565886603       -0.97808753728465        0.43363948026157
N           -1.18821202004059       -0.12789763211952        0.00420261983413
H           -2.05866732103059       -4.28420680683531        1.53886480368572
H           -0.57803785320858       -3.81314781630986        2.41285307269751
H           -2.17705089385667       -3.33402530593249        3.03736754472578
H           -5.76729140036797        2.16478976807203       -0.42930818991608
H           -5.64825907955957        3.56553857471372       -1.52855883744652
H           -4.59169281243744        3.47097755802956       -0.09734488702504
H           -1.69711462101595        2.54660160618188       -1.73449574958555
H            1.86206127968849        1.76113999537714       -2.50811504368656
H            0.16207024377175        2.08348606378450       -2.86969943045265
H            0.73780066334076        0.41152478211224       -2.75813506724639
H            0.48835282595098        2.78672948638200        0.82784129597234
H            0.05783050432219        3.52154550853246       -0.72647880518817
H            1.74566627208345        3.12802597614642       -0.37583864811840
H            0.89014826743600       -0.42667569582156        0.11519381176005
H            5.89263965085740       -3.82392997047610        1.67870959780099
H            6.62073411109788       -2.89578706732658        0.35084611110689
H            6.59527146980764       -2.22217952759230        1.97992556504284

          :  Hamiltonian                  GFN1-xTB          :
         :: total energy             -83.593517703530 Eh    ::
         :: gradient norm              0.000476563025 Eh/a0 ::
         :: HOMO-LUMO gap              0.048077739226 eV    ::
         :: SCC energy               -84.321448316535 Eh    ::
         :: -> Gsolv                  -0.280807972606 Eh    ::
         :: repulsion energy           0.753041066547 Eh    ::

    * Orbital Energies and Occupations

         #    Occupation            Energy/Eh            Energy/eV
      -------------------------------------------------------------
         1        2.0000           -0.8051999             -21.9106
       ...           ...                  ...                  ...
        56        2.0000           -0.4329357             -11.7808
        57        2.0000           -0.4311335             -11.7317
        58        2.0000           -0.4258824             -11.5889
        59        2.0000           -0.4100145             -11.1571
        60        2.0000           -0.4072538             -11.0819
        61        2.0000           -0.4063685             -11.0579
        62        2.0000           -0.3985483             -10.8451
        63        2.0000           -0.3906683             -10.6306
        64        2.0000           -0.3890304             -10.5861
        65        2.0000           -0.3841137             -10.4523
        66        2.0000           -0.3398151              -9.2468
        67        2.0000           -0.3345436              -9.1034
        68        1.4341           -0.2676732              -7.2838 (HOMO)
        69        0.5659           -0.2659064              -7.2357 (LUMO)
        70                         -0.2128324              -5.7915
        71                         -0.2000357              -5.4432
        72                         -0.1616828              -4.3996
        73                         -0.1413193              -3.8455
        74                         -0.1260296              -3.4294
        75                         -0.1069666              -2.9107
        76                         -0.1057462              -2.8775
        77                         -0.1053220              -2.8660
        78                         -0.0983266              -2.6756
        79                         -0.0739180              -2.0114
       ...                                ...                  ...
       134                          0.7344590              19.9856
      -------------------------------------------------------------
                  HL-Gap            0.0017668 Eh            0.0481 eV

Wiberg/Mayer (AO) data.
largest (>0.10) Wiberg bond orders for each atom

     #   Z sym  total        # sym  WBO       # sym  WBO       # sym  WBO
 ---------------------------------------------------------------------------
     1   6 C    3.925 --    27 H    0.986    26 H    0.980    28 H    0.980
                             2 O    0.959
     2   8 O    2.046 --     1 C    0.959     3 C    0.916
     3   6 C    3.788 --     4 O    1.458     5 C    1.309     2 O    0.916
     4   8 O    1.716 --     3 C    1.458     5 C    0.100
     5   6 C    3.757 --     3 C    1.309    25 N    1.098     6 C    1.066
                             4 O    0.100
     6   6 C    3.925 --     7 O    1.390     8 C    1.345     5 C    1.066
     7   8 O    1.684 --     6 C    1.390     8 C    0.120
     8   6 C    3.525 --     6 C    1.345    11 N    1.001     9 O    0.948
                             7 O    0.120
     9   8 O    2.007 --     8 C    0.948    10 C    0.935
    10   6 C    3.911 --    30 H    0.987    31 H    0.983    29 H    0.979
                             9 O    0.935
    11   7 N    3.239 --    12 C    1.128     8 C    1.001    32 H    0.911
                            25 N    0.109
    12   6 C    3.930 --    25 N    1.617    11 N    1.128    13 C    0.973
    13   6 C    3.951 --    15 C    0.985    14 C    0.980    12 C    0.973
                            16 N    0.950
    14   6 C    3.990 --    35 H    0.987    34 H    0.985    33 H    0.981
                            13 C    0.980
    15   6 C    3.991 --    36 H    0.987    37 H    0.986    13 C    0.985
                            38 H    0.981
    16   7 N    3.202 --    17 C    1.142    13 C    0.950    39 H    0.892
                            18 O    0.126
    17   6 C    3.780 --    18 O    1.445    16 N    1.142    19 C    1.124
    18   8 O    1.703 --    17 C    1.445    16 N    0.126
    19   6 C    3.693 --    20 N    1.419    17 C    1.124    24 O    0.982
    20   7 N    2.766 --    19 C    1.419    21 N    1.185
    21   7 N    2.981 --    22 C    1.628    20 N    1.185
    22   6 C    3.822 --    21 N    1.628    24 O    1.051    23 C    1.024
    23   6 C    3.994 --    22 C    1.024    40 H    0.986    41 H    0.972
                            42 H    0.970
    24   8 O    2.191 --    22 C    1.051    19 C    0.982
    25   7 N    2.983 --    12 C    1.617     5 C    1.098    11 N    0.109
    26   1 H    1.022 --     1 C    0.980
    27   1 H    1.021 --     1 C    0.986
    28   1 H    1.023 --     1 C    0.980
    29   1 H    1.037 --    10 C    0.979
    30   1 H    1.020 --    10 C    0.987
    31   1 H    1.015 --    10 C    0.983
    32   1 H    0.960 --    11 N    0.911
    33   1 H    1.016 --    14 C    0.981
    34   1 H    1.006 --    14 C    0.985
    35   1 H    1.008 --    14 C    0.987
    36   1 H    1.009 --    15 C    0.987
    37   1 H    1.006 --    15 C    0.986
    38   1 H    1.019 --    15 C    0.981
    39   1 H    0.996 --    16 N    0.892
    40   1 H    1.004 --    23 C    0.986
    41   1 H    1.001 --    23 C    0.972
    42   1 H    1.001 --    23 C    0.970
 ---------------------------------------------------------------------------

           -------------------------------------------------
          | TOTAL ENERGY              -83.593517703530 Eh   |
          | GRADIENT NORM               0.000476563025 Eh/α |
          | HOMO-LUMO GAP               0.048077739226 eV   |
           -------------------------------------------------

 * finished run on 2023/06/21 at 17:25:45.280
