   * xtb version 6.5.1 (579679a) compiled by 'ehlert@majestix' on 2022-07-11
          program call               : /lustre/hpc/kemi/ree/PhD/git/ReactivityQM/dep/xtb-6.5.1/bin/xtb --gfn 1 /lustre/hpc/kemi/ree/PhD/git/ReactivityQM/calculations/R02methylcation/reac01prodE13/conf09/R02methylcation_reac01prodE13_conf09_gfn1.xyz --opt --vfukui --chrg -2 --uhf 0 --alpb DMSO

   ID    Z sym.   atoms
    1    6 C      1, 3, 5, 6, 8, 10, 12-15, 17, 19, 22, 23
    2    8 O      2, 4, 7, 9, 18, 24
    3    7 N      11, 16, 20, 21, 25
    4    1 H      26-42

      * Solvation model:               ALPB
        Solvent                        DMSO
        Solvent mass                       7.8130E+01 g/mol
          :  Hamiltonian                  GFN1-xTB          :
 * total energy  :   -83.5672623 Eh     change       -0.1017128E-08 Eh
 * total energy  :   -83.5820163 Eh     change       -0.1475402E-01 Eh
 * total energy  :   -83.5880687 Eh     change       -0.6052342E-02 Eh
 * total energy  :   -83.5893313 Eh     change       -0.1262576E-02 Eh
 * total energy  :   -83.5899563 Eh     change       -0.6250675E-03 Eh
 * total energy  :   -83.5901707 Eh     change       -0.2143630E-03 Eh
 * total energy  :   -83.5903107 Eh     change       -0.1400225E-03 Eh
 * total energy  :   -83.5904178 Eh     change       -0.1070925E-03 Eh
 * total energy  :   -83.5904915 Eh     change       -0.7370994E-04 Eh
 * total energy  :   -83.5905427 Eh     change       -0.5114649E-04 Eh
 * total energy  :   -83.5915078 Eh     change       -0.3652496E-04 Eh
 * total energy  :   -83.5915152 Eh     change       -0.7375751E-05 Eh
 * total energy  :   -83.5915314 Eh     change       -0.1618559E-04 Eh
 * total energy  :   -83.5915483 Eh     change       -0.1692443E-04 Eh
 * total energy  :   -83.5915664 Eh     change       -0.1810057E-04 Eh
 * total energy  :   -83.5915888 Eh     change       -0.2247152E-04 Eh
 * total energy  :   -83.5915943 Eh     change       -0.5455280E-05 Eh
 * total energy  :   -83.5916004 Eh     change       -0.6059070E-05 Eh
 * total energy  :   -83.5916047 Eh     change       -0.4296482E-05 Eh
   *** GEOMETRY OPTIMIZATION CONVERGED AFTER 46 ITERATIONS ***

 final structure:
================
42
 xtb: 6.5.1 (579679a)
C           -5.64124059690457        2.84933876750198        0.07514551006408
O           -4.71215362193676        1.82940655688939        0.36453736835654
C           -3.60536214375922        1.77981822072611       -0.49016967245327
O           -3.52462642437108        2.63419863168947       -1.40056691348911
C           -2.67446909736331        0.75004512872901       -0.22599650872399
C           -2.78821918712360       -0.27151629609688        0.83434890507018
O           -3.76137211959089       -0.32983267634946        1.65133560551631
C           -1.72250725731139       -1.18016615095932        0.86486745082573
O           -1.60499219860916       -2.26668141045261        1.73035069181939
C           -1.74199371608521       -1.99251058869082        3.11657375378662
N           -0.65889116219260       -1.10514820030699       -0.04072406092953
C           -0.66295037850717       -0.15302447090455       -1.02115085388749
C            0.47440317088497       -0.15571585221203       -2.03892998280245
C            0.29314420901840        1.03666609530050       -2.98708449379896
C            0.45425626230685       -1.45365585653101       -2.86064583433884
N            1.77576854767746        0.02291170516982       -1.39100409094228
C            2.37204058185080       -0.90282745055868       -0.53408395357974
O            2.06240043833369       -2.11838145868035       -0.50568085864850
C            3.40675735069847       -0.30060178260250        0.24051696325494
N            3.72539741710021        1.00169396387732        0.25894116345928
N            4.75694576549063        1.13439368658301        1.14822242072252
C            5.01608264250819       -0.04113477682965        1.61956870521609
C            6.05951860484335       -0.39544247395540        2.61427716946870
O            4.21553365128502       -1.00945981171156        1.10959131466534
N           -1.58778565351482        0.73859964349231       -1.10755847634659
H           -6.05788091594764        2.73991177479619       -0.93482984607259
H           -6.45029361079607        2.77274162960474        0.80395027464311
H           -5.18441481939108        3.84495618308115        0.15028148669024
H           -1.03224820315030       -1.22243606875012        3.44725714267074
H           -1.52808092191545       -2.92326386676912        3.64634385642050
H           -2.76055467883295       -1.66625318146790        3.36259992070440
H            0.02455386231902       -1.85074407801402       -0.04164253645238
H            0.28324910811117        1.97088841335687       -2.42523072502504
H           -0.65392719887373        0.94723492701309       -3.51838693055042
H            1.10612832623922        1.06500846580786       -3.71115025201542
H           -0.45722687342722       -1.48981122176468       -3.45725444144014
H            1.31340164109051       -1.48161525453252       -3.52985109091303
H            0.48449373598422       -2.33202090616466       -2.21916973361355
H            2.01878262974015        0.98598916223645       -1.19374784756823
H            5.60606479478885       -0.82337748284301        3.50918112906160
H            6.61754359905684        0.49675808026182        2.88763163785479
H            6.74472244023901       -1.13493871897354        2.19933663330951

          :  Hamiltonian                  GFN1-xTB          :
         :: total energy             -83.591604660125 Eh    ::
         :: gradient norm              0.000919998746 Eh/a0 ::
         :: HOMO-LUMO gap              0.054370956375 eV    ::
         :: SCC energy               -84.315583425573 Eh    ::
         :: -> Gsolv                  -0.272722624733 Eh    ::
         :: repulsion energy           0.749132648145 Eh    ::

    * Orbital Energies and Occupations

         #    Occupation            Energy/Eh            Energy/eV
      -------------------------------------------------------------
         1        2.0000           -0.7984161             -21.7260
       ...           ...                  ...                  ...
        56        2.0000           -0.4372418             -11.8980
        57        2.0000           -0.4280021             -11.6465
        58        2.0000           -0.4277326             -11.6392
        59        2.0000           -0.4057739             -11.0417
        60        2.0000           -0.4047092             -11.0127
        61        2.0000           -0.4019660             -10.9381
        62        2.0000           -0.3956423             -10.7660
        63        2.0000           -0.3920932             -10.6694
        64        2.0000           -0.3901833             -10.6174
        65        2.0000           -0.3781906             -10.2911
        66        2.0000           -0.3421036              -9.3091
        67        2.0000           -0.3358151              -9.1380
        68        1.4822           -0.2661532              -7.2424 (HOMO)
        69        0.5178           -0.2641551              -7.1880 (LUMO)
        70                         -0.2082868              -5.6678
        71                         -0.1999023              -5.4396
        72                         -0.1636686              -4.4536
        73                         -0.1371490              -3.7320
        74                         -0.1236219              -3.3639
        75                         -0.1054724              -2.8700
        76                         -0.1051746              -2.8619
        77                         -0.1000980              -2.7238
        78                         -0.0977217              -2.6591
        79                         -0.0717153              -1.9515
       ...                                ...                  ...
       134                          0.7084184              19.2770
      -------------------------------------------------------------
                  HL-Gap            0.0019981 Eh            0.0544 eV

Wiberg/Mayer (AO) data.
largest (>0.10) Wiberg bond orders for each atom

     #   Z sym  total        # sym  WBO       # sym  WBO       # sym  WBO
 ---------------------------------------------------------------------------
     1   6 C    3.922 --    27 H    0.987    26 H    0.980    28 H    0.980
                             2 O    0.954
     2   8 O    2.072 --     1 C    0.954     3 C    0.951
     3   6 C    3.775 --     4 O    1.446     5 C    1.280     2 O    0.951
     4   8 O    1.694 --     3 C    1.446
     5   6 C    3.757 --     3 C    1.280    25 N    1.119     6 C    1.079
     6   6 C    3.919 --     7 O    1.384     8 C    1.330     5 C    1.079
     7   8 O    1.682 --     6 C    1.384     8 C    0.114
     8   6 C    3.566 --     6 C    1.330    11 N    1.039     9 O    0.952
                             7 O    0.114
     9   8 O    2.017 --     8 C    0.952    10 C    0.936
    10   6 C    3.909 --    30 H    0.986    29 H    0.983    31 H    0.978
                             9 O    0.936
    11   7 N    3.283 --    12 C    1.143     8 C    1.039    32 H    0.887
    12   6 C    3.928 --    25 N    1.598    11 N    1.143    13 C    0.963
    13   6 C    3.950 --    14 C    1.000    15 C    0.989    12 C    0.963
                            16 N    0.936
    14   6 C    3.996 --    13 C    1.000    35 H    0.988    34 H    0.985
                            33 H    0.984
    15   6 C    3.992 --    13 C    0.989    36 H    0.988    37 H    0.986
                            38 H    0.979
    16   7 N    3.154 --    17 C    1.092    13 C    0.936    39 H    0.916
                            18 O    0.110
    17   6 C    3.765 --    18 O    1.418    19 C    1.163    16 N    1.092
    18   8 O    1.697 --    17 C    1.418    16 N    0.110
    19   6 C    3.700 --    20 N    1.379    17 C    1.163    24 O    0.974
    20   7 N    2.738 --    19 C    1.379    21 N    1.184
    21   7 N    2.980 --    22 C    1.629    20 N    1.184
    22   6 C    3.819 --    21 N    1.629    24 O    1.047    23 C    1.023
    23   6 C    3.994 --    22 C    1.023    41 H    0.986    42 H    0.972
                            40 H    0.971
    24   8 O    2.180 --    22 C    1.047    19 C    0.974
    25   7 N    2.955 --    12 C    1.598     5 C    1.119
    26   1 H    1.021 --     1 C    0.980
    27   1 H    1.021 --     1 C    0.987
    28   1 H    1.021 --     1 C    0.980
    29   1 H    1.013 --    10 C    0.983
    30   1 H    1.020 --    10 C    0.986
    31   1 H    1.040 --    10 C    0.978
    32   1 H    0.965 --    11 N    0.887
    33   1 H    1.016 --    14 C    0.984
    34   1 H    1.018 --    14 C    0.985
    35   1 H    1.006 --    14 C    0.988
    36   1 H    1.007 --    15 C    0.988
    37   1 H    1.007 --    15 C    0.986
    38   1 H    1.024 --    15 C    0.979
    39   1 H    0.978 --    16 N    0.916
    40   1 H    1.001 --    23 C    0.971
    41   1 H    1.005 --    23 C    0.986
    42   1 H    1.001 --    23 C    0.972
 ---------------------------------------------------------------------------

           -------------------------------------------------
          | TOTAL ENERGY              -83.591604660125 Eh   |
          | GRADIENT NORM               0.000919998746 Eh/α |
          | HOMO-LUMO GAP               0.054370956375 eV   |
           -------------------------------------------------

 * finished run on 2023/06/21 at 17:25:33.721
