   * xtb version 6.5.1 (579679a) compiled by 'ehlert@majestix' on 2022-07-11
          program call               : /lustre/hpc/kemi/ree/PhD/git/ReactivityQM/dep/xtb-6.5.1/bin/xtb --gfn 1 /lustre/hpc/kemi/ree/PhD/git/ReactivityQM/calculations/RaltegravirCLI/reac02prodE06/conf05/RaltegravirCLI_reac02prodE06_conf05_gfn1.xyz --opt --vfukui --chrg -1 --uhf 0 --alpb DMSO

   ID    Z sym.   atoms
    1    6 C      1, 3-6, 9, 10, 13-18, 20-22, 24
    2    7 N      2, 7, 8, 12
    3    8 O      11, 23, 25
    4    9 F      19
    5    1 H      26-47

      * Solvation model:               ALPB
        Solvent                        DMSO
        Solvent mass                       7.8130E+01 g/mol
          :  Hamiltonian                  GFN1-xTB          :
 * total energy  :   -80.1776681 Eh     change       -0.1622595E-08 Eh
 * total energy  :   -80.1845007 Eh     change       -0.6832528E-02 Eh
 * total energy  :   -80.1864532 Eh     change       -0.1952551E-02 Eh
 * total energy  :   -80.1868438 Eh     change       -0.3906281E-03 Eh
 * total energy  :   -80.1871709 Eh     change       -0.3270917E-03 Eh
 * total energy  :   -80.1873550 Eh     change       -0.1840601E-03 Eh
 * total energy  :   -80.1875538 Eh     change       -0.1987910E-03 Eh
 * total energy  :   -80.1877260 Eh     change       -0.1722386E-03 Eh
 * total energy  :   -80.1878578 Eh     change       -0.1317465E-03 Eh
 * total energy  :   -80.1879350 Eh     change       -0.7724072E-04 Eh
 * total energy  :   -80.1885022 Eh     change       -0.2160185E-04 Eh
 * total energy  :   -80.1885233 Eh     change       -0.2112213E-04 Eh
 * total energy  :   -80.1885431 Eh     change       -0.1973057E-04 Eh
 * total energy  :   -80.1885573 Eh     change       -0.1427116E-04 Eh
 * total energy  :   -80.1885672 Eh     change       -0.9912766E-05 Eh
 * total energy  :   -80.1885751 Eh     change       -0.7867577E-05 Eh
 * total energy  :   -80.1885830 Eh     change       -0.7889105E-05 Eh
 * total energy  :   -80.1885898 Eh     change       -0.6789962E-05 Eh
 * total energy  :   -80.1885941 Eh     change       -0.4276949E-05 Eh
   *** GEOMETRY OPTIMIZATION CONVERGED AFTER 37 ITERATIONS ***

 final structure:
================
47
 xtb: 6.5.1 (579679a)
C           -4.57548639254818        1.26882385856453       -0.88060466222746
N           -3.17852149561241        1.06219426261063       -0.50868533112156
C           -2.74536854251951        0.06020083921461        0.33174383056760
C           -3.71096836555051       -0.93440126893272        0.96992966747313
C           -4.32948683708929       -0.29236823427660        2.22085412964958
C           -2.93338975628737       -2.19705456106230        1.38075567970051
N           -4.77860022440045       -1.30040187763809        0.04224862491995
N           -1.50552466271626       -0.06133879980678        0.67051063859589
C           -0.52316743511548        0.77374347123331        0.19321711180703
C            0.82686104801586        0.47397536913257        0.72649397945671
O            1.01235853471386       -0.44118752918909        1.54063281208903
N            1.82947215434857        1.30146307027173        0.33123099601989
C            3.21412087673452        0.97810032617430        0.57020809132086
C            3.90597669988553        0.25225095427074       -0.66681950866706
C            3.94137815537058        1.27049709270601       -1.83166542416072
C            5.30666641587175       -0.10420204956335       -0.23946521735086
C            5.71421386954449       -1.39496347485038       -0.04103314079212
C            4.84952145816285       -2.45326343449622       -0.31619049381287
F            5.29027970462200       -3.74540892592493       -0.12895064709637
C            3.58127067558508       -2.24136356681899       -0.86252043029118
C            3.12659829378855       -0.97123281862651       -1.07117782430274
C           -0.89392280817346        1.75842920051645       -0.70151814684610
O           -0.01906821055001        2.63378993171153       -1.27970892839748
C           -2.25974292929908        1.93809714703200       -1.08811209808493
O           -2.61327740632739        2.82709783050481       -1.87913413394373
H           -4.87057884423445        0.55467978572451       -1.64923108930199
H           -4.67680694328527        2.28227261243750       -1.27061968779132
H           -5.22173019915769        1.14717470315514       -0.01624562677749
H           -4.93832059242671        0.57070918640239        1.95717796465252
H           -3.54172736148871        0.02878488812344        2.90224217689626
H           -4.96205890183413       -1.01705367401104        2.73144093085473
H           -3.62339010208328       -2.92289689186207        1.80722508912791
H           -2.17010641088046       -1.95193201640515        2.11930835217316
H           -2.45061100936284       -2.63878199686519        0.50955622380270
H           -5.50797603544603       -1.78114821603538        0.54798067435547
H           -4.42295898755637       -1.93934397467373       -0.65729649111939
H            1.64739445286178        2.00603337881570       -0.36419783428195
H            3.27898386481057        0.31820288470207        1.44127101579634
H            3.76691933270674        1.89849230111012        0.78147045547583
H            4.43484754087394        0.81785888761794       -2.69181307389658
H            4.49363111387156        2.16618153136682       -1.54609264095591
H            2.93146504537785        1.55881108013257       -2.12538996456289
H            5.98641261712836        0.72060439418152       -0.05287466318901
H            6.72208294467368       -1.60626819861296        0.30262110647527
H            2.97628128726725       -3.09788048055513       -1.14539597790361
H            2.15736908969852       -0.80346533392019       -1.53072394347311
H           -0.54131772196914        3.22749033641265       -1.85001457085645

          :  Hamiltonian                  GFN1-xTB          :
         :: total energy             -80.188594065517 Eh    ::
         :: gradient norm              0.000324346555 Eh/a0 ::
         :: HOMO-LUMO gap              0.281278017135 eV    ::
         :: SCC energy               -81.043900005174 Eh    ::
         :: -> Gsolv                  -0.107535091023 Eh    ::
         :: repulsion energy           0.886282463197 Eh    ::

    * Orbital Energies and Occupations

         #    Occupation            Energy/Eh            Energy/eV
      -------------------------------------------------------------
         1        2.0000           -0.8011443             -21.8002
       ...           ...                  ...                  ...
        56        2.0000           -0.4575407             -12.4503
        57        2.0000           -0.4425976             -12.0437
        58        2.0000           -0.4408141             -11.9952
        59        2.0000           -0.4382390             -11.9251
        60        2.0000           -0.4309163             -11.7258
        61        2.0000           -0.4210775             -11.4581
        62        2.0000           -0.4171582             -11.3515
        63        2.0000           -0.4091845             -11.1345
        64        2.0000           -0.4040117             -10.9937
        65        2.0000           -0.4013509             -10.9213
        66        2.0000           -0.3946727             -10.7396
        67        2.0000           -0.3942473             -10.7280
        68        1.9914           -0.2982047              -8.1146 (HOMO)
        69        0.0086           -0.2878680              -7.8333 (LUMO)
        70                         -0.2495434              -6.7904
        71                         -0.2093777              -5.6975
        72                         -0.1987522              -5.4083
        73                         -0.1288368              -3.5058
        74                         -0.1252371              -3.4079
        75                         -0.1195010              -3.2518
        76                         -0.1158290              -3.1519
        77                         -0.1100421              -2.9944
        78                         -0.0995708              -2.7095
        79                         -0.0928090              -2.5255
       ...                                ...                  ...
       144                          0.7060145              19.2116
      -------------------------------------------------------------
                  HL-Gap            0.0103368 Eh            0.2813 eV

Wiberg/Mayer (AO) data.
largest (>0.10) Wiberg bond orders for each atom

     #   Z sym  total        # sym  WBO       # sym  WBO       # sym  WBO
 ---------------------------------------------------------------------------
     1   6 C    3.935 --    28 H    0.980    26 H    0.978    27 H    0.976
                             2 N    0.938
     2   7 N    3.427 --     3 C    1.151    24 C    1.089     1 C    0.938
                            25 O    0.113
     3   6 C    3.907 --     8 N    1.587     2 N    1.151     4 C    0.975
     4   6 C    3.966 --     6 C    0.989     5 C    0.984     7 N    0.982
                             3 C    0.975
     5   6 C    3.994 --    30 H    0.986     4 C    0.984    31 H    0.984
                            29 H    0.980
     6   6 C    3.995 --     4 C    0.989    32 H    0.987    34 H    0.985
                            33 H    0.982
     7   7 N    2.977 --     4 C    0.982    36 H    0.943    35 H    0.942
     8   7 N    3.026 --     3 C    1.587     9 C    1.175
     9   6 C    3.900 --    22 C    1.417     8 N    1.175    10 C    1.043
    10   6 C    3.917 --    11 O    1.506    12 N    1.220     9 C    1.043
    11   8 O    1.816 --    10 C    1.506    12 N    0.153
    12   7 N    3.346 --    10 C    1.220    13 C    0.970    37 H    0.899
                            11 O    0.153
    13   6 C    3.928 --    39 H    0.978    38 H    0.977    12 N    0.970
                            14 C    0.896
    14   6 C    3.983 --    21 C    1.025    16 C    1.022    15 C    0.977
                            13 C    0.896
    15   6 C    3.989 --    40 H    0.987    41 H    0.986    42 H    0.983
                            14 C    0.977
    16   6 C    3.855 --    17 C    1.584    14 C    1.022    43 H    0.976
    17   6 C    3.993 --    16 C    1.584    18 C    1.321    44 H    0.971
    18   6 C    3.684 --    17 C    1.321    20 C    1.306    19 F    0.858
    19   9 F    0.948 --    18 C    0.858
    20   6 C    3.994 --    21 C    1.604    18 C    1.306    45 H    0.971
    21   6 C    3.918 --    20 C    1.604    14 C    1.025    46 H    0.975
    22   6 C    3.853 --     9 C    1.417    24 C    1.161    23 O    1.034
    23   8 O    2.024 --    22 C    1.034    47 H    0.814
    24   6 C    3.870 --    25 O    1.483    22 C    1.161     2 N    1.089
    25   8 O    1.816 --    24 C    1.483     2 N    0.113
    26   1 H    1.019 --     1 C    0.978
    27   1 H    1.013 --     1 C    0.976
    28   1 H    1.023 --     1 C    0.980
    29   1 H    1.006 --     5 C    0.980
    30   1 H    1.005 --     5 C    0.986
    31   1 H    1.001 --     5 C    0.984
    32   1 H    1.005 --     6 C    0.987
    33   1 H    1.018 --     6 C    0.982
    34   1 H    1.009 --     6 C    0.985
    35   1 H    0.957 --     7 N    0.942
    36   1 H    0.959 --     7 N    0.943
    37   1 H    0.961 --    12 N    0.899
    38   1 H    1.030 --    13 C    0.977
    39   1 H    1.013 --    13 C    0.978
    40   1 H    1.019 --    15 C    0.987
    41   1 H    1.007 --    15 C    0.986
    42   1 H    1.008 --    15 C    0.983
    43   1 H    1.002 --    16 C    0.976
    44   1 H    1.006 --    17 C    0.971
    45   1 H    1.006 --    20 C    0.971
    46   1 H    1.005 --    21 C    0.975
    47   1 H    0.862 --    23 O    0.814
 ---------------------------------------------------------------------------

           -------------------------------------------------
          | TOTAL ENERGY              -80.188594065517 Eh   |
          | GRADIENT NORM               0.000324346555 Eh/α |
          | HOMO-LUMO GAP               0.281278017135 eV   |
           -------------------------------------------------

 * finished run on 2023/06/20 at 15:03:08.880
