   * xtb version 6.5.1 (579679a) compiled by 'ehlert@majestix' on 2022-07-11
          program call               : /lustre/hpc/kemi/ree/PhD/git/ReactivityQM/dep/xtb-6.5.1/bin/xtb --gfn 1 /lustre/hpc/kemi/ree/PhD/git/ReactivityQM/calculations/RaltegravirCLI/reac01prodE03/conf05/RaltegravirCLI_reac01prodE03_conf05_gfn1.xyz --opt --vfukui --chrg -1 --uhf 0 --alpb DMSO

   ID    Z sym.   atoms
    1    6 C      1, 2, 4, 5, 10
    2    8 O      3, 6
    3   17 Cl     7
    4    7 N      8, 9
    5    1 H      11-16

      * Solvation model:               ALPB
        Solvent                        DMSO
        Solvent mass                       7.8130E+01 g/mol
          :  Hamiltonian                  GFN1-xTB          :
 * total energy  :   -34.0918220 Eh     change       -0.8948575E-10 Eh
 * total energy  :   -34.1026999 Eh     change       -0.1087795E-01 Eh
 * total energy  :   -34.1085009 Eh     change       -0.5801021E-02 Eh
 * total energy  :   -34.1095230 Eh     change       -0.1022081E-02 Eh
 * total energy  :   -34.1107954 Eh     change       -0.1272395E-02 Eh
 * total energy  :   -34.1111300 Eh     change       -0.3346104E-03 Eh
 * total energy  :   -34.1113345 Eh     change       -0.2044905E-03 Eh
 * total energy  :   -34.1113722 Eh     change       -0.3765301E-04 Eh
 * total energy  :   -34.1113786 Eh     change       -0.6466648E-05 Eh
 * total energy  :   -34.1113805 Eh     change       -0.1916859E-05 Eh
   *** GEOMETRY OPTIMIZATION CONVERGED AFTER 10 ITERATIONS ***

 final structure:
================
16
 xtb: 6.5.1 (579679a)
C           -2.00513546344187       -0.94000755962314       -0.04064293103402
C           -0.58125053298994       -0.53254648856289        0.05470327952156
O            0.41389173030687       -1.43751543865868        0.25711746315720
C            1.61343264677843       -0.62012972019152        0.28444206940510
C            2.80020494218140       -1.20456742025366        0.45097859979658
O            3.29491414888066       -2.32027019738231        0.62568703031589
Cl           4.17910716036955        0.28681810659344        0.41108580654158
N            1.24825306027197        0.73455089134671        0.09759875038188
N           -0.07733585077550        0.67244564348878       -0.02553748062258
C           -0.81062859573905        1.89607295530254       -0.24087096881966
H           -2.46214060720625       -0.54477179935224       -0.94861769554645
H           -2.06454133736839       -2.02627072200158       -0.05634928279807
H           -2.58008620548162       -0.56919082779088        0.81039377446517
H           -1.64109736520424        1.95497688519766        0.46027308034894
H           -0.12970671100775        2.72992967925052       -0.08512605997828
H           -1.19788201957424        1.92047401263725       -1.25919443513486

          :  Hamiltonian                  GFN1-xTB          :
         :: total energy             -34.111380544419 Eh    ::
         :: gradient norm              0.000457656009 Eh/a0 ::
         :: HOMO-LUMO gap              1.337329477402 eV    ::
         :: SCC energy               -34.385563094397 Eh    ::
         :: -> Gsolv                  -0.116182898675 Eh    ::
         :: repulsion energy           0.281459933153 Eh    ::

    * Orbital Energies and Occupations

         #    Occupation            Energy/Eh            Energy/eV
      -------------------------------------------------------------
         1        2.0000           -0.8280983             -22.5337
       ...           ...                  ...                  ...
        16        2.0000           -0.5289240             -14.3928
        17        2.0000           -0.5229023             -14.2289
        18        2.0000           -0.5151160             -14.0170
        19        2.0000           -0.5099105             -13.8754
        20        2.0000           -0.5032308             -13.6936
        21        2.0000           -0.4873330             -13.2610
        22        2.0000           -0.4693733             -12.7723
        23        2.0000           -0.4393707             -11.9559
        24        2.0000           -0.4385408             -11.9333
        25        2.0000           -0.4193082             -11.4100
        26        2.0000           -0.4109937             -11.1837
        27        2.0000           -0.3959171             -10.7735
        28        2.0000           -0.2868252              -7.8049 (HOMO)
        29                         -0.2376793              -6.4676 (LUMO)
        30                         -0.1944829              -5.2921
        31                         -0.1451237              -3.9490
        32                         -0.1301307              -3.5410
        33                         -0.1264533              -3.4410
        34                         -0.0872392              -2.3739
        35                         -0.0746319              -2.0308
        36                         -0.0585055              -1.5920
        37                         -0.0543167              -1.4780
        38                          0.0288496               0.7850
        39                          0.0359030               0.9770
       ...                                ...                  ...
        57                          0.8556725              23.2840
      -------------------------------------------------------------
                  HL-Gap            0.0491460 Eh            1.3373 eV

Wiberg/Mayer (AO) data.
largest (>0.10) Wiberg bond orders for each atom

     #   Z sym  total        # sym  WBO       # sym  WBO       # sym  WBO
 ---------------------------------------------------------------------------
     1   6 C    3.991 --     2 C    1.025    12 H    0.982    11 H    0.973
                            13 H    0.968
     2   6 C    3.876 --     9 N    1.415     3 O    1.044     1 C    1.025
                             8 N    0.295
     3   8 O    2.132 --     2 C    1.044     4 C    0.853
     4   6 C    3.769 --     5 C    1.610     8 N    1.072     3 O    0.853
                             6 O    0.171
     5   6 C    3.842 --     4 C    1.610     6 O    1.552     7 Cl   0.505
     6   8 O    1.898 --     5 C    1.552     4 C    0.171     7 Cl   0.116
     7  17 Cl   0.659 --     5 C    0.505     6 O    0.116
     8   7 N    2.740 --     9 N    1.159     4 C    1.072     2 C    0.295
     9   7 N    3.644 --     2 C    1.415     8 N    1.159    10 C    0.948
    10   6 C    3.949 --    15 H    0.984    14 H    0.982    16 H    0.979
                             9 N    0.948
    11   1 H    1.002 --     1 C    0.973
    12   1 H    1.001 --     1 C    0.982
    13   1 H    1.002 --     1 C    0.968
    14   1 H    1.001 --    10 C    0.982
    15   1 H    1.011 --    10 C    0.984
    16   1 H    1.002 --    10 C    0.979
 ---------------------------------------------------------------------------

           -------------------------------------------------
          | TOTAL ENERGY              -34.111380544419 Eh   |
          | GRADIENT NORM               0.000457656009 Eh/α |
          | HOMO-LUMO GAP               1.337329477402 eV   |
           -------------------------------------------------

 * finished run on 2023/06/20 at 14:52:59.757
