   * xtb version 6.5.1 (579679a) compiled by 'ehlert@majestix' on 2022-07-11
          program call               : /lustre/hpc/kemi/ree/PhD/git/ReactivityQM/dep/xtb-6.5.1/bin/xtb --gfn 1 /lustre/hpc/kemi/ree/PhD/git/ReactivityQM/calculations/R01/reac02prodN08/conf14/R01_reac02prodN08_conf14_gfn1.xyz --opt --vfukui --chrg 1 --uhf 0 --alpb DMSO

   ID    Z sym.   atoms
    1    6 C      1, 3, 5, 6, 8, 9, 12-15
    2    8 O      2, 4, 7, 10
    3    7 N      11, 16, 17
    4    1 H      18-33

      * Solvation model:               ALPB
        Solvent                        DMSO
        Solvent mass                       7.8130E+01 g/mol
          :  Hamiltonian                  GFN1-xTB          :
 * total energy  :   -57.7185224 Eh     change        0.1114842E-10 Eh
 * total energy  :   -57.7363026 Eh     change       -0.1778019E-01 Eh
 * total energy  :   -57.7475648 Eh     change       -0.1126222E-01 Eh
 * total energy  :   -57.7506750 Eh     change       -0.3110219E-02 Eh
 * total energy  :   -57.7541527 Eh     change       -0.3477702E-02 Eh
 * total energy  :   -57.7562771 Eh     change       -0.2124432E-02 Eh
 * total energy  :   -57.7586511 Eh     change       -0.2373912E-02 Eh
 * total energy  :   -57.7607799 Eh     change       -0.2128837E-02 Eh
 * total energy  :   -57.7624676 Eh     change       -0.1687689E-02 Eh
 * total energy  :   -57.7638013 Eh     change       -0.1333693E-02 Eh
 * total energy  :   -57.8182620 Eh     change       -0.7447806E-04 Eh
 * total energy  :   -57.8183040 Eh     change       -0.4196789E-04 Eh
 * total energy  :   -57.8183196 Eh     change       -0.1556889E-04 Eh
 * total energy  :   -57.8183277 Eh     change       -0.8151621E-05 Eh
 * total energy  :   -57.8183351 Eh     change       -0.7391081E-05 Eh
 * total energy  :   -57.8183431 Eh     change       -0.8005767E-05 Eh
 * total energy  :   -57.8183448 Eh     change       -0.1630486E-05 Eh
 * total energy  :   -57.8183499 Eh     change       -0.5134241E-05 Eh
 * total energy  :   -57.8183528 Eh     change       -0.2909011E-05 Eh
   *** GEOMETRY OPTIMIZATION CONVERGED AFTER 65 ITERATIONS ***

 final structure:
================
33
 xtb: 6.5.1 (579679a)
C            3.72120778165486       -2.11698491808686        1.03374134382113
O            2.52673910638173       -1.48439118519986        0.53881442748230
C            2.51044123008050       -0.17801107077744        0.51280832147283
O            3.40724210150327        0.54983049920398        0.86166040743155
C            1.19998460001808        0.37896437304390       -0.01132417062312
C            1.15047043451966        1.84435239130022       -0.34122549540128
O            2.29002692743262        2.34731202047030       -0.94223606840382
C           -0.06412922388022        2.20839275063358       -1.17529257649645
C            0.88939676482316        2.54366655369232        1.03669951722750
O           -0.21398859626848        3.18024106458825       -1.84557743259882
N           -1.13146275042900        1.28538864223742       -0.99599282842758
C           -1.01676605338599        0.08032007103707       -0.48569300843244
C           -2.22043190511838       -0.79860368811713       -0.44910594038512
C           -2.66079274831065       -0.87332360334364        1.02577183093493
C           -1.85745500715917       -2.20298012308519       -0.96348680115793
N           -3.25554957040220       -0.16848346874298       -1.24606689057620
N            0.16306303972369       -0.39023900756357       -0.00425080518687
H            4.58616845957113       -1.75338183470317        0.47635593476828
H            3.84112437078441       -1.88298653392806        2.09272477021019
H            3.58252286861889       -3.18527778738731        0.88659206997854
H            3.08109346333947        2.16667013570024       -0.40634319092549
H            0.82408138468898        3.61495789093074        0.85281413050869
H           -0.03112888812824        2.18247248986764        1.48625846358588
H            1.73149405742701        2.33495983995029        1.69294339207860
H           -2.04750451972118        1.50544509849171       -1.39725452187681
H           -3.50227698067986       -1.55911502537376        1.10219700025376
H           -2.96618015799238        0.11190180700568        1.37265411787864
H           -1.84201555174306       -1.23803814091329        1.64391506126281
H           -1.53233379813401       -2.14853313022925       -2.00066229880719
H           -2.73784947489292       -2.83829541937743       -0.89682473447872
H           -1.05720246136236       -2.62471774552165       -0.35757967404772
H           -4.16980914291254       -0.40981139520595       -0.89179728964120
H           -3.19818076004803       -0.48169955059643       -2.20523606142788

          :  Hamiltonian                  GFN1-xTB          :
         :: total energy             -57.818352796667 Eh    ::
         :: gradient norm              0.000493532918 Eh/a0 ::
         :: HOMO-LUMO gap              0.695856195873 eV    ::
         :: SCC energy               -58.390158552398 Eh    ::
         :: -> Gsolv                  -0.098351160203 Eh    ::
         :: repulsion energy           0.590995885797 Eh    ::

    * Orbital Energies and Occupations

         #    Occupation            Energy/Eh            Energy/eV
      -------------------------------------------------------------
         1        2.0000           -0.8939001             -24.3243
       ...           ...                  ...                  ...
        35        2.0000           -0.5497664             -14.9599
        36        2.0000           -0.5461645             -14.8619
        37        2.0000           -0.5445713             -14.8185
        38        2.0000           -0.5396092             -14.6835
        39        2.0000           -0.5375309             -14.6270
        40        2.0000           -0.5349942             -14.5579
        41        2.0000           -0.5332696             -14.5110
        42        2.0000           -0.5279091             -14.3651
        43        2.0000           -0.5242631             -14.2659
        44        2.0000           -0.5173451             -14.0777
        45        2.0000           -0.5052110             -13.7475
        46        2.0000           -0.4909388             -13.3591
        47        2.0000           -0.4515665             -12.2878 (HOMO)
        48        0.0000           -0.4259943             -11.5919 (LUMO)
        49                         -0.3515983              -9.5675
        50                         -0.3048911              -8.2965
        51                         -0.2648755              -7.2076
        52                         -0.1547037              -4.2097
        53                         -0.1531560              -4.1676
        54                         -0.1473955              -4.0108
        55                         -0.1443954              -3.9292
        56                         -0.1345309              -3.6608
        57                         -0.1179589              -3.2098
        58                         -0.1091047              -2.9689
       ...                                ...                  ...
       100                          0.7085543              19.2807
      -------------------------------------------------------------
                  HL-Gap            0.0255722 Eh            0.6959 eV

Wiberg/Mayer (AO) data.
largest (>0.10) Wiberg bond orders for each atom

     #   Z sym  total        # sym  WBO       # sym  WBO       # sym  WBO
 ---------------------------------------------------------------------------
     1   6 C    3.837 --    20 H    0.984    18 H    0.975    19 H    0.974
                             2 O    0.867
     2   8 O    2.256 --     3 C    1.187     1 C    0.867     4 O    0.156
     3   6 C    3.864 --     4 O    1.663     2 O    1.187     5 C    0.944
     4   8 O    1.976 --     3 C    1.663     2 O    0.156
     5   6 C    3.909 --    17 N    1.644     6 C    0.997     3 C    0.944
     6   6 C    3.942 --     7 O    1.006     5 C    0.997     8 C    0.947
                             9 C    0.862
     7   8 O    1.923 --     6 C    1.006    21 H    0.812
     8   6 C    3.857 --    10 O    1.797    11 N    0.991     6 C    0.947
     9   6 C    3.962 --    23 H    0.985    24 H    0.975    22 H    0.970
                             6 C    0.862
    10   8 O    2.040 --     8 C    1.797
    11   7 N    3.529 --    12 C    1.430     8 C    0.991    25 H    0.831
    12   6 C    3.866 --    11 N    1.430    17 N    1.192    13 C    1.018
    13   6 C    3.956 --    12 C    1.018    16 N    1.000    15 C    0.949
                            14 C    0.935
    14   6 C    3.978 --    27 H    0.984    28 H    0.983    26 H    0.973
                            13 C    0.935
    15   6 C    3.980 --    29 H    0.983    31 H    0.982    30 H    0.979
                            13 C    0.949
    16   7 N    2.995 --    13 C    1.000    33 H    0.926    32 H    0.923
    17   7 N    3.051 --     5 C    1.644    12 C    1.192
    18   1 H    1.000 --     1 C    0.975
    19   1 H    0.999 --     1 C    0.974
    20   1 H    1.005 --     1 C    0.984
    21   1 H    0.850 --     7 O    0.812
    22   1 H    0.993 --     9 C    0.970
    23   1 H    0.994 --     9 C    0.985
    24   1 H    0.998 --     9 C    0.975
    25   1 H    0.924 --    11 N    0.831
    26   1 H    0.994 --    14 C    0.973
    27   1 H    0.996 --    14 C    0.984
    28   1 H    0.999 --    14 C    0.983
    29   1 H    0.997 --    15 C    0.983
    30   1 H    0.997 --    15 C    0.979
    31   1 H    1.003 --    15 C    0.982
    32   1 H    0.937 --    16 N    0.923
    33   1 H    0.940 --    16 N    0.926
 ---------------------------------------------------------------------------

           -------------------------------------------------
          | TOTAL ENERGY              -57.818352796667 Eh   |
          | GRADIENT NORM               0.000493532918 Eh/α |
          | HOMO-LUMO GAP               0.695856195873 eV   |
           -------------------------------------------------

 * finished run on 2023/06/20 at 15:08:44.451
