   * xtb version 6.5.1 (579679a) compiled by 'ehlert@majestix' on 2022-07-11
          program call               : /lustre/hpc/kemi/ree/PhD/git/ReactivityQM/dep/xtb-6.5.1/bin/xtb --gfn 1 /lustre/hpc/kemi/ree/PhD/git/ReactivityQM/calculations/R02/reac01prodN07/conf03/R02_reac01prodN07_conf03_gfn1.xyz --opt --vfukui --chrg 1 --uhf 0 --alpb DMSO

   ID    Z sym.   atoms
    1    6 C      1, 3, 5, 7-10, 12, 14, 17-19, 22, 24
    2    8 O      2, 4, 13, 20, 23, 25
    3    7 N      6, 11, 15, 16, 21
    4    1 H      26-43

      * Solvation model:               ALPB
        Solvent                        DMSO
        Solvent mass                       7.8130E+01 g/mol
          :  Hamiltonian                  GFN1-xTB          :
 * total energy  :   -83.1579717 Eh     change       -0.1460876E-10 Eh
 * total energy  :   -83.1756493 Eh     change       -0.1767754E-01 Eh
 * total energy  :   -83.1814703 Eh     change       -0.5820991E-02 Eh
 * total energy  :   -83.1827531 Eh     change       -0.1282838E-02 Eh
 * total energy  :   -83.1836725 Eh     change       -0.9194327E-03 Eh
 * total energy  :   -83.1841671 Eh     change       -0.4945811E-03 Eh
 * total energy  :   -83.1846909 Eh     change       -0.5237657E-03 Eh
 * total energy  :   -83.1851631 Eh     change       -0.4721939E-03 Eh
 * total energy  :   -83.1855121 Eh     change       -0.3490123E-03 Eh
 * total energy  :   -83.1857722 Eh     change       -0.2601042E-03 Eh
 * total energy  :   -83.1900444 Eh     change       -0.3147372E-04 Eh
 * total energy  :   -83.1900659 Eh     change       -0.2157682E-04 Eh
 * total energy  :   -83.1900849 Eh     change       -0.1895613E-04 Eh
 * total energy  :   -83.1900975 Eh     change       -0.1262373E-04 Eh
 * total energy  :   -83.1901047 Eh     change       -0.7210331E-05 Eh
 * total energy  :   -83.1901141 Eh     change       -0.9368004E-05 Eh
 * total energy  :   -83.1901109 Eh     change        0.3164932E-05 Eh
 * total energy  :   -83.1901174 Eh     change       -0.6473837E-05 Eh
 * total energy  :   -83.1901202 Eh     change       -0.2780859E-05 Eh
   *** GEOMETRY OPTIMIZATION CONVERGED AFTER 50 ITERATIONS ***

 final structure:
================
43
 xtb: 6.5.1 (579679a)
C           -6.03926706695254        1.75354252992445       -1.76547543449598
O           -4.84055632090725        1.18748936680656       -1.22196739579638
C           -4.70434101226690        1.23527852379443        0.09418862380339
O           -5.53360148493418        1.73663580741646        0.83374599358201
C           -3.45383158270964        0.61747124158165        0.59365252817476
N           -2.58704131299964        0.10778339930713       -0.34241488577346
C           -1.49956830925062       -0.44888147356738        0.06205073617169
C           -0.55228681707123       -1.06755023773712       -0.94191222053772
C           -0.80147970251401       -2.57770813049767       -0.99829899574539
C           -0.73552096032976       -0.42163517601594       -2.31722824806722
N            0.83085985862029       -0.86912116213020       -0.48145642729025
C            1.31114879954723        0.34661535613283       -0.18318336047513
O            0.68061874202741        1.38155159885520       -0.14667752627802
C            2.77655559568578        0.31669918604845        0.15185439867314
N            3.53399906111514        1.31977440428476        0.47096909801737
N            4.75392032252962        0.78383843397081        0.66787800283734
C            5.85999976803990        1.63860639482711        1.04797251552918
C            4.71411392221610       -0.51652762297642        0.47060237542618
C            5.79072386484997       -1.51505957592997        0.57052867145160
O            3.47704950289159       -0.83529143436102        0.14240449128913
N           -1.18623593323197       -0.57259570558763        1.38325841316193
C           -1.95730884649834       -0.07683456709259        2.41944067029380
O           -1.60242231135169       -0.19483174112283        3.57785114874323
C           -3.19052291929174        0.56176956177224        1.94150860822749
O           -3.99763400215006        1.05335792052684        2.88009480694235
H           -5.99364475854553        1.59945639867706       -2.84142343577164
H           -6.08689672860010        2.82000024857346       -1.53400672814797
H           -6.91269152764278        1.25093155103034       -1.34403692004184
H           -1.82390290673244       -2.76879649543878       -1.32127064446531
H           -0.11424323519695       -3.03955455237087       -1.70424642418685
H           -0.64991617598533       -3.01912777689081       -0.01514054826637
H           -1.76019562516949       -0.57892271551257       -2.65076649222400
H           -0.54435893106613        0.64884576146732       -2.25800078672438
H           -0.04946736563005       -0.87235575446542       -3.03049474751131
H            1.46235085973318       -1.64771470791659       -0.54254076624546
H            5.85635214772084        2.51142707323119        0.39753411345603
H            5.72475311000371        1.94516977664112        2.08487329916221
H            6.78374614684236        1.07878433055049        0.93645153231499
H            6.58501234300092       -1.27976935471710       -0.13970715097782
H            5.38668429507941       -2.50188456562915        0.35395094090573
H            6.22080519760943       -1.50364188630481        1.57307753214847
H           -0.33017754048873       -1.03682863510856        1.64053569810920
H           -4.80157916001017        1.44960340596721        2.46706794059265

          :  Hamiltonian                  GFN1-xTB          :
         :: total energy             -83.190120183767 Eh    ::
         :: gradient norm              0.000307278418 Eh/a0 ::
         :: HOMO-LUMO gap              1.993800037692 eV    ::
         :: SCC energy               -83.998163892041 Eh    ::
         :: -> Gsolv                  -0.134916182785 Eh    ::
         :: repulsion energy           0.833940892044 Eh    ::

    * Orbital Energies and Occupations

         #    Occupation            Energy/Eh            Energy/eV
      -------------------------------------------------------------
         1        2.0000           -0.9411802             -25.6108
       ...           ...                  ...                  ...
        55        2.0000           -0.5305446             -14.4369
        56        2.0000           -0.5232862             -14.2393
        57        2.0000           -0.5211494             -14.1812
        58        2.0000           -0.5193310             -14.1317
        59        2.0000           -0.5137966             -13.9811
        60        2.0000           -0.5043616             -13.7244
        61        2.0000           -0.4988761             -13.5751
        62        2.0000           -0.4956795             -13.4881
        63        2.0000           -0.4926011             -13.4044
        64        2.0000           -0.4839151             -13.1680
        65        2.0000           -0.4657589             -12.6739
        66        2.0000           -0.4534399             -12.3387
        67        2.0000           -0.4362537             -11.8711 (HOMO)
        68                         -0.3629829              -9.8773 (LUMO)
        69                         -0.3462435              -9.4218
        70                         -0.3314353              -9.0188
        71                         -0.2905382              -7.9059
        72                         -0.2478972              -6.7456
        73                         -0.2459272              -6.6920
        74                         -0.1856281              -5.0512
        75                         -0.1736904              -4.7264
        76                         -0.1655072              -4.5037
        77                         -0.1437993              -3.9130
        78                         -0.1408303              -3.8322
       ...                                ...                  ...
       136                          0.7180098              19.5380
      -------------------------------------------------------------
                  HL-Gap            0.0732708 Eh            1.9938 eV

Wiberg/Mayer (AO) data.
largest (>0.10) Wiberg bond orders for each atom

     #   Z sym  total        # sym  WBO       # sym  WBO       # sym  WBO
 ---------------------------------------------------------------------------
     1   6 C    3.865 --    26 H    0.986    28 H    0.979    27 H    0.979
                             2 O    0.890
     2   8 O    2.218 --     3 C    1.138     1 C    0.890     4 O    0.130
     3   6 C    3.849 --     4 O    1.606     2 O    1.138     5 C    1.019
     4   8 O    1.945 --     3 C    1.606     2 O    0.130
     5   6 C    3.963 --    24 C    1.488     6 N    1.172     3 C    1.019
     6   7 N    3.027 --     7 C    1.596     5 C    1.172
     7   6 C    3.934 --     6 N    1.596    21 N    1.168     8 C    0.977
     8   6 C    3.922 --    10 C    0.988     9 C    0.983     7 C    0.977
                            11 N    0.910
     9   6 C    3.986 --    31 H    0.984     8 C    0.983    29 H    0.982
                            30 H    0.981
    10   6 C    3.986 --     8 C    0.988    34 H    0.985    33 H    0.982
                            32 H    0.981
    11   7 N    3.375 --    12 C    1.286     8 C    0.910    35 H    0.886
                            13 O    0.197
    12   6 C    3.925 --    13 O    1.610    11 N    1.286    14 C    0.957
    13   8 O    1.925 --    12 C    1.610    11 N    0.197
    14   6 C    3.842 --    15 N    1.622    20 O    1.053    12 C    0.957
    15   7 N    2.984 --    14 C    1.622    16 N    1.149
    16   7 N    3.631 --    18 C    1.427    15 N    1.149    17 C    0.910
    17   6 C    3.884 --    38 H    0.981    36 H    0.970    37 H    0.964
                            16 N    0.910
    18   6 C    3.838 --    16 N    1.427    20 O    1.144    19 C    1.041
    19   6 C    3.959 --    18 C    1.041    40 H    0.972    41 H    0.946
                            39 H    0.943
    20   8 O    2.374 --    18 C    1.144    14 C    1.053
    21   7 N    3.460 --     7 C    1.168    22 C    1.118    42 H    0.885
                            23 O    0.135
    22   6 C    3.907 --    23 O    1.606    21 N    1.118    24 C    1.053
    23   8 O    1.904 --    22 C    1.606    21 N    0.135
    24   6 C    3.922 --     5 C    1.488    25 O    1.131    22 C    1.053
    25   8 O    2.097 --    24 C    1.131    43 H    0.773
    26   1 H    1.010 --     1 C    0.986
    27   1 H    1.006 --     1 C    0.979
    28   1 H    1.006 --     1 C    0.979
    29   1 H    0.998 --     9 C    0.982
    30   1 H    0.995 --     9 C    0.981
    31   1 H    0.997 --     9 C    0.984
    32   1 H    1.008 --    10 C    0.981
    33   1 H    1.006 --    10 C    0.982
    34   1 H    0.999 --    10 C    0.985
    35   1 H    0.923 --    11 N    0.886
    36   1 H    0.991 --    17 C    0.970
    37   1 H    0.989 --    17 C    0.964
    38   1 H    0.989 --    17 C    0.981
    39   1 H    0.985 --    19 C    0.943
    40   1 H    0.985 --    19 C    0.972
    41   1 H    0.985 --    19 C    0.946
    42   1 H    0.931 --    21 N    0.885
    43   1 H    0.850 --    25 O    0.773
 ---------------------------------------------------------------------------

           -------------------------------------------------
          | TOTAL ENERGY              -83.190120183767 Eh   |
          | GRADIENT NORM               0.000307278418 Eh/α |
          | HOMO-LUMO GAP               1.993800037692 eV   |
           -------------------------------------------------

 * finished run on 2023/06/20 at 15:26:58.982
