   * xtb version 6.5.1 (579679a) compiled by 'ehlert@majestix' on 2022-07-11
          program call               : /lustre/hpc/kemi/ree/PhD/git/ReactivityQM/dep/xtb-6.5.1/bin/xtb --gfn 1 /lustre/hpc/kemi/ree/PhD/git/ReactivityQM/calculations/R02methylcation/reac01prodE02/conf04/R02methylcation_reac01prodE02_conf04_gfn1.xyz --opt --vfukui --chrg -2 --uhf 0 --alpb DMSO

   ID    Z sym.   atoms
    1    6 C      1, 3, 4, 6, 8-11, 13, 15, 18, 19, 22, 24
    2    8 O      2, 5, 14, 20, 23, 25
    3    7 N      7, 12, 16, 17, 21
    4    1 H      26-42

      * Solvation model:               ALPB
        Solvent                        DMSO
        Solvent mass                       7.8130E+01 g/mol
          :  Hamiltonian                  GFN1-xTB          :
 * total energy  :   -83.5957964 Eh     change       -0.7883045E-09 Eh
 * total energy  :   -83.6096283 Eh     change       -0.1383189E-01 Eh
 * total energy  :   -83.6152607 Eh     change       -0.5632405E-02 Eh
 * total energy  :   -83.6162878 Eh     change       -0.1027054E-02 Eh
 * total energy  :   -83.6169961 Eh     change       -0.7083073E-03 Eh
 * total energy  :   -83.6174437 Eh     change       -0.4476914E-03 Eh
 * total energy  :   -83.6178489 Eh     change       -0.4051151E-03 Eh
 * total energy  :   -83.6181696 Eh     change       -0.3207284E-03 Eh
 * total energy  :   -83.6184422 Eh     change       -0.2725599E-03 Eh
 * total energy  :   -83.6187279 Eh     change       -0.2857416E-03 Eh
 * total energy  :   -83.6207670 Eh     change       -0.1453074E-04 Eh
 * total energy  :   -83.6207805 Eh     change       -0.1345414E-04 Eh
 * total energy  :   -83.6207906 Eh     change       -0.1013485E-04 Eh
 * total energy  :   -83.6207979 Eh     change       -0.7262631E-05 Eh
 * total energy  :   -83.6208045 Eh     change       -0.6657376E-05 Eh
 * total energy  :   -83.6208117 Eh     change       -0.7137050E-05 Eh
 * total energy  :   -83.6208182 Eh     change       -0.6534920E-05 Eh
 * total energy  :   -83.6208236 Eh     change       -0.5379819E-05 Eh
 * total energy  :   -83.6208286 Eh     change       -0.4986482E-05 Eh
   *** GEOMETRY OPTIMIZATION CONVERGED AFTER 42 ITERATIONS ***

 final structure:
================
42
 xtb: 6.5.1 (579679a)
C           -2.47647455111458        3.57540682902210       -0.70695412619561
O           -2.78960212304522        2.21599228984867       -0.67862779002666
C           -2.17547765750267        1.44159794307984        0.53743624036134
C           -3.26999669191204        1.57234220794994        1.65940564939352
O           -1.02041394885957        1.90280636197117        0.88903242548604
C           -2.16279571711793       -0.03754756262435        0.00222475675097
N           -0.90365762921772       -0.54858098152577       -0.08440585444942
C           -0.68346245815163       -1.75262114071024       -0.49084098930968
C            0.73205288680393       -2.30011006550206       -0.51809836751757
C            0.87952766967792       -3.43579911950532        0.50667739726436
C            1.11412410107351       -2.78686322783703       -1.92333294094432
N            1.58651557620348       -1.17298394034166       -0.14394941730404
C            2.91034865350038       -1.23675185696605       -0.01362729329249
O            3.60226813791463       -2.23935773764457       -0.16783647102858
C            3.53559341466624        0.06962016411512        0.34669628397807
N            4.77503813540814        0.27740698139430        0.67665583684711
N            4.90232170771967        1.61787267292822        0.90244193621167
C            3.73353583857445        2.14249900206398        0.69175331951584
C            3.36217783995554        3.57173754055392        0.78429075660209
O            2.82798156099189        1.21779226185218        0.34094362864131
N           -1.72074172756467       -2.57282137078000       -0.87320903045736
C           -3.04005857304007       -2.17805182098271       -0.84019352683487
O           -3.90591325303641       -2.98482814120940       -1.22404523433867
C           -3.30262314983507       -0.79437039007797       -0.33507273323151
O           -4.50876454700902       -0.41172637474707       -0.24682979495896
H           -2.45292429966077        3.92096920359790       -1.75013701203249
H           -1.48591126387671        3.78094599460228       -0.26385351096156
H           -3.21882750619243        4.19281041143416       -0.16755157568460
H           -3.03520923988563        0.86861036927887        2.45836010872313
H           -3.22661236548292        2.58375386828903        2.06338478462673
H           -4.27199377620180        1.37736419157393        1.28152824508708
H            0.17655710189841       -4.23153202617415        0.26817821740035
H            1.88816048173579       -3.84423603106843        0.48479789055832
H            0.66636874319978       -3.06495374135610        1.50881171938103
H            2.13353843429936       -3.16861380802266       -1.92726235814248
H            1.03872507097465       -1.96701314157153       -2.63690451600685
H            0.44365129085624       -3.58657117399060       -2.23117128173502
H            1.07933846928460       -0.29904797904738        0.03629422388822
H            4.21737062984523        4.14454236327559        1.13208328558085
H            2.52836750182843        3.70370629380803        1.47368730009189
H            3.05676897299159        3.94073050960071       -0.19472140221796
H           -1.53887274071011       -3.50412782855079       -1.20425077971214

          :  Hamiltonian                  GFN1-xTB          :
         :: total energy             -83.620828557208 Eh    ::
         :: gradient norm              0.000474927842 Eh/a0 ::
         :: HOMO-LUMO gap              0.474828412935 eV    ::
         :: SCC energy               -84.357883675316 Eh    ::
         :: -> Gsolv                  -0.292666354671 Eh    ::
         :: repulsion energy           0.762987605733 Eh    ::

    * Orbital Energies and Occupations

         #    Occupation            Energy/Eh            Energy/eV
      -------------------------------------------------------------
         1        2.0000           -0.8516607             -23.1749
       ...           ...                  ...                  ...
        56        2.0000           -0.4405201             -11.9872
        57        2.0000           -0.4360695             -11.8661
        58        2.0000           -0.4290190             -11.6742
        59        2.0000           -0.4255489             -11.5798
        60        2.0000           -0.4111378             -11.1876
        61        2.0000           -0.4069150             -11.0727
        62        2.0000           -0.4032930             -10.9742
        63        2.0000           -0.3822022             -10.4003
        64        2.0000           -0.3748194             -10.1994
        65        2.0000           -0.3465447              -9.4300
        66        2.0000           -0.3321343              -9.0378
        67        2.0000           -0.3169148              -8.6237
        68        1.9998           -0.3095927              -8.4244 (HOMO)
        69        0.0002           -0.2921431              -7.9496 (LUMO)
        70                         -0.2457275              -6.6866
        71                         -0.2169825              -5.9044
        72                         -0.2011718              -5.4742
        73                         -0.1822486              -4.9592
        74                         -0.1352053              -3.6791
        75                         -0.1151248              -3.1327
        76                         -0.1072217              -2.9177
        77                         -0.0906058              -2.4655
        78                         -0.0839133              -2.2834
        79                         -0.0817413              -2.2243
       ...                                ...                  ...
       134                          0.7469684              20.3260
      -------------------------------------------------------------
                  HL-Gap            0.0174496 Eh            0.4748 eV

Wiberg/Mayer (AO) data.
largest (>0.10) Wiberg bond orders for each atom

     #   Z sym  total        # sym  WBO       # sym  WBO       # sym  WBO
 ---------------------------------------------------------------------------
     1   6 C    3.947 --     2 O    0.999    26 H    0.982    28 H    0.979
                            27 H    0.968
     2   8 O    1.912 --     1 C    0.999     3 C    0.724
     3   6 C    3.890 --     5 O    1.264     4 C    0.933     6 C    0.913
                             2 O    0.724
     4   6 C    3.986 --    30 H    0.988    29 H    0.988    31 H    0.986
                             3 C    0.933
     5   8 O    1.544 --     3 C    1.264
     6   6 C    3.922 --    24 C    1.338     7 N    1.244     3 C    0.913
                            25 O    0.137
     7   7 N    3.073 --     8 C    1.550     6 C    1.244
     8   6 C    3.923 --     7 N    1.550    21 N    1.102     9 C    0.975
     9   6 C    3.933 --    11 C    0.985    10 C    0.983     8 C    0.975
                            12 N    0.926
    10   6 C    3.991 --    34 H    0.986    32 H    0.985     9 C    0.983
                            33 H    0.982
    11   6 C    3.991 --    36 H    0.986     9 C    0.985    37 H    0.984
                            35 H    0.982
    12   7 N    3.399 --    13 C    1.318     9 C    0.926    38 H    0.863
                            14 O    0.188
    13   6 C    3.925 --    14 O    1.544    12 N    1.318    15 C    0.982
    14   8 O    1.868 --    13 C    1.544    12 N    0.188
    15   6 C    3.869 --    16 N    1.622    20 O    1.055    13 C    0.982
    16   7 N    2.992 --    15 C    1.622    17 N    1.194
    17   7 N    2.977 --    18 C    1.611    16 N    1.194
    18   6 C    3.873 --    17 N    1.611    20 O    1.080    19 C    1.030
    19   6 C    3.988 --    18 C    1.030    39 H    0.984    40 H    0.965
                            41 H    0.963
    20   8 O    2.327 --    18 C    1.080    15 C    1.055
    21   7 N    3.416 --    22 C    1.143     8 C    1.102    42 H    0.907
                            23 O    0.127
    22   6 C    3.878 --    23 O    1.502    21 N    1.143    24 C    1.021
    23   8 O    1.795 --    22 C    1.502    21 N    0.127
    24   6 C    3.956 --    25 O    1.408     6 C    1.338    22 C    1.021
    25   8 O    1.742 --    24 C    1.408     6 C    0.137
    26   1 H    1.027 --     1 C    0.982
    27   1 H    1.039 --     1 C    0.968
    28   1 H    1.021 --     1 C    0.979
    29   1 H    1.019 --     4 C    0.988
    30   1 H    1.021 --     4 C    0.988
    31   1 H    1.037 --     4 C    0.986
    32   1 H    1.004 --    10 C    0.985
    33   1 H    1.012 --    10 C    0.982
    34   1 H    1.006 --    10 C    0.986
    35   1 H    1.011 --    11 C    0.982
    36   1 H    1.006 --    11 C    0.986
    37   1 H    1.004 --    11 C    0.984
    38   1 H    0.979 --    12 N    0.863
    39   1 H    1.001 --    19 C    0.984
    40   1 H    0.997 --    19 C    0.965
    41   1 H    0.998 --    19 C    0.963
    42   1 H    0.960 --    21 N    0.907
 ---------------------------------------------------------------------------

           -------------------------------------------------
          | TOTAL ENERGY              -83.620828557208 Eh   |
          | GRADIENT NORM               0.000474927842 Eh/α |
          | HOMO-LUMO GAP               0.474828412935 eV   |
           -------------------------------------------------

 * finished run on 2023/06/21 at 17:06:59.573
