   * xtb version 6.5.1 (579679a) compiled by 'ehlert@majestix' on 2022-07-11
          program call               : /lustre/hpc/kemi/ree/PhD/git/ReactivityQM/dep/xtb-6.5.1/bin/xtb --gfn 1 /lustre/hpc/kemi/ree/PhD/git/ReactivityQM/calculations/R01/reac02prodN04/conf03/R01_reac02prodN04_conf03_gfn1.xyz --opt --vfukui --chrg 1 --uhf 0 --alpb DMSO

   ID    Z sym.   atoms
    1    6 C      1, 3, 5, 6, 8, 11-14, 17
    2    8 O      2, 4, 7, 9
    3    7 N      10, 15, 16
    4    1 H      18-33

      * Solvation model:               ALPB
        Solvent                        DMSO
        Solvent mass                       7.8130E+01 g/mol
          :  Hamiltonian                  GFN1-xTB          :
 * total energy  :   -57.8318759 Eh     change       -0.1233502E-10 Eh
 * total energy  :   -57.8486551 Eh     change       -0.1677920E-01 Eh
 * total energy  :   -57.8544484 Eh     change       -0.5793261E-02 Eh
 * total energy  :   -57.8512781 Eh     change        0.3170244E-02 Eh
 * total energy  :   -57.8558672 Eh     change       -0.4589074E-02 Eh
 * total energy  :   -57.8564740 Eh     change       -0.6068515E-03 Eh
 * total energy  :   -57.8570228 Eh     change       -0.5487747E-03 Eh
 * total energy  :   -57.8572341 Eh     change       -0.2113102E-03 Eh
 * total energy  :   -57.8573959 Eh     change       -0.1618179E-03 Eh
 * total energy  :   -57.8575623 Eh     change       -0.1664088E-03 Eh
 * total energy  :   -57.8584363 Eh     change       -0.1049773E-04 Eh
 * total energy  :   -57.8584480 Eh     change       -0.1170198E-04 Eh
 * total energy  :   -57.8584654 Eh     change       -0.1743966E-04 Eh
 * total energy  :   -57.8584761 Eh     change       -0.1068216E-04 Eh
 * total energy  :   -57.8584724 Eh     change        0.3715958E-05 Eh
 * total energy  :   -57.8584835 Eh     change       -0.1115099E-04 Eh
 * total energy  :   -57.8584899 Eh     change       -0.6348924E-05 Eh
 * total energy  :   -57.8584963 Eh     change       -0.6402642E-05 Eh
 * total energy  :   -57.8585005 Eh     change       -0.4175157E-05 Eh
   *** GEOMETRY OPTIMIZATION CONVERGED AFTER 29 ITERATIONS ***

 final structure:
================
33
 xtb: 6.5.1 (579679a)
C            4.86067414288358        1.16276762150321        0.15006483111680
O            3.71808748404724        0.37056085061908       -0.23701685105607
C            2.55223105611564        0.73153900870507        0.28164049051573
O            2.41939209398314        1.64077516354673        1.05957135246212
C            1.43321237086840       -0.16673194138512       -0.16425869800542
C            1.63818625802296       -1.46984739185326       -0.52940670735367
O            2.80867607261400       -2.05819938585701       -0.69691154797811
C            0.49233752118315       -2.37304773949471       -0.72671430063100
O            0.53691923730451       -3.52273315797761       -1.08276317279719
N           -0.72196153523060       -1.76692703254228       -0.41151730366946
C           -0.92724278395659       -0.47859612591039       -0.10056925079799
C           -2.37165506639347       -0.06249715445151        0.14744876390799
C           -2.98330026884791        0.38707413350968       -1.18941581104235
C           -3.18871565059921       -1.23740526856910        0.71646543472641
N           -2.40019706045946        1.03592089287486        1.09881242598774
N            0.12178338640802        0.32527679438683       -0.05168192218943
C           -0.04163409440823        1.78714083300083        0.02715364195313
H            4.95716889444769        1.16057938461342        1.23726391923903
H            4.72739322856400        2.18488424431235       -0.20882129245121
H            5.72480283553654        0.69806598482937       -0.31808775446555
H            3.57078451789609       -1.45811799771529       -0.59070933459183
H           -1.51876747635841       -2.38696930919576       -0.47909628277505
H           -2.46988468527928        1.26256099716478       -1.58171320603944
H           -2.91905896046262       -0.41838085904130       -1.91898672061734
H           -4.03044426005569        0.63700047944981       -1.02890461376957
H           -2.66954030775332       -1.69520857838847        1.55634750640736
H           -4.14051373138382       -0.84477462521562        1.06980165498077
H           -3.39745299876779       -1.99090400937167       -0.04158731687890
H           -2.21451640691065        0.68270519244112        2.02801804215084
H           -3.32440145882165        1.44531739509891        1.09952697349965
H           -1.00021793070943        2.06117593315998       -0.39564282508064
H            0.00496364478582        2.10220219398691        1.06717463084308
H            0.75289193173685        2.25479547376591       -0.54773775559943

          :  Hamiltonian                  GFN1-xTB          :
         :: total energy             -57.858500471213 Eh    ::
         :: gradient norm              0.000883282667 Eh/a0 ::
         :: HOMO-LUMO gap              2.059212207586 eV    ::
         :: SCC energy               -58.439488018510 Eh    ::
         :: -> Gsolv                  -0.101162000357 Eh    ::
         :: repulsion energy           0.600615479922 Eh    ::

    * Orbital Energies and Occupations

         #    Occupation            Energy/Eh            Energy/eV
      -------------------------------------------------------------
         1        2.0000           -0.8882062             -24.1693
       ...           ...                  ...                  ...
        35        2.0000           -0.5564519             -15.1418
        36        2.0000           -0.5429053             -14.7732
        37        2.0000           -0.5377849             -14.6339
        38        2.0000           -0.5359735             -14.5846
        39        2.0000           -0.5316901             -14.4680
        40        2.0000           -0.5290149             -14.3952
        41        2.0000           -0.5267393             -14.3333
        42        2.0000           -0.5221754             -14.2091
        43        2.0000           -0.5204643             -14.1626
        44        2.0000           -0.5150856             -14.0162
        45        2.0000           -0.4985873             -13.5673
        46        2.0000           -0.4783617             -13.0169
        47        2.0000           -0.4404107             -11.9842 (HOMO)
        48                         -0.3647360              -9.9250 (LUMO)
        49                         -0.3510766              -9.5533
        50                         -0.2836441              -7.7183
        51                         -0.2182393              -5.9386
        52                         -0.1599707              -4.3530
        53                         -0.1519201              -4.1340
        54                         -0.1503793              -4.0920
        55                         -0.1433663              -3.9012
        56                         -0.1324186              -3.6033
        57                         -0.1201190              -3.2686
        58                         -0.1084025              -2.9498
       ...                                ...                  ...
       100                          0.7156143              19.4729
      -------------------------------------------------------------
                  HL-Gap            0.0756747 Eh            2.0592 eV

Wiberg/Mayer (AO) data.
largest (>0.10) Wiberg bond orders for each atom

     #   Z sym  total        # sym  WBO       # sym  WBO       # sym  WBO
 ---------------------------------------------------------------------------
     1   6 C    3.837 --    20 H    0.985    18 H    0.979    19 H    0.978
                             2 O    0.863
     2   8 O    2.229 --     3 C    1.128     1 C    0.863     4 O    0.138
     3   6 C    3.863 --     4 O    1.672     2 O    1.128     5 C    0.987
     4   8 O    1.966 --     3 C    1.672     2 O    0.138
     5   6 C    3.920 --     6 C    1.527    16 N    1.067     3 C    0.987
                             7 O    0.109
     6   6 C    3.925 --     5 C    1.527     7 O    1.156     8 C    1.026
     7   8 O    2.128 --     6 C    1.156    21 H    0.778     5 C    0.109
     8   6 C    3.901 --     9 O    1.680    10 N    1.070     6 C    1.026
     9   8 O    1.966 --     8 C    1.680    10 N    0.119
    10   7 N    3.484 --    11 C    1.271     8 C    1.070    22 H    0.865
                             9 O    0.119
    11   6 C    3.884 --    16 N    1.410    10 N    1.271    12 C    0.973
    12   6 C    3.955 --    15 N    0.996    14 C    0.981    11 C    0.973
                            13 C    0.967
    13   6 C    3.986 --    24 H    0.984    23 H    0.978    25 H    0.978
                            12 C    0.967
    14   6 C    3.988 --    26 H    0.983    12 C    0.981    27 H    0.977
                            28 H    0.976
    15   7 N    2.975 --    12 C    0.996    29 H    0.933    30 H    0.928
    16   7 N    3.580 --    11 C    1.410     5 C    1.067    17 C    0.900
    17   6 C    3.886 --    33 H    0.977    31 H    0.973    32 H    0.967
                            16 N    0.900
    18   1 H    1.002 --     1 C    0.979
    19   1 H    1.002 --     1 C    0.978
    20   1 H    1.005 --     1 C    0.985
    21   1 H    0.831 --     7 O    0.778
    22   1 H    0.919 --    10 N    0.865
    23   1 H    0.999 --    13 C    0.978
    24   1 H    0.998 --    13 C    0.984
    25   1 H    0.994 --    13 C    0.978
    26   1 H    0.996 --    14 C    0.983
    27   1 H    0.997 --    14 C    0.977
    28   1 H    0.996 --    14 C    0.976
    29   1 H    0.946 --    15 N    0.933
    30   1 H    0.942 --    15 N    0.928
    31   1 H    1.019 --    17 C    0.973
    32   1 H    1.014 --    17 C    0.967
    33   1 H    0.999 --    17 C    0.977
 ---------------------------------------------------------------------------

           -------------------------------------------------
          | TOTAL ENERGY              -57.858500471213 Eh   |
          | GRADIENT NORM               0.000883282667 Eh/α |
          | HOMO-LUMO GAP               2.059212207586 eV   |
           -------------------------------------------------

 * finished run on 2023/06/20 at 15:05:28.324
