   * xtb version 6.5.1 (579679a) compiled by 'ehlert@majestix' on 2022-07-11
          program call               : /lustre/hpc/kemi/ree/PhD/git/ReactivityQM/dep/xtb-6.5.1/bin/xtb --gfn 1 /lustre/hpc/kemi/ree/PhD/git/ReactivityQM/calculations/R02oxygendeprot/reac01prodN08/conf07/R02oxygendeprot_reac01prodN08_conf07_gfn1.xyz --opt --vfukui --chrg 0 --uhf 0 --alpb DMSO

   ID    Z sym.   atoms
    1    6 C      1, 3, 5, 7-10, 12, 14, 17, 18, 21, 23, 25
    2    8 O      2, 4, 13, 19, 22, 24
    3    7 N      6, 11, 15, 16, 20
    4    1 H      26-42

      * Solvation model:               ALPB
        Solvent                        DMSO
        Solvent mass                       7.8130E+01 g/mol
          :  Hamiltonian                  GFN1-xTB          :
 * total energy  :   -82.9981218 Eh     change       -0.1055867E-10 Eh
 * total energy  :   -83.0124618 Eh     change       -0.1433999E-01 Eh
 * total energy  :   -83.0169948 Eh     change       -0.4533009E-02 Eh
 * total energy  :   -83.0179616 Eh     change       -0.9667895E-03 Eh
 * total energy  :   -83.0186048 Eh     change       -0.6432327E-03 Eh
 * total energy  :   -83.0189398 Eh     change       -0.3350005E-03 Eh
 * total energy  :   -83.0191688 Eh     change       -0.2289879E-03 Eh
 * total energy  :   -83.0193330 Eh     change       -0.1642123E-03 Eh
 * total energy  :   -83.0194276 Eh     change       -0.9456618E-04 Eh
 * total energy  :   -83.0195089 Eh     change       -0.8135035E-04 Eh
 * total energy  :   -83.0202022 Eh     change       -0.1148138E-04 Eh
 * total energy  :   -83.0202128 Eh     change       -0.1056842E-04 Eh
 * total energy  :   -83.0202220 Eh     change       -0.9252455E-05 Eh
 * total energy  :   -83.0202301 Eh     change       -0.8097017E-05 Eh
 * total energy  :   -83.0202391 Eh     change       -0.9033931E-05 Eh
 * total energy  :   -83.0202468 Eh     change       -0.7624498E-05 Eh
 * total energy  :   -83.0202547 Eh     change       -0.7932651E-05 Eh
 * total energy  :   -83.0202601 Eh     change       -0.5434854E-05 Eh
 * total energy  :   -83.0202634 Eh     change       -0.3255583E-05 Eh
   *** GEOMETRY OPTIMIZATION CONVERGED AFTER 38 ITERATIONS ***

 final structure:
================
42
 xtb: 6.5.1 (579679a)
C           -6.03045424042014        0.44214810601815        1.41660005880552
O           -4.80304442249498       -0.16547714276599        1.00313317033043
C           -3.81731355404966        0.66419022719580        0.66949714546524
O           -3.93030713858605        1.86930597311150        0.70944333313252
C           -2.55940624017106       -0.01456850688873        0.23042376126377
N           -1.59865658479290        0.88579110643133       -0.15186860391149
C           -0.45681579284191        0.46441978149077       -0.56969753055904
C            0.58932110951786        1.44724502378640       -1.04681157680776
C            0.56171390160302        1.45076081838290       -2.58367254110070
C            0.30166782670632        2.84118392027293       -0.48070919273609
N            1.89302140780077        0.97336560294883       -0.56893572639619
C            3.05667628871133        1.58792442767031       -0.87731988568812
O            3.17755392486058        2.54025180279843       -1.62835089001017
C            4.22261594603842        0.96273026482197       -0.20427083741943
N            5.46376176300262        1.33335225263228       -0.25966301020625
N            6.16982479060036        0.46270076774670        0.51469044148347
C            5.31660703750944       -0.38715164347477        0.99518732172215
C            5.58210911403176       -1.53305094699940        1.89151636688299
O            4.06580666517736       -0.12611839030687        0.58040068041578
N           -0.17834726993208       -0.86671921784240       -0.66604231505955
C           -1.05110394057246       -1.87321155862558       -0.30665950155519
O           -0.71382635537880       -3.04152863299349       -0.42900894980116
C           -2.33807515497727       -1.37425584485328        0.18966793060600
O           -3.30301501590887       -2.21162356841061        0.59132105132331
C           -3.13762365362948       -3.62938658711635        0.63390426671676
H           -5.86287450017218        1.06773716588123        2.29673549799800
H           -6.43637226493632        1.05657106422537        0.60911773840727
H           -6.71472117482999       -0.36944812214929        1.65447231998630
H            1.25142963157180        2.19716154829728       -2.97258884351910
H           -0.44572024413567        1.68464695915592       -2.92503598241206
H            0.84651246492200        0.47057372176230       -2.96095876330199
H            1.02890291386656        3.55521239653727       -0.86257430902647
H            0.35676386138351        2.81735603727163        0.60649277641912
H           -0.69866880301329        3.15255623706747       -0.77792656844116
H            1.90711383819294        0.26790831031378        0.14801846542454
H            5.26014792299186       -2.45866842757697        1.41478978150487
H            5.01838420810593       -1.41902004179293        2.81724166239051
H            6.64511099853847       -1.58641103207374        2.11426557856336
H            0.71638815760938       -1.17411122830325       -1.01602992927604
H           -2.98191180968443       -4.03770790032065       -0.36707913886383
H           -2.30394033108833       -3.90915212992205        1.28118682009167
H           -4.06923728113224       -4.01748459340536        1.04748992715639

          :  Hamiltonian                  GFN1-xTB          :
         :: total energy             -83.020263395303 Eh    ::
         :: gradient norm              0.000386822494 Eh/a0 ::
         :: HOMO-LUMO gap              2.764644469610 eV    ::
         :: SCC energy               -83.804590520988 Eh    ::
         :: -> Gsolv                  -0.057649689405 Eh    ::
         :: repulsion energy           0.809325094251 Eh    ::

    * Orbital Energies and Occupations

         #    Occupation            Energy/Eh            Energy/eV
      -------------------------------------------------------------
         1        2.0000           -0.8658647             -23.5614
       ...           ...                  ...                  ...
        55        2.0000           -0.5051782             -13.7466
        56        2.0000           -0.5013361             -13.6420
        57        2.0000           -0.4957697             -13.4906
        58        2.0000           -0.4852092             -13.2032
        59        2.0000           -0.4811494             -13.0927
        60        2.0000           -0.4801364             -13.0652
        61        2.0000           -0.4669534             -12.7064
        62        2.0000           -0.4615510             -12.5594
        63        2.0000           -0.4569693             -12.4348
        64        2.0000           -0.4519520             -12.2982
        65        2.0000           -0.4509712             -12.2716
        66        2.0000           -0.4483686             -12.2007
        67        2.0000           -0.4271630             -11.6237 (HOMO)
        68                         -0.3255642              -8.8591 (LUMO)
        69                         -0.3117146              -8.4822
        70                         -0.2845921              -7.7441
        71                         -0.2568369              -6.9889
        72                         -0.2408624              -6.5542
        73                         -0.1995520              -5.4301
        74                         -0.1615813              -4.3969
        75                         -0.1417749              -3.8579
        76                         -0.1371867              -3.7330
        77                         -0.1313833              -3.5751
        78                         -0.1280091              -3.4833
       ...                                ...                  ...
       134                          0.7293163              19.8457
      -------------------------------------------------------------
                  HL-Gap            0.1015988 Eh            2.7646 eV

Wiberg/Mayer (AO) data.
largest (>0.10) Wiberg bond orders for each atom

     #   Z sym  total        # sym  WBO       # sym  WBO       # sym  WBO
 ---------------------------------------------------------------------------
     1   6 C    3.872 --    28 H    0.986    27 H    0.979    26 H    0.979
                             2 O    0.897
     2   8 O    2.205 --     3 C    1.117     1 C    0.897     4 O    0.134
     3   6 C    3.852 --     4 O    1.654     2 O    1.117     5 C    1.000
     4   8 O    1.915 --     3 C    1.654     2 O    0.134
     5   6 C    3.962 --    23 C    1.483     6 N    1.184     3 C    1.000
     6   7 N    3.029 --     7 C    1.589     5 C    1.184
     7   6 C    3.930 --     6 N    1.589    20 N    1.167     8 C    0.982
     8   6 C    3.933 --    10 C    0.990     7 C    0.982     9 C    0.975
                            11 N    0.923
     9   6 C    3.987 --    30 H    0.985    31 H    0.985    29 H    0.977
                             8 C    0.975
    10   6 C    3.988 --     8 C    0.990    33 H    0.985    34 H    0.983
                            32 H    0.982
    11   7 N    3.338 --    12 C    1.248     8 C    0.923    35 H    0.893
                            13 O    0.174
    12   6 C    3.915 --    13 O    1.591    11 N    1.248    14 C    0.993
    13   8 O    1.907 --    12 C    1.591    11 N    0.174
    14   6 C    3.872 --    15 N    1.623    19 O    1.046    12 C    0.993
    15   7 N    3.000 --    14 C    1.623    16 N    1.199
    16   7 N    2.982 --    17 C    1.610    15 N    1.199
    17   6 C    3.868 --    16 N    1.610    19 O    1.072    18 C    1.032
    18   6 C    3.986 --    17 C    1.032    38 H    0.982    37 H    0.963
                            36 H    0.963
    19   8 O    2.315 --    17 C    1.072    14 C    1.046
    20   7 N    3.465 --     7 C    1.167    21 C    1.128    39 H    0.882
                            22 O    0.132
    21   6 C    3.909 --    22 O    1.578    20 N    1.128    23 C    1.066
    22   8 O    1.905 --    21 C    1.578    20 N    0.132
    23   6 C    3.918 --     5 C    1.483    24 O    1.099    21 C    1.066
    24   8 O    2.195 --    23 C    1.099    25 C    0.895
    25   6 C    3.870 --    42 H    0.984    41 H    0.979    40 H    0.978
                            24 O    0.895
    26   1 H    1.008 --     1 C    0.979
    27   1 H    1.007 --     1 C    0.979
    28   1 H    1.011 --     1 C    0.986
    29   1 H    1.009 --     9 C    0.977
    30   1 H    1.001 --     9 C    0.985
    31   1 H    1.001 --     9 C    0.985
    32   1 H    1.007 --    10 C    0.982
    33   1 H    1.004 --    10 C    0.985
    34   1 H    1.010 --    10 C    0.983
    35   1 H    0.937 --    11 N    0.893
    36   1 H    0.996 --    18 C    0.963
    37   1 H    0.997 --    18 C    0.963
    38   1 H    0.998 --    18 C    0.982
    39   1 H    0.928 --    20 N    0.882
    40   1 H    1.015 --    25 C    0.978
    41   1 H    1.013 --    25 C    0.979
    42   1 H    1.012 --    25 C    0.984
 ---------------------------------------------------------------------------

           -------------------------------------------------
          | TOTAL ENERGY              -83.020263395303 Eh   |
          | GRADIENT NORM               0.000386822494 Eh/α |
          | HOMO-LUMO GAP               2.764644469610 eV   |
           -------------------------------------------------

 * finished run on 2023/06/21 at 17:23:48.326
