   * xtb version 6.5.1 (579679a) compiled by 'ehlert@majestix' on 2022-07-11
          program call               : /lustre/hpc/kemi/ree/PhD/git/ReactivityQM/dep/xtb-6.5.1/bin/xtb --gfn 1 /lustre/hpc/kemi/ree/PhD/git/ReactivityQM/calculations/R03/reac02/conf17/R03_reac02_conf17_gfn1.xyz --opt --vfukui --chrg 0 --uhf 0 --alpb DMSO

   ID    Z sym.   atoms
    1    6 C      1, 3, 5, 7-10, 12, 14, 17, 18, 21, 22, 24
    2    8 O      2, 4, 13, 19, 23, 25
    3    7 N      6, 11, 15, 16, 20
    4    1 H      26-42

      * Solvation model:               ALPB
        Solvent                        DMSO
        Solvent mass                       7.8130E+01 g/mol
          :  Hamiltonian                  GFN1-xTB          :
 * total energy  :   -82.9997969 Eh     change       -0.1671197E-10 Eh
 * total energy  :   -83.0098495 Eh     change       -0.1005267E-01 Eh
 * total energy  :   -83.0137749 Eh     change       -0.3925362E-02 Eh
 * total energy  :   -83.0148355 Eh     change       -0.1060589E-02 Eh
 * total energy  :   -83.0158364 Eh     change       -0.1000903E-02 Eh
 * total energy  :   -83.0165189 Eh     change       -0.6824879E-03 Eh
 * total energy  :   -83.0170451 Eh     change       -0.5261775E-03 Eh
 * total energy  :   -83.0173622 Eh     change       -0.3171165E-03 Eh
 * total energy  :   -83.0175102 Eh     change       -0.1480273E-03 Eh
 * total energy  :   -83.0175824 Eh     change       -0.7214338E-04 Eh
 * total energy  :   -83.0183371 Eh     change       -0.1253745E-04 Eh
 * total energy  :   -83.0183482 Eh     change       -0.1106286E-04 Eh
 * total energy  :   -83.0183600 Eh     change       -0.1187251E-04 Eh
 * total energy  :   -83.0183750 Eh     change       -0.1498566E-04 Eh
 * total energy  :   -83.0183856 Eh     change       -0.1054897E-04 Eh
 * total energy  :   -83.0183943 Eh     change       -0.8764547E-05 Eh
 * total energy  :   -83.0184013 Eh     change       -0.6941321E-05 Eh
 * total energy  :   -83.0184087 Eh     change       -0.7455581E-05 Eh
 * total energy  :   -83.0184122 Eh     change       -0.3478255E-05 Eh
   *** GEOMETRY OPTIMIZATION CONVERGED AFTER 38 ITERATIONS ***

 final structure:
================
42
 xtb: 6.5.1 (579679a)
C           -5.45261383273000        1.62353465347370       -1.78089560658326
O           -4.25450297431617        1.04667314280072       -1.25121618347474
C           -4.33446234091353        0.52908895287246       -0.03330955180522
O           -5.36009975272209        0.53297397040678        0.62577223050746
C           -3.06797334826426       -0.05969099121688        0.45725802435238
N           -1.97868445570100        0.00314853905163       -0.36251697763930
C           -0.84734767402506       -0.50817464813866        0.00398299219213
C            0.28128473419365       -0.38503119683140       -1.01166348860292
C            0.44084002217586       -1.69889132901381       -1.78428003516548
C           -0.04369586649272        0.74815186331191       -1.99666651625293
N            1.54659567519187       -0.06687541849526       -0.35100781146639
C            1.64439172177455        0.95704912446119        0.52600832837384
O            0.69770998379560        1.60649021161067        0.93859102860907
C            3.03483045514134        1.18931441542274        0.98425337053055
N            3.45627691120631        2.06614020166513        1.84161580734486
N            4.80312491254592        1.89366215902236        1.95083025326472
C            5.12187270536041        0.92070569159256        1.15473222746063
C            6.46283786975374        0.34631415327008        0.91265737528098
O            4.04857932332335        0.43033992371715        0.51330417413997
N           -0.70277497490456       -1.15771516003532        1.20100548510174
C            0.52443210448489       -1.82318245609619        1.63843725283761
C           -1.72921533578721       -1.22481097461436        2.14201691565348
O           -1.54741053258183       -1.76190841971657        3.22558049514162
C           -2.98969443344411       -0.63310325538238        1.70124823266429
O           -4.00662835104285       -0.70479417206071        2.56451426558978
H           -6.25681957091218        0.88449508290159       -1.77674939024481
H           -5.22538235693497        1.93222967583476       -2.79895906678837
H           -5.75005952084196        2.48533083321390       -1.17900446593592
H            0.70701926289983       -2.52241706025772       -1.12607142397653
H            1.22067385474400       -1.58773059654066       -2.53518219568310
H           -0.49659500032937       -1.93946121750240       -2.28343049453302
H            0.78630430552099        0.87046172883384       -2.68930722490880
H           -0.94495969471452        0.50404041498790       -2.55548454559250
H           -0.20409453097757        1.68074004002273       -1.45733117484575
H            2.38488321409304       -0.47956721722306       -0.72158164160185
H            6.46928319827725       -0.70871049794520        1.18737732962267
H            7.20401518469847        0.88194548664530        1.50102439339665
H            6.71173850113479        0.41800431557380       -0.14613392239795
H            1.05732279883313       -1.18020547120049        2.34006820117754
H            1.16123643026670       -2.05148179515501        0.79444237909774
H            0.24492473779305       -2.74784020829079        2.14378813369740
H           -4.81716235957974       -0.30923949497556        2.17131782146395

          :  Hamiltonian                  GFN1-xTB          :
         :: total energy             -83.018412219539 Eh    ::
         :: gradient norm              0.000743852166 Eh/a0 ::
         :: HOMO-LUMO gap              2.762059902352 eV    ::
         :: SCC energy               -83.799122989530 Eh    ::
         :: -> Gsolv                  -0.063620832244 Eh    ::
         :: repulsion energy           0.807773618091 Eh    ::

    * Orbital Energies and Occupations

         #    Occupation            Energy/Eh            Energy/eV
      -------------------------------------------------------------
         1        2.0000           -0.8670894             -23.5947
       ...           ...                  ...                  ...
        55        2.0000           -0.5067761             -13.7901
        56        2.0000           -0.5019700             -13.6593
        57        2.0000           -0.4998356             -13.6012
        58        2.0000           -0.4881886             -13.2843
        59        2.0000           -0.4824404             -13.1279
        60        2.0000           -0.4749969             -12.9253
        61        2.0000           -0.4685939             -12.7511
        62        2.0000           -0.4645579             -12.6413
        63        2.0000           -0.4585560             -12.4779
        64        2.0000           -0.4540970             -12.3566
        65        2.0000           -0.4479986             -12.1907
        66        2.0000           -0.4421724             -12.0321
        67        2.0000           -0.4255919             -11.5809 (HOMO)
        68                         -0.3240880              -8.8189 (LUMO)
        69                         -0.3137091              -8.5365
        70                         -0.2817470              -7.6667
        71                         -0.2580294              -7.0213
        72                         -0.2414298              -6.5696
        73                         -0.2011258              -5.4729
        74                         -0.1571602              -4.2765
        75                         -0.1421802              -3.8689
        76                         -0.1408509              -3.8327
        77                         -0.1385554              -3.7703
        78                         -0.1315878              -3.5807
       ...                                ...                  ...
       134                          0.7214405              19.6314
      -------------------------------------------------------------
                  HL-Gap            0.1015038 Eh            2.7621 eV

Wiberg/Mayer (AO) data.
largest (>0.10) Wiberg bond orders for each atom

     #   Z sym  total        # sym  WBO       # sym  WBO       # sym  WBO
 ---------------------------------------------------------------------------
     1   6 C    3.867 --    27 H    0.986    26 H    0.979    28 H    0.979
                             2 O    0.893
     2   8 O    2.216 --     3 C    1.134     1 C    0.893     4 O    0.129
     3   6 C    3.847 --     4 O    1.606     2 O    1.134     5 C    1.020
     4   8 O    1.940 --     3 C    1.606     2 O    0.129
     5   6 C    3.965 --    24 C    1.475     6 N    1.190     3 C    1.020
     6   7 N    3.030 --     7 C    1.565     5 C    1.190
     7   6 C    3.931 --     6 N    1.565    20 N    1.177     8 C    0.975
     8   6 C    3.936 --    10 C    0.987     9 C    0.985     7 C    0.975
                            11 N    0.927
     9   6 C    3.989 --     8 C    0.985    31 H    0.983    30 H    0.981
                            29 H    0.979
    10   6 C    3.988 --     8 C    0.987    32 H    0.986    33 H    0.983
                            34 H    0.982
    11   7 N    3.346 --    12 C    1.247     8 C    0.927    35 H    0.891
                            13 O    0.174
    12   6 C    3.917 --    13 O    1.587    11 N    1.247    14 C    0.995
    13   8 O    1.890 --    12 C    1.587    11 N    0.174
    14   6 C    3.873 --    15 N    1.621    19 O    1.047    12 C    0.995
    15   7 N    3.000 --    14 C    1.621    16 N    1.200
    16   7 N    2.981 --    17 C    1.609    15 N    1.200
    17   6 C    3.868 --    16 N    1.609    19 O    1.073    18 C    1.032
    18   6 C    3.986 --    17 C    1.032    37 H    0.982    38 H    0.963
                            36 H    0.962
    19   8 O    2.316 --    17 C    1.073    14 C    1.047
    20   7 N    3.509 --     7 C    1.177    22 C    1.113    21 C    0.932
                            23 O    0.137
    21   6 C    3.925 --    40 H    0.979    41 H    0.975    39 H    0.975
                            20 N    0.932
    22   6 C    3.913 --    23 O    1.580    20 N    1.113    24 C    1.071
    23   8 O    1.895 --    22 C    1.580    20 N    0.137
    24   6 C    3.922 --     5 C    1.475    25 O    1.118    22 C    1.071
    25   8 O    2.087 --    24 C    1.118    42 H    0.781
    26   1 H    1.007 --     1 C    0.979
    27   1 H    1.010 --     1 C    0.986
    28   1 H    1.006 --     1 C    0.979
    29   1 H    1.000 --     9 C    0.979
    30   1 H    0.996 --     9 C    0.981
    31   1 H    1.001 --     9 C    0.983
    32   1 H    1.001 --    10 C    0.986
    33   1 H    1.013 --    10 C    0.983
    34   1 H    1.010 --    10 C    0.982
    35   1 H    0.934 --    11 N    0.891
    36   1 H    0.996 --    18 C    0.962
    37   1 H    0.998 --    18 C    0.982
    38   1 H    0.996 --    18 C    0.963
    39   1 H    1.003 --    21 C    0.975
    40   1 H    1.010 --    21 C    0.979
    41   1 H    1.007 --    21 C    0.975
    42   1 H    0.854 --    25 O    0.781
 ---------------------------------------------------------------------------

           -------------------------------------------------
          | TOTAL ENERGY              -83.018412219539 Eh   |
          | GRADIENT NORM               0.000743852166 Eh/α |
          | HOMO-LUMO GAP               2.762059902352 eV   |
           -------------------------------------------------

 * finished run on 2023/06/20 at 15:12:26.198
