   * xtb version 6.5.1 (579679a) compiled by 'ehlert@majestix' on 2022-07-11
          program call               : /lustre/hpc/kemi/ree/PhD/git/ReactivityQM/dep/xtb-6.5.1/bin/xtb --gfn 1 /lustre/hpc/kemi/ree/PhD/git/ReactivityQM/calculations/R02methylcation/reac01prodE02/conf11/R02methylcation_reac01prodE02_conf11_gfn1.xyz --opt --vfukui --chrg -2 --uhf 0 --alpb DMSO

   ID    Z sym.   atoms
    1    6 C      1, 3, 4, 6, 8-11, 13, 15, 18, 19, 22, 24
    2    8 O      2, 5, 14, 20, 23, 25
    3    7 N      7, 12, 16, 17, 21
    4    1 H      26-42

      * Solvation model:               ALPB
        Solvent                        DMSO
        Solvent mass                       7.8130E+01 g/mol
          :  Hamiltonian                  GFN1-xTB          :
 * total energy  :   -83.5954462 Eh     change       -0.7442083E-09 Eh
 * total energy  :   -83.6090388 Eh     change       -0.1359259E-01 Eh
 * total energy  :   -83.6148419 Eh     change       -0.5803051E-02 Eh
 * total energy  :   -83.6164167 Eh     change       -0.1574775E-02 Eh
 * total energy  :   -83.6176218 Eh     change       -0.1205155E-02 Eh
 * total energy  :   -83.6183169 Eh     change       -0.6950984E-03 Eh
 * total energy  :   -83.6187302 Eh     change       -0.4132835E-03 Eh
 * total energy  :   -83.6189687 Eh     change       -0.2384706E-03 Eh
 * total energy  :   -83.6191515 Eh     change       -0.1828156E-03 Eh
 * total energy  :   -83.6193205 Eh     change       -0.1690097E-03 Eh
 * total energy  :   -83.6206338 Eh     change       -0.6516403E-05 Eh
 * total energy  :   -83.6206430 Eh     change       -0.9183242E-05 Eh
 * total energy  :   -83.6206543 Eh     change       -0.1133469E-04 Eh
 * total energy  :   -83.6206658 Eh     change       -0.1150063E-04 Eh
 * total energy  :   -83.6206729 Eh     change       -0.7148927E-05 Eh
 * total energy  :   -83.6206845 Eh     change       -0.1155422E-04 Eh
 * total energy  :   -83.6206918 Eh     change       -0.7251841E-05 Eh
 * total energy  :   -83.6206971 Eh     change       -0.5351316E-05 Eh
 * total energy  :   -83.6207017 Eh     change       -0.4589309E-05 Eh
   *** GEOMETRY OPTIMIZATION CONVERGED AFTER 72 ITERATIONS ***

 final structure:
================
42
 xtb: 6.5.1 (579679a)
C           -4.92174024335756        1.84723941207412        0.14474818077305
O           -4.40364040117846        0.55276954532603        0.14424515253539
C           -3.79469669209659        0.07764125567674       -1.24622341811346
C           -4.97861522967006       -0.75394638440031       -1.83925914151533
O           -3.42081272344065        1.06423600350613       -1.99186214953860
C           -2.61521857829843       -0.83375785901092       -0.74446737143742
N           -1.69577470833667       -0.12701419683814       -0.02297740655448
C           -0.62038441363277       -0.67849834936948        0.42431058402636
C            0.39496469553639        0.11536488896957        1.21984050279644
C           -0.06721372534548        1.57137957211647        1.32829525005025
C            0.59610981115808       -0.49786638328991        2.61274632266333
N            1.67162081250870        0.05610697772536        0.47544829431054
C            2.80458351614610        0.65808611598434        0.86258915567423
O            2.96020838355103        1.32567674011223        1.87395275366444
C            3.89484097326249        0.42451838531851       -0.12840835309647
N            3.78198441375146       -0.21392277140238       -1.25356442098010
N            5.00740977724412       -0.17634236447737       -1.85283017987024
C            5.78759147079070        0.48286636545990       -1.05395555879583
C            7.22128768759361        0.79359716184621       -1.24390714918095
O            5.14534084862992        0.89083474942860        0.05117517778884
N           -0.34426583287163       -2.00941227798015        0.17848629669840
C           -1.18562855201048       -2.82912871942268       -0.53807878773675
O           -0.85726149483942       -4.01835769656952       -0.69733978014527
C           -2.43262289345524       -2.19284201789005       -1.06177699051135
O           -3.22533040250913       -2.91773245292139       -1.74139385073091
H           -4.73551692195287        2.32007400942860        1.12069325411457
H           -6.01423916248819        1.86395244126952       -0.02840899311465
H           -4.45248018584751        2.48356832595454       -0.62840795293850
H           -4.67258728743961       -1.19871522936403       -2.78533495183013
H           -5.31341436748057       -1.53406471805755       -1.15755867024559
H           -5.80446946612659       -0.06774470322201       -2.03128353300758
H           -1.05177130701188        1.59702454335118        1.79433075800216
H           -0.14026298767474        2.01406469459409        0.33501553733440
H            0.62753733074461        2.15197902477659        1.93086230172338
H            1.29424632324512        0.09897742108132        3.19643850517637
H           -0.35947601676648       -0.53246093979526        3.13448760258234
H            0.98908248655305       -1.50937495838511        2.52789835709286
H            1.69767943204193       -0.48492788803999       -0.37829248311642
H            7.38655292844947        1.86665814379654       -1.15578083392802
H            7.81392908123193        0.29773631054658       -0.47538599457694
H            7.54324067768839        0.45262762367956       -2.22432307654254
H            0.48921194369107       -2.43086480159406        0.54872406050318

          :  Hamiltonian                  GFN1-xTB          :
         :: total energy             -83.620701692039 Eh    ::
         :: gradient norm              0.000579046112 Eh/a0 ::
         :: HOMO-LUMO gap              0.349575772640 eV    ::
         :: SCC energy               -84.360439794360 Eh    ::
         :: -> Gsolv                  -0.307966810766 Eh    ::
         :: repulsion energy           0.765244932876 Eh    ::

    * Orbital Energies and Occupations

         #    Occupation            Energy/Eh            Energy/eV
      -------------------------------------------------------------
         1        2.0000           -0.8564849             -23.3061
       ...           ...                  ...                  ...
        56        2.0000           -0.4438562             -12.0779
        57        2.0000           -0.4391119             -11.9488
        58        2.0000           -0.4316288             -11.7452
        59        2.0000           -0.4288343             -11.6692
        60        2.0000           -0.4150548             -11.2942
        61        2.0000           -0.4082169             -11.1081
        62        2.0000           -0.4028999             -10.9635
        63        2.0000           -0.3808793             -10.3643
        64        2.0000           -0.3763824             -10.2419
        65        2.0000           -0.3508766              -9.5478
        66        2.0000           -0.3362298              -9.1493
        67        2.0000           -0.3185494              -8.6682
        68        1.9977           -0.3119172              -8.4877 (HOMO)
        69        0.0023           -0.2990705              -8.1381 (LUMO)
        70                         -0.2505710              -6.8184
        71                         -0.2184223              -5.9436
        72                         -0.2024158              -5.5080
        73                         -0.1875498              -5.1035
        74                         -0.1398258              -3.8049
        75                         -0.1109146              -3.0181
        76                         -0.1036768              -2.8212
        77                         -0.0928478              -2.5265
        78                         -0.0894624              -2.4344
        79                         -0.0839298              -2.2838
       ...                                ...                  ...
       134                          0.7432784              20.2256
      -------------------------------------------------------------
                  HL-Gap            0.0128467 Eh            0.3496 eV

Wiberg/Mayer (AO) data.
largest (>0.10) Wiberg bond orders for each atom

     #   Z sym  total        # sym  WBO       # sym  WBO       # sym  WBO
 ---------------------------------------------------------------------------
     1   6 C    3.948 --     2 O    1.002    26 H    0.981    27 H    0.979
                            28 H    0.966
     2   8 O    1.898 --     1 C    1.002     3 C    0.699
     3   6 C    3.887 --     5 O    1.270     4 C    0.947     6 C    0.915
                             2 O    0.699
     4   6 C    3.990 --    30 H    0.990    31 H    0.987    29 H    0.985
                             3 C    0.947
     5   8 O    1.555 --     3 C    1.270
     6   6 C    3.924 --    24 C    1.347     7 N    1.242     3 C    0.915
                            25 O    0.138
     7   7 N    3.036 --     8 C    1.564     6 C    1.242
     8   6 C    3.923 --     7 N    1.564    21 N    1.090     9 C    0.977
     9   6 C    3.922 --    10 C    0.996    11 C    0.986     8 C    0.977
                            12 N    0.897
    10   6 C    3.994 --     9 C    0.996    33 H    0.985    34 H    0.985
                            32 H    0.984
    11   6 C    3.992 --     9 C    0.986    36 H    0.986    37 H    0.984
                            35 H    0.982
    12   7 N    3.367 --    13 C    1.287    38 H    0.899     9 C    0.897
                            14 O    0.185
    13   6 C    3.921 --    14 O    1.573    12 N    1.287    15 C    0.981
    14   8 O    1.893 --    13 C    1.573    12 N    0.185
    15   6 C    3.869 --    16 N    1.616    20 O    1.062    13 C    0.981
    16   7 N    3.012 --    15 C    1.616    17 N    1.192
    17   7 N    2.980 --    18 C    1.613    16 N    1.192
    18   6 C    3.873 --    17 N    1.613    20 O    1.081    19 C    1.030
    19   6 C    3.988 --    18 C    1.030    41 H    0.983    39 H    0.966
                            40 H    0.963
    20   8 O    2.325 --    18 C    1.081    15 C    1.062
    21   7 N    3.414 --    22 C    1.145     8 C    1.090    42 H    0.907
                            23 O    0.127
    22   6 C    3.879 --    23 O    1.502    21 N    1.145    24 C    1.023
    23   8 O    1.794 --    22 C    1.502    21 N    0.127
    24   6 C    3.956 --    25 O    1.395     6 C    1.347    22 C    1.023
    25   8 O    1.738 --    24 C    1.395     6 C    0.138
    26   1 H    1.027 --     1 C    0.981
    27   1 H    1.022 --     1 C    0.979
    28   1 H    1.038 --     1 C    0.966
    29   1 H    1.036 --     4 C    0.985
    30   1 H    1.030 --     4 C    0.990
    31   1 H    1.022 --     4 C    0.987
    32   1 H    1.017 --    10 C    0.984
    33   1 H    1.015 --    10 C    0.985
    34   1 H    1.012 --    10 C    0.985
    35   1 H    1.011 --    11 C    0.982
    36   1 H    1.006 --    11 C    0.986
    37   1 H    1.005 --    11 C    0.984
    38   1 H    0.961 --    12 N    0.899
    39   1 H    0.997 --    19 C    0.966
    40   1 H    0.997 --    19 C    0.963
    41   1 H    0.999 --    19 C    0.983
    42   1 H    0.959 --    21 N    0.907
 ---------------------------------------------------------------------------

           -------------------------------------------------
          | TOTAL ENERGY              -83.620701692039 Eh   |
          | GRADIENT NORM               0.000579046112 Eh/α |
          | HOMO-LUMO GAP               0.349575772640 eV   |
           -------------------------------------------------

 * finished run on 2023/06/21 at 17:07:18.119
