   * xtb version 6.5.1 (579679a) compiled by 'ehlert@majestix' on 2022-07-11
          program call               : /lustre/hpc/kemi/ree/PhD/git/ReactivityQM/dep/xtb-6.5.1/bin/xtb --gfn 1 /lustre/hpc/kemi/ree/PhD/git/ReactivityQM/calculations/R02methylcation/reac01prodE03/conf08/R02methylcation_reac01prodE03_conf08_gfn1.xyz --opt --vfukui --chrg -2 --uhf 0 --alpb DMSO

   ID    Z sym.   atoms
    1    6 C      1, 3, 5, 6, 8-11, 13, 15, 18, 19, 22, 24
    2    8 O      2, 4, 14, 20, 23, 25
    3    7 N      7, 12, 16, 17, 21
    4    1 H      26-42

      * Solvation model:               ALPB
        Solvent                        DMSO
        Solvent mass                       7.8130E+01 g/mol
          :  Hamiltonian                  GFN1-xTB          :
 * total energy  :   -83.5524028 Eh     change       -0.1043077E-10 Eh
 * total energy  :   -83.5667171 Eh     change       -0.1431429E-01 Eh
 * total energy  :   -83.5726318 Eh     change       -0.5914720E-02 Eh
 * total energy  :   -83.5740139 Eh     change       -0.1382061E-02 Eh
 * total energy  :   -83.5749955 Eh     change       -0.9815840E-03 Eh
 * total energy  :   -83.5755645 Eh     change       -0.5690401E-03 Eh
 * total energy  :   -83.5760566 Eh     change       -0.4920793E-03 Eh
 * total energy  :   -83.5764424 Eh     change       -0.3858319E-03 Eh
 * total energy  :   -83.5767121 Eh     change       -0.2696735E-03 Eh
 * total energy  :   -83.5768993 Eh     change       -0.1871845E-03 Eh
 * total energy  :   -83.5808670 Eh     change       -0.8491938E-04 Eh
 * total energy  :   -83.5808997 Eh     change       -0.3268501E-04 Eh
 * total energy  :   -83.5809158 Eh     change       -0.1610929E-04 Eh
 * total energy  :   -83.5809312 Eh     change       -0.1546434E-04 Eh
 * total energy  :   -83.5809458 Eh     change       -0.1450880E-04 Eh
 * total energy  :   -83.5809568 Eh     change       -0.1102843E-04 Eh
 * total energy  :   -83.5809677 Eh     change       -0.1091437E-04 Eh
 * total energy  :   -83.5809734 Eh     change       -0.5653155E-05 Eh
 * total energy  :   -83.5809781 Eh     change       -0.4762599E-05 Eh
   *** GEOMETRY OPTIMIZATION CONVERGED AFTER 80 ITERATIONS ***

 final structure:
================
42
 xtb: 6.5.1 (579679a)
C           -3.52513092237810        2.68708322304682       -0.60096388595357
O           -4.10908911559100        1.39149824305114       -0.60170211007128
C           -3.94561345439389        0.64709163526562        0.57335879745138
O           -4.98295464464123        0.80093043807698        1.47908590604029
C           -6.06786298166865       -0.11281950109115        1.35392835789001
C           -2.80640139499650       -0.10936334503350        0.79244062086676
N           -1.80594834242846        0.03887350021100       -0.16943205923424
C           -0.68940822616384       -0.60172948459752       -0.04068590862792
C            0.38876396885019       -0.43139239062091       -1.10909900681401
C            0.63122806582407       -1.76756341649014       -1.83135780151884
C           -0.08780608205274        0.60768440912731       -2.12980862104556
N            1.62022059462704        0.10428769912966       -0.51339796695305
C            2.62809454414277       -0.68793710757338        0.04243681663499
O            2.43246604480347       -1.83933148966939        0.49112490130354
C            3.86956014193350        0.01596283509065        0.09485341896198
N            4.09559911245871        1.25373052402477       -0.36408283665756
N            5.41565883699080        1.52055838622043       -0.12325025891441
C            5.92279067914063        0.47713505975471        0.44804549687036
C            7.32840131964511        0.29728072706275        0.88988007963349
O            5.02469106525574       -0.52077107972788        0.62923132958165
N           -0.44070011673132       -1.42747772146182        1.00593936020237
C           -1.36768121996838       -1.70281627018486        2.01860830859552
O           -1.02577879220609       -2.51185252283581        2.91944621238009
C           -2.64201121673096       -1.01966819943544        1.91685054737384
O           -3.57405519512946       -1.23403917796851        2.76630133204304
H           -3.77307780133268        3.15529508375154       -1.55546114281572
H           -3.92189488205535        3.30596888972333        0.21429905488966
H           -2.43234445723245        2.62459634227329       -0.50586988202591
H           -6.82422405060563        0.18261392796393        2.08345945196746
H           -6.50652559743108       -0.07241756068395        0.34902661136334
H           -5.74287346068570       -1.13979746175929        1.56541066069243
H            0.89070326163933       -2.55757743728810       -1.12916604431593
H           -0.27559871861623       -2.05685099154589       -2.36196765454121
H            1.43978921446880       -1.66013017133129       -2.55291556738574
H            0.65132038158867        0.72687040974358       -2.92026674398274
H           -1.03031425835421        0.28764835243104       -2.57236503485104
H           -0.24731890122619        1.57013996549845       -1.64378045187024
H            1.98270090004335        0.91230398970309       -1.00259425536276
H            7.36837438169259        0.07314123393150        1.95616903314551
H            7.88823980503660        1.20835629776775        0.69276646427205
H            7.79253495529506       -0.53106470531233        0.35379879855124
H            0.45347655917506       -1.90445213823786        1.05831267222694

          :  Hamiltonian                  GFN1-xTB          :
         :: total energy             -83.580978116563 Eh    ::
         :: gradient norm              0.000578373069 Eh/a0 ::
         :: HOMO-LUMO gap              0.035304171297 eV    ::
         :: SCC energy               -84.301600254240 Eh    ::
         :: -> Gsolv                  -0.275629852348 Eh    ::
         :: repulsion energy           0.746336997686 Eh    ::

    * Orbital Energies and Occupations

         #    Occupation            Energy/Eh            Energy/eV
      -------------------------------------------------------------
         1        2.0000           -0.8013431             -21.8057
       ...           ...                  ...                  ...
        56        2.0000           -0.4301294             -11.7044
        57        2.0000           -0.4262661             -11.5993
        58        2.0000           -0.4209172             -11.4537
        59        2.0000           -0.4091196             -11.1327
        60        2.0000           -0.4050622             -11.0223
        61        2.0000           -0.4036091             -10.9828
        62        2.0000           -0.4010945             -10.9143
        63        2.0000           -0.3976432             -10.8204
        64        2.0000           -0.3906455             -10.6300
        65        2.0000           -0.3746547             -10.1949
        66        2.0000           -0.3451913              -9.3931
        67        2.0000           -0.3400914              -9.2544
        68        1.3287           -0.2684369              -7.3045 (HOMO)
        69        0.6713           -0.2671395              -7.2692 (LUMO)
        70                         -0.2103660              -5.7244
        71                         -0.2046361              -5.5684
        72                         -0.1800994              -4.9008
        73                         -0.1407387              -3.8297
        74                         -0.1241598              -3.3786
        75                         -0.1146795              -3.1206
        76                         -0.1025408              -2.7903
        77                         -0.1000787              -2.7233
        78                         -0.0972569              -2.6465
        79                         -0.0745881              -2.0296
       ...                                ...                  ...
       134                          0.7295212              19.8513
      -------------------------------------------------------------
                  HL-Gap            0.0012974 Eh            0.0353 eV

Wiberg/Mayer (AO) data.
largest (>0.10) Wiberg bond orders for each atom

     #   Z sym  total        # sym  WBO       # sym  WBO       # sym  WBO
 ---------------------------------------------------------------------------
     1   6 C    3.912 --    26 H    0.986    27 H    0.983    28 H    0.980
                             2 O    0.936
     2   8 O    1.995 --     1 C    0.936     3 C    0.934
     3   6 C    3.524 --     6 C    1.450     4 O    0.958     2 O    0.934
     4   8 O    2.010 --     3 C    0.958     5 C    0.928
     5   6 C    3.906 --    29 H    0.987    30 H    0.984    31 H    0.978
                             4 O    0.928
     6   6 C    3.942 --     3 C    1.450    24 C    1.130     7 N    1.114
     7   7 N    2.974 --     8 C    1.565     6 C    1.114    21 N    0.110
     8   6 C    3.908 --     7 N    1.565    21 N    1.180     9 C    0.966
     9   6 C    3.949 --    11 C    1.002    10 C    0.985     8 C    0.966
                            12 N    0.935
    10   6 C    3.990 --    33 H    0.987    34 H    0.986     9 C    0.985
                            32 H    0.979
    11   6 C    3.996 --     9 C    1.002    35 H    0.987    37 H    0.984
                            36 H    0.984
    12   7 N    3.139 --    13 C    1.092     9 C    0.935    38 H    0.917
                            14 O    0.111
    13   6 C    3.751 --    14 O    1.434    15 C    1.155    12 N    1.092
    14   8 O    1.709 --    13 C    1.434    12 N    0.111
    15   6 C    3.691 --    16 N    1.388    13 C    1.155    20 O    0.978
    16   7 N    2.741 --    15 C    1.388    17 N    1.185
    17   7 N    2.980 --    18 C    1.628    16 N    1.185
    18   6 C    3.820 --    17 N    1.628    20 O    1.050    19 C    1.024
    19   6 C    3.994 --    18 C    1.024    40 H    0.986    39 H    0.972
                            41 H    0.970
    20   8 O    2.184 --    18 C    1.050    15 C    0.978
    21   7 N    3.405 --     8 C    1.180    22 C    1.056    42 H    0.883
                             7 N    0.110
    22   6 C    3.789 --    23 O    1.429    24 C    1.136    21 N    1.056
    23   8 O    1.655 --    22 C    1.429
    24   6 C    3.810 --    25 O    1.376    22 C    1.136     6 C    1.130
    25   8 O    1.601 --    24 C    1.376
    26   1 H    1.020 --     1 C    0.986
    27   1 H    1.016 --     1 C    0.983
    28   1 H    1.030 --     1 C    0.980
    29   1 H    1.022 --     5 C    0.987
    30   1 H    1.018 --     5 C    0.984
    31   1 H    1.042 --     5 C    0.978
    32   1 H    1.019 --    10 C    0.979
    33   1 H    1.007 --    10 C    0.987
    34   1 H    1.004 --    10 C    0.986
    35   1 H    1.004 --    11 C    0.987
    36   1 H    1.019 --    11 C    0.984
    37   1 H    1.015 --    11 C    0.984
    38   1 H    0.978 --    12 N    0.917
    39   1 H    1.001 --    19 C    0.972
    40   1 H    1.004 --    19 C    0.986
    41   1 H    1.001 --    19 C    0.970
    42   1 H    0.969 --    21 N    0.883
 ---------------------------------------------------------------------------

           -------------------------------------------------
          | TOTAL ENERGY              -83.580978116563 Eh   |
          | GRADIENT NORM               0.000578373069 Eh/α |
          | HOMO-LUMO GAP               0.035304171297 eV   |
           -------------------------------------------------

 * finished run on 2023/06/21 at 17:07:39.194
