   * xtb version 6.5.1 (579679a) compiled by 'ehlert@majestix' on 2022-07-11
          program call               : /lustre/hpc/kemi/ree/PhD/git/ReactivityQM/dep/xtb-6.5.1/bin/xtb --gfn 1 /lustre/hpc/kemi/ree/PhD/git/ReactivityQM/calculations/R02methylcation/reac01prodN12/conf04/R02methylcation_reac01prodN12_conf04_gfn1.xyz --opt --vfukui --chrg 0 --uhf 0 --alpb DMSO

   ID    Z sym.   atoms
    1    6 C      1, 3, 5, 7-10, 12, 14, 15, 18, 19, 22, 24
    2    8 O      2, 4, 13, 20, 23, 25
    3    7 N      6, 11, 16, 17, 21
    4    1 H      26-42

      * Solvation model:               ALPB
        Solvent                        DMSO
        Solvent mass                       7.8130E+01 g/mol
          :  Hamiltonian                  GFN1-xTB          :
 * total energy  :   -82.9295435 Eh     change       -0.6342020E-09 Eh
 * total energy  :   -82.9396800 Eh     change       -0.1013650E-01 Eh
 * total energy  :   -82.9434682 Eh     change       -0.3788181E-02 Eh
 * total energy  :   -82.9442814 Eh     change       -0.8131681E-03 Eh
 * total energy  :   -82.9449203 Eh     change       -0.6389186E-03 Eh
 * total energy  :   -82.9453731 Eh     change       -0.4527964E-03 Eh
 * total energy  :   -82.9458258 Eh     change       -0.4526493E-03 Eh
 * total energy  :   -82.9463251 Eh     change       -0.4993755E-03 Eh
 * total energy  :   -82.9468423 Eh     change       -0.5171563E-03 Eh
 * total energy  :   -82.9473317 Eh     change       -0.4893811E-03 Eh
 * total energy  :   -82.9545921 Eh     change       -0.6238285E-04 Eh
 * total energy  :   -82.9546339 Eh     change       -0.4178288E-04 Eh
 * total energy  :   -82.9546607 Eh     change       -0.2681086E-04 Eh
 * total energy  :   -82.9546792 Eh     change       -0.1843347E-04 Eh
 * total energy  :   -82.9546900 Eh     change       -0.1089692E-04 Eh
 * total energy  :   -82.9547001 Eh     change       -0.1000320E-04 Eh
 * total energy  :   -82.9547056 Eh     change       -0.5594871E-05 Eh
 * total energy  :   -82.9547110 Eh     change       -0.5315321E-05 Eh
 * total energy  :   -82.9547145 Eh     change       -0.3511405E-05 Eh
   *** GEOMETRY OPTIMIZATION CONVERGED AFTER 67 ITERATIONS ***

 final structure:
================
42
 xtb: 6.5.1 (579679a)
C           -5.86477313949078        0.99340151464354        1.26644048594622
O           -4.59165900070593        0.64735086947808        0.72388133858728
C           -4.36546330410331        1.03590724620822       -0.54666509594933
O           -5.19273735965919        1.64944523549495       -1.18746614333685
C           -3.03011057324309        0.62225592395737       -1.02427266481405
N           -2.27067415220171       -0.06186927406106       -0.13242550461309
C           -1.09018897112132       -0.48205230721419       -0.46136812495708
C           -0.25323614663214       -1.26785361241857        0.51478748493522
C           -0.18446441021134       -2.73606590208413        0.08521295289720
C           -0.80275433598282       -1.12822187033917        1.93435461900290
N            1.12561237646801       -0.73817224436486        0.46020910344351
C            1.34040484387719        0.56911358109710        0.56268889574440
O            0.49249629689374        1.42876476870944        0.61151139172372
C            2.86545153574540        0.97763750051714        0.59190409067640
C            3.14557154165067        1.64972120344355        1.93511753803420
N            3.09411472801326        1.82042181502341       -0.53026140772475
N            3.94329887589309        1.24232109837804       -1.31844895494172
C            4.30652152150252        0.08385082436815       -0.77059128443337
C            5.27297615017700       -0.87230555978798       -1.32677570580258
O            3.70229602175745       -0.13837788972683        0.37769814234044
N           -0.56938950143939       -0.29006516761137       -1.70847369581311
C           -1.20288736891573        0.41591202618139       -2.71025320877336
O           -0.65401396290807        0.57761773432584       -3.78612783310787
C           -2.58068715433644        0.93662976925083       -2.35230493723752
O           -3.21911463455501        1.57351981852300       -3.19115155348844
H           -5.87368424534555        0.63714026768600        2.29470028799795
H           -6.66410154808568        0.51332786662272        0.69510022647946
H           -6.00787884325734        2.07741780866195        1.24282220383378
H            0.24558288815845       -2.81983436510677       -0.91104482076151
H            0.43285566625232       -3.29587183184226        0.78436021899117
H           -1.18652410541815       -3.16228449905694        0.07824866971545
H           -0.16253906888361       -1.66278272072564        2.63185359300302
H           -0.84620131783704       -0.07723308067806        2.21684200339870
H           -1.80767130383871       -1.54579180813347        1.97305181063204
H            1.88683584808146       -1.39009099618903        0.52530051309236
H            3.00411177698822        0.92563928609996        2.73344544679784
H            2.45615988747508        2.48210989689089        2.06115562560917
H            4.17199917046623        2.00822803978969        1.94654219890108
H            6.27034331551070       -0.62659234259142       -0.95469194096645
H            5.03409542013324       -1.88238145591106       -1.00309220723981
H            5.28767129370633       -0.80630162017985       -2.41262390471733
H            0.34235428941356       -0.66161954733037       -1.91918985311128

          :  Hamiltonian                  GFN1-xTB          :
         :: total energy             -82.954714473367 Eh    ::
         :: gradient norm              0.000711580384 Eh/a0 ::
         :: HOMO-LUMO gap              0.133500558593 eV    ::
         :: SCC energy               -83.726182531570 Eh    ::
         :: -> Gsolv                  -0.094568181998 Eh    ::
         :: repulsion energy           0.798599647077 Eh    ::

    * Orbital Energies and Occupations

         #    Occupation            Energy/Eh            Energy/eV
      -------------------------------------------------------------
         1        2.0000           -0.8893219             -24.1997
       ...           ...                  ...                  ...
        55        2.0000           -0.5157574             -14.0345
        56        2.0000           -0.5086690             -13.8416
        57        2.0000           -0.5054774             -13.7547
        58        2.0000           -0.4948407             -13.4653
        59        2.0000           -0.4886193             -13.2960
        60        2.0000           -0.4872850             -13.2597
        61        2.0000           -0.4789729             -13.0335
        62        2.0000           -0.4771322             -12.9834
        63        2.0000           -0.4717177             -12.8361
        64        2.0000           -0.4682260             -12.7411
        65        2.0000           -0.4526906             -12.3183
        66        2.0000           -0.4141995             -11.2709
        67        1.8594           -0.4002581             -10.8916 (HOMO)
        68        0.1406           -0.3953520             -10.7581 (LUMO)
        69                         -0.3024831              -8.2310
        70                         -0.2901639              -7.8958
        71                         -0.2785724              -7.5803
        72                         -0.2754753              -7.4961
        73                         -0.2278501              -6.2001
        74                         -0.1572927              -4.2802
        75                         -0.1478930              -4.0244
        76                         -0.1429108              -3.8888
        77                         -0.1400044              -3.8097
        78                         -0.1331816              -3.6241
       ...                                ...                  ...
       134                          0.7526828              20.4815
      -------------------------------------------------------------
                  HL-Gap            0.0049061 Eh            0.1335 eV

Wiberg/Mayer (AO) data.
largest (>0.10) Wiberg bond orders for each atom

     #   Z sym  total        # sym  WBO       # sym  WBO       # sym  WBO
 ---------------------------------------------------------------------------
     1   6 C    3.881 --    26 H    0.986    27 H    0.980    28 H    0.980
                             2 O    0.908
     2   8 O    2.168 --     3 C    1.077     1 C    0.908     4 O    0.126
     3   6 C    3.840 --     4 O    1.637     2 O    1.077     5 C    1.043
     4   8 O    1.882 --     3 C    1.637     2 O    0.126
     5   6 C    3.758 --     6 N    1.268    24 C    1.183     3 C    1.043
     6   7 N    2.992 --     7 C    1.510     5 C    1.268
     7   6 C    3.865 --     6 N    1.510    21 N    1.155     8 C    0.987
     8   6 C    3.922 --    10 C    0.992     7 C    0.987     9 C    0.980
                            11 N    0.895
     9   6 C    3.978 --    29 H    0.983    31 H    0.982    30 H    0.981
                             8 C    0.980
    10   6 C    3.988 --     8 C    0.992    32 H    0.985    34 H    0.982
                            33 H    0.982
    11   7 N    3.358 --    12 C    1.319     8 C    0.895    35 H    0.884
                            13 O    0.173
    12   6 C    3.886 --    13 O    1.633    11 N    1.319    14 C    0.812
    13   8 O    1.979 --    12 C    1.633    11 N    0.173
    14   6 C    3.851 --    16 N    1.062    15 C    0.935    20 O    0.906
                            12 C    0.812
    15   6 C    3.938 --    36 H    0.981    38 H    0.979    37 H    0.979
                            14 C    0.935
    16   7 N    2.757 --    17 N    1.468    14 C    1.062
    17   7 N    2.970 --    16 N    1.468    18 C    1.352
    18   6 C    3.695 --    17 N    1.352    20 O    1.162    19 C    1.054
    19   6 C    3.972 --    18 C    1.054    41 H    0.968    40 H    0.967
                            39 H    0.930
    20   8 O    2.244 --    18 C    1.162    14 C    0.906
    21   7 N    3.441 --     7 C    1.155    22 C    1.126    42 H    0.890
                            23 O    0.121
    22   6 C    3.857 --    23 O    1.631    21 N    1.126    24 C    0.952
    23   8 O    1.885 --    22 C    1.631    21 N    0.121
    24   6 C    3.883 --    25 O    1.597     5 C    1.183    22 C    0.952
    25   8 O    1.794 --    24 C    1.597
    26   1 H    1.013 --     1 C    0.986
    27   1 H    1.008 --     1 C    0.980
    28   1 H    1.009 --     1 C    0.980
    29   1 H    0.998 --     9 C    0.983
    30   1 H    0.995 --     9 C    0.981
    31   1 H    0.998 --     9 C    0.982
    32   1 H    1.000 --    10 C    0.985
    33   1 H    1.007 --    10 C    0.982
    34   1 H    1.007 --    10 C    0.982
    35   1 H    0.928 --    11 N    0.884
    36   1 H    0.995 --    15 C    0.981
    37   1 H    0.999 --    15 C    0.979
    38   1 H    0.994 --    15 C    0.979
    39   1 H    0.975 --    19 C    0.930
    40   1 H    0.988 --    19 C    0.967
    41   1 H    0.990 --    19 C    0.968
    42   1 H    0.939 --    21 N    0.890
 ---------------------------------------------------------------------------

           -------------------------------------------------
          | TOTAL ENERGY              -82.954714473367 Eh   |
          | GRADIENT NORM               0.000711580384 Eh/α |
          | HOMO-LUMO GAP               0.133500558593 eV   |
           -------------------------------------------------

 * finished run on 2023/06/21 at 17:44:27.249
