   * xtb version 6.5.1 (579679a) compiled by 'ehlert@majestix' on 2022-07-11
          program call               : /lustre/hpc/kemi/ree/PhD/git/ReactivityQM/dep/xtb-6.5.1/bin/xtb --gfn 1 /lustre/hpc/kemi/ree/PhD/git/ReactivityQM/calculations/R02methylcation/reac01prodE07/conf04/R02methylcation_reac01prodE07_conf04_gfn1.xyz --opt --vfukui --chrg -2 --uhf 0 --alpb DMSO

   ID    Z sym.   atoms
    1    6 C      1, 3, 5, 7-10, 12, 14, 15, 18, 19, 22, 24
    2    8 O      2, 4, 13, 20, 23, 25
    3    7 N      6, 11, 16, 17, 21
    4    1 H      26-42

      * Solvation model:               ALPB
        Solvent                        DMSO
        Solvent mass                       7.8130E+01 g/mol
          :  Hamiltonian                  GFN1-xTB          :
 * total energy  :   -83.5830309 Eh     change       -0.4789058E-11 Eh
 * total energy  :   -83.5980781 Eh     change       -0.1504721E-01 Eh
 * total energy  :   -83.6049990 Eh     change       -0.6920962E-02 Eh
 * total energy  :   -83.6063025 Eh     change       -0.1303476E-02 Eh
 * total energy  :   -83.6070670 Eh     change       -0.7644847E-03 Eh
 * total energy  :   -83.6074264 Eh     change       -0.3594449E-03 Eh
 * total energy  :   -83.6078582 Eh     change       -0.4317497E-03 Eh
 * total energy  :   -83.6082960 Eh     change       -0.4377985E-03 Eh
 * total energy  :   -83.6087141 Eh     change       -0.4180705E-03 Eh
 * total energy  :   -83.6091789 Eh     change       -0.4648550E-03 Eh
 * total energy  :   -83.6168173 Eh     change       -0.3690460E-04 Eh
 * total energy  :   -83.6168372 Eh     change       -0.1988995E-04 Eh
 * total energy  :   -83.6168480 Eh     change       -0.1082925E-04 Eh
 * total energy  :   -83.6168613 Eh     change       -0.1326023E-04 Eh
 * total energy  :   -83.6168746 Eh     change       -0.1326968E-04 Eh
 * total energy  :   -83.6168855 Eh     change       -0.1092008E-04 Eh
 * total energy  :   -83.6168940 Eh     change       -0.8547561E-05 Eh
 * total energy  :   -83.6169005 Eh     change       -0.6494524E-05 Eh
 * total energy  :   -83.6169052 Eh     change       -0.4644296E-05 Eh
   *** GEOMETRY OPTIMIZATION CONVERGED AFTER 56 ITERATIONS ***

 final structure:
================
42
 xtb: 6.5.1 (579679a)
C           -6.91032540792370       -0.91778297480887       -1.14353470380422
O           -5.82431531806998       -0.00662073773610       -1.18278321446013
C           -4.65558264699599       -0.45700558248381       -0.64699669057450
O           -4.58927774782635       -1.59045679079580       -0.17948617304826
C           -3.56138240206457        0.49657612665268       -0.67969402625857
N           -2.40037952024332       -0.00078378458385       -0.10707932871929
C           -1.34602663063065        0.72549829573083       -0.04186114823755
C           -0.07624235197466        0.23409639721003        0.62447467327182
C            0.02379848548838       -1.29449586836445        0.50100783382260
C           -0.12907214138261        0.64622659657713        2.10302458427295
N            1.05507403477915        0.91797481331810       -0.03465391781237
C            2.36401579304974        0.53107135728539        0.45290567823229
O            2.95397072109099        1.48335564209529        1.33290550209307
C            3.59124671552337        0.92345141164660        2.46115033934422
C            3.10819241987546       -0.30031196450434       -0.34350074696238
N            2.60681396817223       -1.07554670506412       -1.33758348144420
N            3.66054571286846       -1.85470332262422       -1.77739063179577
C            4.69516778710741       -1.55611920538512       -1.07818454657893
C            6.05994634658038       -2.13892863212314       -1.18573730945658
O            4.45107370646998       -0.57937675914103       -0.13734336578266
N           -1.32476908471533        2.01746058228007       -0.52392744471252
C           -2.38517774930242        2.62829282052276       -1.12693656033286
O           -2.27718802855889        3.78361320871521       -1.54469303574932
C           -3.64849693926042        1.80332959458801       -1.22585684813675
O           -4.65212597309315        2.31410645921758       -1.76586174602804
H           -7.14711139458651       -1.19793877486103       -0.11178994575548
H           -6.67883526166657       -1.82693122302547       -1.70843314845564
H           -7.76704595245714       -0.41609158247575       -1.59206600166640
H            0.20239682742135       -1.57558143254073       -0.53796548062123
H            0.85081649565119       -1.66250562861872        1.10729812358150
H           -0.90319065115003       -1.75533184734926        0.84287160979709
H            0.74797867839097        0.26990437260506        2.62794512956162
H           -0.14918193049005        1.73279351295247        2.18706309040336
H           -1.02163904386181        0.23603422767144        2.57483381292452
H            1.01828548473279        0.65939804750648       -1.02541072198219
H            2.94920895821627        0.18960625225958        2.96972434965567
H            4.53196608573227        0.42519831004762        2.18697922349240
H            3.81543143132885        1.73854039337963        3.15482903584413
H            6.79807684098373       -1.36222636033012       -1.39253966164731
H            6.34605963266187       -2.63352552013131       -0.25586845979759
H            6.07589843896847       -2.86824924276488       -1.99353245456888
H           -0.45859738883524        2.53595051743845       -0.44630019191153

          :  Hamiltonian                  GFN1-xTB          :
         :: total energy             -83.616905168614 Eh    ::
         :: gradient norm              0.000480414771 Eh/a0 ::
         :: HOMO-LUMO gap              0.501551976303 eV    ::
         :: SCC energy               -84.348149498274 Eh    ::
         :: -> Gsolv                  -0.260009786771 Eh    ::
         :: repulsion energy           0.757182525734 Eh    ::

    * Orbital Energies and Occupations

         #    Occupation            Energy/Eh            Energy/eV
      -------------------------------------------------------------
         1        2.0000           -0.7914066             -21.5353
       ...           ...                  ...                  ...
        56        2.0000           -0.4430774             -12.0567
        57        2.0000           -0.4282030             -11.6520
        58        2.0000           -0.4250846             -11.5671
        59        2.0000           -0.4197652             -11.4224
        60        2.0000           -0.4148946             -11.2899
        61        2.0000           -0.4013860             -10.9223
        62        2.0000           -0.3921081             -10.6698
        63        2.0000           -0.3823600             -10.4045
        64        2.0000           -0.3721909             -10.1278
        65        2.0000           -0.3664750              -9.9723
        66        2.0000           -0.3644256              -9.9165
        67        2.0000           -0.3534087              -9.6167
        68        1.9999           -0.2786646              -7.5828 (HOMO)
        69        0.0001           -0.2602329              -7.0813 (LUMO)
        70                         -0.2216474              -6.0313
        71                         -0.1871823              -5.0935
        72                         -0.1809685              -4.9244
        73                         -0.1396258              -3.7994
        74                         -0.1190652              -3.2399
        75                         -0.1128005              -3.0695
        76                         -0.1054627              -2.8698
        77                         -0.0978350              -2.6622
        78                         -0.0938303              -2.5533
        79                         -0.0883079              -2.4030
       ...                                ...                  ...
       134                          0.7564624              20.5844
      -------------------------------------------------------------
                  HL-Gap            0.0184317 Eh            0.5016 eV

Wiberg/Mayer (AO) data.
largest (>0.10) Wiberg bond orders for each atom

     #   Z sym  total        # sym  WBO       # sym  WBO       # sym  WBO
 ---------------------------------------------------------------------------
     1   6 C    3.903 --    28 H    0.987    26 H    0.980    27 H    0.980
                             2 O    0.930
     2   8 O    2.153 --     3 C    1.036     1 C    0.930     4 O    0.107
     3   6 C    3.848 --     4 O    1.567     5 C    1.127     2 O    1.036
     4   8 O    1.844 --     3 C    1.567     2 O    0.107
     5   6 C    3.919 --    24 C    1.279     6 N    1.144     3 C    1.127
                            25 O    0.130
     6   7 N    3.022 --     7 C    1.632     5 C    1.144
     7   6 C    3.926 --     6 N    1.632    21 N    1.097     8 C    0.979
     8   6 C    3.971 --     9 C    0.988    10 C    0.982     7 C    0.979
                            11 N    0.961
     9   6 C    3.996 --     8 C    0.988    30 H    0.986    31 H    0.984
                            29 H    0.983
    10   6 C    3.994 --    34 H    0.988    33 H    0.986     8 C    0.982
                            32 H    0.978
    11   7 N    3.034 --     8 C    0.961    12 C    0.960    35 H    0.943
    12   6 C    3.678 --    15 C    1.473    11 N    0.960    13 O    0.905
                            16 N    0.149
    13   8 O    1.998 --    14 C    0.961    12 C    0.905
    14   6 C    3.934 --    38 H    0.985    37 H    0.980    36 H    0.976
                            13 O    0.961
    15   6 C    3.865 --    12 C    1.473    16 N    1.283    20 O    0.963
    16   7 N    2.834 --    15 C    1.283    17 N    1.146    12 C    0.149
                            18 C    0.117
    17   7 N    2.988 --    18 C    1.679    16 N    1.146
    18   6 C    3.884 --    17 N    1.679    19 C    1.018    20 O    0.991
                            16 N    0.117
    19   6 C    3.996 --    18 C    1.018    41 H    0.987    39 H    0.976
                            40 H    0.975
    20   8 O    2.184 --    18 C    0.991    15 C    0.963
    21   7 N    3.440 --    22 C    1.181     7 C    1.097    42 H    0.890
                            23 O    0.136
    22   6 C    3.884 --    23 O    1.556    21 N    1.181    24 C    0.973
    23   8 O    1.837 --    22 C    1.556    21 N    0.136
    24   6 C    3.944 --    25 O    1.503     5 C    1.279    22 C    0.973
    25   8 O    1.808 --    24 C    1.503     5 C    0.130
    26   1 H    1.015 --     1 C    0.980
    27   1 H    1.015 --     1 C    0.980
    28   1 H    1.016 --     1 C    0.987
    29   1 H    1.030 --     9 C    0.983
    30   1 H    1.016 --     9 C    0.986
    31   1 H    1.019 --     9 C    0.984
    32   1 H    1.014 --    10 C    0.978
    33   1 H    1.011 --    10 C    0.986
    34   1 H    1.008 --    10 C    0.988
    35   1 H    0.993 --    11 N    0.943
    36   1 H    1.029 --    14 C    0.976
    37   1 H    1.029 --    14 C    0.980
    38   1 H    1.022 --    14 C    0.985
    39   1 H    1.007 --    19 C    0.976
    40   1 H    1.007 --    19 C    0.975
    41   1 H    1.008 --    19 C    0.987
    42   1 H    0.969 --    21 N    0.890
 ---------------------------------------------------------------------------

           -------------------------------------------------
          | TOTAL ENERGY              -83.616905168614 Eh   |
          | GRADIENT NORM               0.000480414771 Eh/α |
          | HOMO-LUMO GAP               0.501551976303 eV   |
           -------------------------------------------------

 * finished run on 2023/06/21 at 17:16:23.865
