   * xtb version 6.5.1 (579679a) compiled by 'ehlert@majestix' on 2022-07-11
          program call               : /lustre/hpc/kemi/ree/PhD/git/ReactivityQM/dep/xtb-6.5.1/bin/xtb --gfn 1 /lustre/hpc/kemi/ree/PhD/git/ReactivityQM/calculations/R02oxygendeprot/reac01prodN03/conf20/R02oxygendeprot_reac01prodN03_conf20_gfn1.xyz --opt --vfukui --chrg 0 --uhf 0 --alpb DMSO

   ID    Z sym.   atoms
    1    6 C      1, 3, 5, 6, 8-11, 13, 15, 18, 19, 22, 24
    2    8 O      2, 4, 14, 20, 23, 25
    3    7 N      7, 12, 16, 17, 21
    4    1 H      26-42

      * Solvation model:               ALPB
        Solvent                        DMSO
        Solvent mass                       7.8130E+01 g/mol
          :  Hamiltonian                  GFN1-xTB          :
 * total energy  :   -82.9866862 Eh     change       -0.8768097E-11 Eh
 * total energy  :   -82.9977859 Eh     change       -0.1109971E-01 Eh
 * total energy  :   -83.0018926 Eh     change       -0.4106781E-02 Eh
 * total energy  :   -83.0028071 Eh     change       -0.9144910E-03 Eh
 * total energy  :   -83.0036181 Eh     change       -0.8109823E-03 Eh
 * total energy  :   -83.0041026 Eh     change       -0.4844860E-03 Eh
 * total energy  :   -83.0045218 Eh     change       -0.4192053E-03 Eh
 * total energy  :   -83.0048452 Eh     change       -0.3233632E-03 Eh
 * total energy  :   -83.0050643 Eh     change       -0.2190852E-03 Eh
 * total energy  :   -83.0052028 Eh     change       -0.1385093E-03 Eh
 * total energy  :   -83.0059737 Eh     change       -0.2274722E-04 Eh
 * total energy  :   -83.0058134 Eh     change        0.1603362E-03 Eh
 * total energy  :   -83.0060352 Eh     change       -0.2218437E-03 Eh
 * total energy  :   -83.0060487 Eh     change       -0.1350452E-04 Eh
 * total energy  :   -83.0060751 Eh     change       -0.2634134E-04 Eh
 * total energy  :   -83.0060859 Eh     change       -0.1081596E-04 Eh
 * total energy  :   -83.0060916 Eh     change       -0.5691885E-05 Eh
 * total energy  :   -83.0060972 Eh     change       -0.5681875E-05 Eh
 * total energy  :   -83.0061006 Eh     change       -0.3397811E-05 Eh
   *** GEOMETRY OPTIMIZATION CONVERGED AFTER 42 ITERATIONS ***

 final structure:
================
42
 xtb: 6.5.1 (579679a)
C           -5.95822360731074        0.36748771299097        0.94147570244370
O           -4.83458731513339        0.94535601964940        0.25809115788596
C           -3.68157208204428        0.32033025177661        0.36736221347429
O           -3.49847279832959       -0.69957376070220        0.97682188348676
C           -2.55545972707128        1.03799965522707       -0.43173433870060
C           -2.86607528945609        2.51770932138598       -0.65249962776649
N           -1.35894772339500        0.90192128868753        0.36654708487201
C           -0.61386812767579       -0.11816194873993        0.24642455013982
C            0.55812349286384       -0.29170216367890        1.20229420408351
C            0.69173479770355        0.96144277348210        2.06889762852608
C            0.32201870549199       -1.52021915256436        2.09039217311727
N            1.81563429878794       -0.42007381691767        0.45330010089033
C            2.23495210155793       -1.50223746273753       -0.22833226916960
O            1.58105802673797       -2.51650207362388       -0.43388002244612
C            3.60981244568886       -1.34453631696375       -0.75796233523012
N            4.26704925037940       -2.16309526965056       -1.51912153394731
N            5.48234300456740       -1.59491034501095       -1.75129890340852
C            5.49468987473831       -0.46411182219586       -1.11631566017337
C            6.59185897749745        0.52418223603022       -1.04074455442361
O            4.33849711371261       -0.24415003984957       -0.46919825688829
N           -0.81904660826250       -1.11828138792238       -0.68829206201176
C           -1.68408745274236       -1.02067364906276       -1.73115900280242
O           -1.78155218861199       -1.86920799943813       -2.59047278345524
C           -2.51311551900618        0.27003834938096       -1.74167717300603
O           -3.12164151784541        0.61830492598441       -2.71973468035056
H           -5.75479769198984        0.32415833019906        2.01273996326749
H           -6.14464464532789       -0.63917541404982        0.56231486072527
H           -6.80648872071164        1.01715671896078        0.74009173614630
H           -2.01319219436980        2.99295503804582       -1.13312609663045
H           -3.05071614064775        3.00116460527281        0.30366548620351
H           -3.74206480596282        2.62361936245017       -1.28952795104233
H            0.85305929747553        1.83779352760147        1.44338808603327
H           -0.22092372784090        1.10916375250475        2.64341770360601
H            1.52971220055172        0.84971534503248        2.75365929791358
H            0.20912433558858       -2.42507320902298        1.49733898489812
H           -0.58422982641632       -1.36609207841666        2.67444106469125
H            1.16531749635051       -1.64384447356248        2.76719850362490
H            2.46395093309234        0.34413121569052        0.55449229047819
H            6.21834795544683        1.51492962302845       -1.29688336543882
H            6.98169806445652        0.56574433649707       -0.02328439222838
H            7.39016913729074        0.24149895876245       -1.72296823585497
H           -0.19544079981949       -1.92517996453901       -0.66962443153582

          :  Hamiltonian                  GFN1-xTB          :
         :: total energy             -83.006100641779 Eh    ::
         :: gradient norm              0.000340540556 Eh/a0 ::
         :: HOMO-LUMO gap              2.378295822775 eV    ::
         :: SCC energy               -83.791559983792 Eh    ::
         :: -> Gsolv                  -0.056069196863 Eh    ::
         :: repulsion energy           0.812246986134 Eh    ::

    * Orbital Energies and Occupations

         #    Occupation            Energy/Eh            Energy/eV
      -------------------------------------------------------------
         1        2.0000           -0.8682116             -23.6252
       ...           ...                  ...                  ...
        55        2.0000           -0.5110424             -13.9062
        56        2.0000           -0.5084709             -13.8362
        57        2.0000           -0.5076402             -13.8136
        58        2.0000           -0.5033516             -13.6969
        59        2.0000           -0.4901097             -13.3366
        60        2.0000           -0.4827540             -13.1364
        61        2.0000           -0.4738094             -12.8930
        62        2.0000           -0.4699953             -12.7892
        63        2.0000           -0.4611263             -12.5479
        64        2.0000           -0.4555735             -12.3968
        65        2.0000           -0.4550356             -12.3821
        66        2.0000           -0.4503920             -12.2558
        67        2.0000           -0.4374630             -11.9040 (HOMO)
        68                         -0.3500622              -9.5257 (LUMO)
        69                         -0.3157417              -8.5918
        70                         -0.2954703              -8.0402
        71                         -0.2685444              -7.3075
        72                         -0.2588329              -7.0432
        73                         -0.2209402              -6.0121
        74                         -0.2035734              -5.5395
        75                         -0.1466531              -3.9906
        76                         -0.1428139              -3.8862
        77                         -0.1293783              -3.5206
        78                         -0.1256843              -3.4200
       ...                                ...                  ...
       134                          0.7594048              20.6645
      -------------------------------------------------------------
                  HL-Gap            0.0874008 Eh            2.3783 eV

Wiberg/Mayer (AO) data.
largest (>0.10) Wiberg bond orders for each atom

     #   Z sym  total        # sym  WBO       # sym  WBO       # sym  WBO
 ---------------------------------------------------------------------------
     1   6 C    3.853 --    28 H    0.985    26 H    0.980    27 H    0.980
                             2 O    0.875
     2   8 O    2.230 --     3 C    1.156     1 C    0.875     4 O    0.139
     3   6 C    3.845 --     4 O    1.695     2 O    1.156     5 C    0.866
     4   8 O    1.963 --     3 C    1.695     2 O    0.139
     5   6 C    3.964 --     6 C    0.983     7 N    0.980    24 C    0.947
                             3 C    0.866
     6   6 C    3.985 --    30 H    0.985    29 H    0.984     5 C    0.983
                            31 H    0.983
     7   7 N    3.026 --     8 C    1.752     5 C    0.980
     8   6 C    3.928 --     7 N    1.752    21 N    1.083     9 C    0.967
     9   6 C    3.933 --    10 C    1.001    11 C    0.981     8 C    0.967
                            12 N    0.919
    10   6 C    3.990 --     9 C    1.001    34 H    0.984    32 H    0.983
                            33 H    0.982
    11   6 C    3.987 --    36 H    0.984    37 H    0.983     9 C    0.981
                            35 H    0.979
    12   7 N    3.353 --    13 C    1.272     9 C    0.919    38 H    0.891
                            14 O    0.174
    13   6 C    3.915 --    14 O    1.557    12 N    1.272    15 C    0.998
    14   8 O    1.916 --    13 C    1.557    12 N    0.174
    15   6 C    3.874 --    16 N    1.620    20 O    1.046    13 C    0.998
    16   7 N    3.001 --    15 C    1.620    17 N    1.201
    17   7 N    2.982 --    18 C    1.608    16 N    1.201
    18   6 C    3.867 --    17 N    1.608    20 O    1.073    19 C    1.032
    19   6 C    3.986 --    18 C    1.032    41 H    0.982    39 H    0.966
                            40 H    0.959
    20   8 O    2.317 --    18 C    1.073    15 C    1.046
    21   7 N    3.439 --    22 C    1.200     8 C    1.083    42 H    0.843
                            23 O    0.150
    22   6 C    3.897 --    23 O    1.663    21 N    1.200    24 C    0.907
    23   8 O    1.949 --    22 C    1.663    21 N    0.150
    24   6 C    3.845 --    25 O    1.809     5 C    0.947    22 C    0.907
    25   8 O    2.023 --    24 C    1.809
    26   1 H    1.004 --     1 C    0.980
    27   1 H    1.004 --     1 C    0.980
    28   1 H    1.007 --     1 C    0.985
    29   1 H    1.001 --     6 C    0.984
    30   1 H    1.003 --     6 C    0.985
    31   1 H    1.008 --     6 C    0.983
    32   1 H    1.003 --    10 C    0.983
    33   1 H    1.008 --    10 C    0.982
    34   1 H    0.998 --    10 C    0.984
    35   1 H    1.007 --    11 C    0.979
    36   1 H    1.001 --    11 C    0.984
    37   1 H    0.999 --    11 C    0.983
    38   1 H    0.935 --    12 N    0.891
    39   1 H    0.996 --    19 C    0.966
    40   1 H    0.996 --    19 C    0.959
    41   1 H    0.998 --    19 C    0.982
    42   1 H    0.929 --    21 N    0.843
 ---------------------------------------------------------------------------

           -------------------------------------------------
          | TOTAL ENERGY              -83.006100641779 Eh   |
          | GRADIENT NORM               0.000340540556 Eh/α |
          | HOMO-LUMO GAP               2.378295822775 eV   |
           -------------------------------------------------

 * finished run on 2023/06/21 at 17:19:22.434
