   * xtb version 6.5.1 (579679a) compiled by 'ehlert@majestix' on 2022-07-11
          program call               : /lustre/hpc/kemi/ree/PhD/git/ReactivityQM/dep/xtb-6.5.1/bin/xtb --gfn 1 /lustre/hpc/kemi/ree/PhD/git/ReactivityQM/calculations/R01/reac01prodN04/conf03/R01_reac01prodN04_conf03_gfn1.xyz --opt --vfukui --chrg 1 --uhf 0 --alpb DMSO

   ID    Z sym.   atoms
    1    6 C      1, 3, 5, 8-10
    2    8 O      2, 4, 11
    3    7 N      6, 7
    4    1 H      12-20

      * Solvation model:               ALPB
        Solvent                        DMSO
        Solvent mass                       7.8130E+01 g/mol
          :  Hamiltonian                  GFN1-xTB          :
 * total energy  :   -37.6284767 Eh     change       -0.7574386E-11 Eh
 * total energy  :   -37.6405265 Eh     change       -0.1204981E-01 Eh
 * total energy  :   -37.6440612 Eh     change       -0.3534688E-02 Eh
 * total energy  :   -37.6447012 Eh     change       -0.6400107E-03 Eh
 * total energy  :   -37.6451586 Eh     change       -0.4574722E-03 Eh
 * total energy  :   -37.6453211 Eh     change       -0.1624443E-03 Eh
 * total energy  :   -37.6454798 Eh     change       -0.1587107E-03 Eh
 * total energy  :   -37.6456074 Eh     change       -0.1276100E-03 Eh
 * total energy  :   -37.6456679 Eh     change       -0.6045274E-04 Eh
 * total energy  :   -37.6456987 Eh     change       -0.3086182E-04 Eh
 * total energy  :   -37.6457071 Eh     change       -0.8354324E-05 Eh
 * total energy  :   -37.6457107 Eh     change       -0.3639179E-05 Eh
   *** GEOMETRY OPTIMIZATION CONVERGED AFTER 12 ITERATIONS ***

 final structure:
================
20
 xtb: 6.5.1 (579679a)
C            4.13037036592354       -0.18353448452854       -0.05286502025607
O            2.70742691793513       -0.13214170678800        0.16519747057338
C            1.93886766703558       -0.14670700620289       -0.89443969409522
O            2.28779521049438       -0.19460024651758       -2.04079572602949
C            0.48205483979016       -0.09772716731365       -0.50900272372893
N           -0.53352875736948       -0.10545097431063       -1.31794010832359
N           -1.61122445962196       -0.04835347066933       -0.51976178237364
C           -2.94356670481907       -0.02837072003717       -1.08905683180172
C           -1.23510168577512       -0.00487892479413        0.74416022429045
C           -2.06990545719938        0.06438713636485        1.95280485514706
O            0.07948634355150       -0.03610050207272        0.77375699764076
H            4.44633126522238        0.70312140232523       -0.60442505475598
H            4.38004977213421       -1.08188263529126       -0.61964911148242
H            4.58508233282393       -0.20789535402330        0.93430288917209
H           -2.86095529390545       -0.27667448833634       -2.14418633233150
H           -3.36445071386283        0.96845903286498       -0.96386387897062
H           -3.55885050189335       -0.75782480228997       -0.56660960404826
H           -1.43353514295606        0.13444083996845        2.83285704555620
H           -2.69644404682133       -0.82694345566651        2.02067250951646
H           -2.72990095068650        0.93141852731842        1.89884387630145

          :  Hamiltonian                  GFN1-xTB          :
         :: total energy             -37.645710708359 Eh    ::
         :: gradient norm              0.000346268880 Eh/a0 ::
         :: HOMO-LUMO gap              4.084360868198 eV    ::
         :: SCC energy               -38.000681904083 Eh    ::
         :: -> Gsolv                  -0.086292201627 Eh    ::
         :: repulsion energy           0.363006098203 Eh    ::

    * Orbital Energies and Occupations

         #    Occupation            Energy/Eh            Energy/eV
      -------------------------------------------------------------
         1        2.0000           -0.9451728             -25.7195
       ...           ...                  ...                  ...
        18        2.0000           -0.6257216             -17.0268
        19        2.0000           -0.6139011             -16.7051
        20        2.0000           -0.6010231             -16.3547
        21        2.0000           -0.5945725             -16.1791
        22        2.0000           -0.5928123             -16.1312
        23        2.0000           -0.5809584             -15.8087
        24        2.0000           -0.5746718             -15.6376
        25        2.0000           -0.5674619             -15.4414
        26        2.0000           -0.5529635             -15.0469
        27        2.0000           -0.5396779             -14.6854
        28        2.0000           -0.5291947             -14.4001
        29        2.0000           -0.5251026             -14.2888
        30        2.0000           -0.5226644             -14.2224 (HOMO)
        31                         -0.3725669             -10.1381 (LUMO)
        32                         -0.3505028              -9.5377
        33                         -0.2566677              -6.9843
        34                         -0.1875178              -5.1026
        35                         -0.1747660              -4.7556
        36                         -0.1532689              -4.1707
        37                         -0.1264440              -3.4407
        38                         -0.1153797              -3.1396
        39                         -0.1008194              -2.7434
        40                         -0.0966548              -2.6301
        41                         -0.0891369              -2.4255
       ...                                ...                  ...
        62                          0.7344960              19.9867
      -------------------------------------------------------------
                  HL-Gap            0.1500975 Eh            4.0844 eV

Wiberg/Mayer (AO) data.
largest (>0.10) Wiberg bond orders for each atom

     #   Z sym  total        # sym  WBO       # sym  WBO       # sym  WBO
 ---------------------------------------------------------------------------
     1   6 C    3.837 --    14 H    0.984    13 H    0.977    12 H    0.977
                             2 O    0.865
     2   8 O    2.245 --     3 C    1.175     1 C    0.865     4 O    0.158
     3   6 C    3.878 --     4 O    1.691     2 O    1.175     5 C    0.946
     4   8 O    1.970 --     3 C    1.691     2 O    0.158
     5   6 C    3.854 --     6 N    1.617    11 O    1.063     3 C    0.946
     6   7 N    2.993 --     5 C    1.617     7 N    1.163
     7   7 N    3.630 --     9 C    1.413     6 N    1.163     8 C    0.907
     8   6 C    3.881 --    15 H    0.977    17 H    0.972    16 H    0.965
                             7 N    0.907
     9   6 C    3.839 --     7 N    1.413    11 O    1.158    10 C    1.043
    10   6 C    3.959 --     9 C    1.043    18 H    0.972    20 H    0.946
                            19 H    0.941
    11   8 O    2.390 --     9 C    1.158     5 C    1.063
    12   1 H    1.000 --     1 C    0.977
    13   1 H    1.000 --     1 C    0.977
    14   1 H    1.005 --     1 C    0.984
    15   1 H    0.991 --     8 C    0.977
    16   1 H    0.988 --     8 C    0.965
    17   1 H    0.989 --     8 C    0.972
    18   1 H    0.985 --    10 C    0.972
    19   1 H    0.984 --    10 C    0.941
    20   1 H    0.985 --    10 C    0.946
 ---------------------------------------------------------------------------

           -------------------------------------------------
          | TOTAL ENERGY              -37.645710708359 Eh   |
          | GRADIENT NORM               0.000346268880 Eh/α |
          | HOMO-LUMO GAP               4.084360868198 eV   |
           -------------------------------------------------

 * finished run on 2023/06/20 at 14:55:34.182
