   * xtb version 6.5.1 (579679a) compiled by 'ehlert@majestix' on 2022-07-11
          program call               : /lustre/hpc/kemi/ree/PhD/git/ReactivityQM/dep/xtb-6.5.1/bin/xtb --gfn 1 /lustre/hpc/kemi/ree/PhD/git/ReactivityQM/calculations/R03/reac02prodN17/conf13/R03_reac02prodN17_conf13_gfn1.xyz --opt --vfukui --chrg 1 --uhf 0 --alpb DMSO

   ID    Z sym.   atoms
    1    6 C      1, 3, 5, 7-10, 12, 13, 15, 18, 19, 22, 23, 25
    2    8 O      2, 4, 14, 20, 24, 26
    3    7 N      6, 11, 16, 17, 21
    4    1 H      27-46

      * Solvation model:               ALPB
        Solvent                        DMSO
        Solvent mass                       7.8130E+01 g/mol
          :  Hamiltonian                  GFN1-xTB          :
 * total energy  :   -86.3117733 Eh     change       -0.3410605E-10 Eh
 * total energy  :   -86.3236299 Eh     change       -0.1185664E-01 Eh
 * total energy  :   -86.3276937 Eh     change       -0.4063809E-02 Eh
 * total energy  :   -86.3286139 Eh     change       -0.9201298E-03 Eh
 * total energy  :   -86.3293792 Eh     change       -0.7653027E-03 Eh
 * total energy  :   -86.3299040 Eh     change       -0.5248315E-03 Eh
 * total energy  :   -86.3304453 Eh     change       -0.5413517E-03 Eh
 * total energy  :   -86.3309143 Eh     change       -0.4689720E-03 Eh
 * total energy  :   -86.3312246 Eh     change       -0.3103202E-03 Eh
 * total energy  :   -86.3314076 Eh     change       -0.1829388E-03 Eh
 * total energy  :   -86.3328201 Eh     change       -0.2180302E-04 Eh
 * total energy  :   -86.3328423 Eh     change       -0.2210547E-04 Eh
 * total energy  :   -86.3328575 Eh     change       -0.1528155E-04 Eh
 * total energy  :   -86.3328664 Eh     change       -0.8892089E-05 Eh
 * total energy  :   -86.3328711 Eh     change       -0.4645424E-05 Eh
 * total energy  :   -86.3328749 Eh     change       -0.3844194E-05 Eh
 * total energy  :   -86.3328790 Eh     change       -0.4044017E-05 Eh
 * total energy  :   -86.3328866 Eh     change       -0.7637370E-05 Eh
 * total energy  :   -86.3328899 Eh     change       -0.3275713E-05 Eh
   *** GEOMETRY OPTIMIZATION CONVERGED AFTER 44 ITERATIONS ***

 final structure:
================
46
 xtb: 6.5.1 (579679a)
C           -3.78368699881024        0.35530706890897       -3.44193631551253
O           -3.10376544804514        0.07899602098281       -2.20786821942282
C           -3.86384465291841       -0.23092239191311       -1.17061918272334
O           -5.07737086924206       -0.29185718916865       -1.21152040001312
C           -3.09599850542274       -0.50388638501584        0.06612844192916
N           -1.73503995020226       -0.40685790571455        0.00260342328591
C           -0.98846259747103       -0.63067081053379        1.03921178222002
C            0.51319940060466       -0.53126925618025        0.73454281338699
C            1.02564885013252       -1.93539580980927        0.39547805985225
C            1.38742995440563        0.14343041364228        1.78468087862606
N            0.52723384803984        0.29499285404272       -0.54820689456564
C            0.48753884228010        1.76577879234544       -0.37129938856762
C            1.47105574248301       -0.16129571337175       -1.61440103099337
O            1.03518432819158       -0.90082592079636       -2.44527582064831
C            2.82499605352993        0.33940202938302       -1.58029167092292
N            3.74370607296429        0.05057989100605       -2.46745240030495
N            4.86526411565576        0.67731751090379       -2.09385509808540
C            4.59536850056161        1.32624853492308       -0.99055031281921
C            5.50264172186114        2.16884025451594       -0.19149772664744
O            3.32358640362909        1.14875918809120       -0.62094940277412
N           -1.51257810573740       -1.01231613737930        2.23295592915655
C           -0.69840275235157       -1.33538072658040        3.40728092698295
C           -2.90365273266695       -1.10621836033607        2.43667784279638
O           -3.35852073996652       -1.40282090827093        3.52342508088050
C           -3.71056020746500       -0.83568337844801        1.24412325773865
O           -5.02577246209610       -0.93874671298864        1.39666546596352
H           -3.01127069902792        0.56472300861079       -4.17845495011263
H           -4.37619027522549       -0.51222354799246       -3.74084714800990
H           -4.43777265328784        1.22063327297502       -3.31621197512016
H            0.45892123760141       -2.35754512284845       -0.43336185536969
H            2.08155823956026       -1.89714785068870        0.13367716056483
H            0.90842107490169       -2.58070100337927        1.26360065734279
H            0.88680660792777        0.99954746561184        2.23119602220809
H            1.65066879056056       -0.56456858789660        2.56616450138976
H            2.31551147157484        0.47415379483468        1.32522234186842
H           -0.44680312416433        0.04657849423776       -0.91396890704783
H            1.38795245202850        2.12354435642080        0.11237324289329
H           -0.38777110567000        1.99029728763960        0.23317357697770
H            0.38736155851249        2.21013267584059       -1.35853457446043
H            5.48753532074043        1.84367208837698        0.84839936562785
H            6.51350148119281        2.10575176161295       -0.58824082131715
H            5.16149909523866        3.20449454594295       -0.22010840777567
H           -0.34064650044376       -0.41779161567040        3.86983195236773
H           -1.33025631685364       -1.87299108137582        4.11419585567759
H            0.13459370376226       -1.96730296610843        3.11774591200206
H           -5.48881617088409       -0.73876392837909        0.55093101147763

          :  Hamiltonian                  GFN1-xTB          :
         :: total energy             -86.332889871257 Eh    ::
         :: gradient norm              0.000474559924 Eh/a0 ::
         :: HOMO-LUMO gap              1.774778625710 eV    ::
         :: SCC energy               -87.156306175771 Eh    ::
         :: -> Gsolv                  -0.118801348648 Eh    ::
         :: repulsion energy           0.855091729972 Eh    ::

    * Orbital Energies and Occupations

         #    Occupation            Energy/Eh            Energy/eV
      -------------------------------------------------------------
         1        2.0000           -0.9052307             -24.6326
       ...           ...                  ...                  ...
        58        2.0000           -0.5354759             -14.5710
        59        2.0000           -0.5294019             -14.4058
        60        2.0000           -0.5239783             -14.2582
        61        2.0000           -0.5232091             -14.2372
        62        2.0000           -0.5154346             -14.0257
        63        2.0000           -0.5081072             -13.8263
        64        2.0000           -0.5032215             -13.6934
        65        2.0000           -0.4948973             -13.4668
        66        2.0000           -0.4919997             -13.3880
        67        2.0000           -0.4878074             -13.2739
        68        2.0000           -0.4849392             -13.1959
        69        2.0000           -0.4657784             -12.6745
        70        2.0000           -0.4472559             -12.1705 (HOMO)
        71                         -0.3820340             -10.3957 (LUMO)
        72                         -0.3411835              -9.2841
        73                         -0.3113718              -8.4729
        74                         -0.2914946              -7.9320
        75                         -0.2586149              -7.0373
        76                         -0.2572916              -7.0013
        77                         -0.1771799              -4.8213
        78                         -0.1701356              -4.6296
        79                         -0.1659015              -4.5144
        80                         -0.1571339              -4.2758
        81                         -0.1476794              -4.0186
       ...                                ...                  ...
       144                          0.7167639              19.5041
      -------------------------------------------------------------
                  HL-Gap            0.0652219 Eh            1.7748 eV

Wiberg/Mayer (AO) data.
largest (>0.10) Wiberg bond orders for each atom

     #   Z sym  total        # sym  WBO       # sym  WBO       # sym  WBO
 ---------------------------------------------------------------------------
     1   6 C    3.858 --    27 H    0.986    28 H    0.979    29 H    0.979
                             2 O    0.884
     2   8 O    2.218 --     3 C    1.140     1 C    0.884     4 O    0.133
     3   6 C    3.854 --     4 O    1.619     2 O    1.140     5 C    1.013
     4   8 O    1.951 --     3 C    1.619     2 O    0.133
     5   6 C    3.954 --    25 C    1.480     6 N    1.166     3 C    1.013
     6   7 N    3.140 --     7 C    1.541     5 C    1.166    36 H    0.136
     7   6 C    3.940 --     6 N    1.541    21 N    1.216     8 C    0.971
     8   6 C    3.896 --    10 C    1.000     9 C    0.985     7 C    0.971
                            11 N    0.856
     9   6 C    3.981 --     8 C    0.985    30 H    0.979    31 H    0.977
                            32 H    0.974
    10   6 C    3.981 --     8 C    1.000    33 H    0.980    35 H    0.973
                            34 H    0.973
    11   7 N    3.568 --    12 C    0.906    13 C    0.874     8 C    0.856
                            36 H    0.769
    12   6 C    3.893 --    38 H    0.980    39 H    0.980    37 H    0.979
                            11 N    0.906
    13   6 C    3.878 --    14 O    1.774    15 C    1.085    11 N    0.874
    14   8 O    2.039 --    13 C    1.774
    15   6 C    3.884 --    16 N    1.531    13 C    1.085    20 O    1.039
    16   7 N    3.018 --    15 C    1.531    17 N    1.280
    17   7 N    2.993 --    18 C    1.528    16 N    1.280
    18   6 C    3.851 --    17 N    1.528    20 O    1.093    19 C    1.042
    19   6 C    3.977 --    18 C    1.042    41 H    0.979    40 H    0.957
                            42 H    0.949
    20   8 O    2.343 --    18 C    1.093    15 C    1.039
    21   7 N    3.508 --     7 C    1.216    23 C    1.078    22 C    0.923
                            24 O    0.132
    22   6 C    3.911 --    45 H    0.977    43 H    0.975    44 H    0.970
                            21 N    0.923
    23   6 C    3.907 --    24 O    1.622    21 N    1.078    25 C    1.058
    24   8 O    1.938 --    23 C    1.622    21 N    0.132
    25   6 C    3.924 --     5 C    1.480    26 O    1.141    23 C    1.058
    26   8 O    2.108 --    25 C    1.141    46 H    0.775
    27   1 H    1.009 --     1 C    0.986
    28   1 H    1.004 --     1 C    0.979
    29   1 H    1.004 --     1 C    0.979
    30   1 H    0.997 --     9 C    0.979
    31   1 H    0.995 --     9 C    0.977
    32   1 H    0.997 --     9 C    0.974
    33   1 H    0.995 --    10 C    0.980
    34   1 H    0.998 --    10 C    0.973
    35   1 H    1.002 --    10 C    0.973
    36   1 H    0.944 --    11 N    0.769     6 N    0.136
    37   1 H    1.002 --    12 C    0.979
    38   1 H    0.993 --    12 C    0.980
    39   1 H    0.990 --    12 C    0.980
    40   1 H    0.991 --    19 C    0.957
    41   1 H    0.994 --    19 C    0.979
    42   1 H    0.990 --    19 C    0.949
    43   1 H    0.998 --    22 C    0.975
    44   1 H    1.003 --    22 C    0.970
    45   1 H    1.002 --    22 C    0.977
    46   1 H    0.845 --    26 O    0.775
 ---------------------------------------------------------------------------

           -------------------------------------------------
          | TOTAL ENERGY              -86.332889871257 Eh   |
          | GRADIENT NORM               0.000474559924 Eh/α |
          | HOMO-LUMO GAP               1.774778625710 eV   |
           -------------------------------------------------

 * finished run on 2023/06/20 at 15:54:14.968
