   * xtb version 6.5.1 (579679a) compiled by 'ehlert@majestix' on 2022-07-11
          program call               : /lustre/hpc/kemi/ree/PhD/git/ReactivityQM/dep/xtb-6.5.1/bin/xtb --gfn 1 /lustre/hpc/kemi/ree/PhD/git/ReactivityQM/calculations/R02methylcation/reac01prodE01/conf02/R02methylcation_reac01prodE01_conf02_gfn1.xyz --opt --vfukui --chrg -2 --uhf 0 --alpb DMSO

   ID    Z sym.   atoms
    1    6 C      1, 3, 5, 7-10, 12, 13, 15, 18, 19, 22, 24
    2    8 O      2, 4, 14, 20, 23, 25
    3    7 N      6, 11, 16, 17, 21
    4    1 H      26-42

      * Solvation model:               ALPB
        Solvent                        DMSO
        Solvent mass                       7.8130E+01 g/mol
          :  Hamiltonian                  GFN1-xTB          :
 * total energy  :   -83.6287807 Eh     change       -0.1649880E-10 Eh
 * total energy  :   -83.6424225 Eh     change       -0.1364183E-01 Eh
 * total energy  :   -83.6474187 Eh     change       -0.4996155E-02 Eh
 * total energy  :   -83.6483041 Eh     change       -0.8854815E-03 Eh
 * total energy  :   -83.6487766 Eh     change       -0.4724316E-03 Eh
 * total energy  :   -83.6490201 Eh     change       -0.2435645E-03 Eh
 * total energy  :   -83.6491801 Eh     change       -0.1599093E-03 Eh
 * total energy  :   -83.6492586 Eh     change       -0.7855972E-04 Eh
 * total energy  :   -83.6492968 Eh     change       -0.3818972E-04 Eh
 * total energy  :   -83.6493257 Eh     change       -0.2888064E-04 Eh
 * total energy  :   -83.6497422 Eh     change       -0.3153426E-04 Eh
 * total energy  :   -83.6497848 Eh     change       -0.4257414E-04 Eh
 * total energy  :   -83.6498248 Eh     change       -0.4000324E-04 Eh
 * total energy  :   -83.6498558 Eh     change       -0.3098481E-04 Eh
 * total energy  :   -83.6498882 Eh     change       -0.3237819E-04 Eh
 * total energy  :   -83.6498968 Eh     change       -0.8626076E-05 Eh
 * total energy  :   -83.6499031 Eh     change       -0.6324561E-05 Eh
 * total energy  :   -83.6499090 Eh     change       -0.5852143E-05 Eh
 * total energy  :   -83.6499133 Eh     change       -0.4355905E-05 Eh
   *** GEOMETRY OPTIMIZATION CONVERGED AFTER 36 ITERATIONS ***

 final structure:
================
42
 xtb: 6.5.1 (579679a)
C            7.11571279424530        0.64827285658654       -0.49076204154951
O            5.86746258634009        0.75288478352250        0.17338693621436
C            4.78936640506148        0.28985694813149       -0.52059563210172
O            4.94051536054300       -0.19369918768704       -1.63941274036569
C            3.51788870608233        0.42553598248746        0.16534897451664
N            2.45031421644581       -0.04774236530505       -0.58529259095812
C            1.25582377508246        0.01708493045981       -0.12052201938099
C            0.07122543577905       -0.53764085374774       -0.91453496854846
C            0.25192530628948       -2.06286117159589       -0.95217230455088
C            0.16141382763313        0.01973984201707       -2.34699415605249
N           -1.14964208566581       -0.07453235577479       -0.24975907016556
C           -2.38119800908726       -0.98766568353892       -0.13592266178844
C           -3.14150348028783       -0.94477350613777       -1.50503744231212
O           -2.16607898666971       -2.17755133526935        0.33384107977250
C           -3.24360877328111       -0.13684541820988        0.87069871263644
N           -2.82507018353905        0.43436202647424        1.95647591739411
N           -3.93703073155391        0.93846774529895        2.60380633807884
C           -4.95095912882514        0.63235171587206        1.86846972394619
C           -6.37787614755657        0.95363013269653        2.11627491584916
O           -4.59083939573377       -0.04860162557857        0.76198148090458
N            0.99108223132598        0.53344650184327        1.12427581124004
C            1.93496796297654        1.03284545810630        1.96922290779490
O            1.60670345147653        1.49336280782418        3.06669808713265
C            3.35891078876424        0.97631554187117        1.46334969983769
O            4.27055634833649        1.40939736444025        2.20072774307471
H            7.35381521077733       -0.39702199089171       -0.71377481779443
H            7.10600967724831        1.21235491151600       -1.42909346790004
H            7.87115417184366        1.06144397807364        0.17672130763257
H           -0.52589683909996       -2.53648586326135       -1.54776149847262
H            0.22798658214306       -2.48238409904077        0.05335803837646
H            1.22226299880876       -2.28332960824461       -1.40169108223464
H           -0.60561362264877       -0.42319700034451       -2.97919574277323
H            0.02780088280656        1.10125449027871       -2.34238671552255
H            1.14168820840994       -0.20684527819342       -2.76808680474598
H           -1.45955534933263        0.77550503674129       -0.70938617646207
H           -2.56770603632145       -1.48738559576668       -2.25350191832489
H           -4.10301183748388       -1.43995829290844       -1.37833724211208
H           -3.30588150503310        0.07691335211571       -1.84153187518877
H           -6.76446154732399        1.58805805423312        1.31911336873785
H           -6.97358041905561        0.04163065063747        2.13945083574411
H           -6.47454305334785        1.47302200455658        3.06655367823156
H            0.00946920342578        0.58078411571093        1.39599641219058

          :  Hamiltonian                  GFN1-xTB          :
         :: total energy             -83.649913333535 Eh    ::
         :: gradient norm              0.000647950383 Eh/a0 ::
         :: HOMO-LUMO gap              2.132452859232 eV    ::
         :: SCC energy               -84.383862721198 Eh    ::
         :: -> Gsolv                  -0.276453167964 Eh    ::
         :: repulsion energy           0.760070951675 Eh    ::

    * Orbital Energies and Occupations

         #    Occupation            Energy/Eh            Energy/eV
      -------------------------------------------------------------
         1        2.0000           -0.8154380             -22.1892
       ...           ...                  ...                  ...
        56        2.0000           -0.4409514             -11.9989
        57        2.0000           -0.4397081             -11.9651
        58        2.0000           -0.4314039             -11.7391
        59        2.0000           -0.4269217             -11.6171
        60        2.0000           -0.4219514             -11.4819
        61        2.0000           -0.4103762             -11.1669
        62        2.0000           -0.4054486             -11.0328
        63        2.0000           -0.3992510             -10.8642
        64        2.0000           -0.3704968             -10.0817
        65        2.0000           -0.3624488              -9.8627
        66        2.0000           -0.3509500              -9.5498
        67        2.0000           -0.3454783              -9.4009
        68        2.0000           -0.3367538              -9.1635 (HOMO)
        69                         -0.2583876              -7.0311 (LUMO)
        70                         -0.2225557              -6.0560
        71                         -0.2180882              -5.9345
        72                         -0.2059951              -5.6054
        73                         -0.1851687              -5.0387
        74                         -0.1271636              -3.4603
        75                         -0.1186364              -3.2283
        76                         -0.1019921              -2.7753
        77                         -0.0958863              -2.6092
        78                         -0.0863567              -2.3499
        79                         -0.0801810              -2.1818
       ...                                ...                  ...
       134                          0.7561599              20.5762
      -------------------------------------------------------------
                  HL-Gap            0.0783662 Eh            2.1325 eV

Wiberg/Mayer (AO) data.
largest (>0.10) Wiberg bond orders for each atom

     #   Z sym  total        # sym  WBO       # sym  WBO       # sym  WBO
 ---------------------------------------------------------------------------
     1   6 C    3.904 --    28 H    0.987    27 H    0.980    26 H    0.980
                             2 O    0.930
     2   8 O    2.151 --     3 C    1.034     1 C    0.930     4 O    0.106
     3   6 C    3.849 --     4 O    1.565     5 C    1.129     2 O    1.034
     4   8 O    1.843 --     3 C    1.565     2 O    0.106
     5   6 C    3.920 --    24 C    1.281     6 N    1.143     3 C    1.129
                            25 O    0.130
     6   7 N    3.019 --     7 C    1.627     5 C    1.143
     7   6 C    3.925 --     6 N    1.627    21 N    1.111     8 C    0.966
     8   6 C    3.968 --    10 C    0.984     9 C    0.984    11 N    0.978
                             7 C    0.966
     9   6 C    3.995 --    31 H    0.986     8 C    0.984    30 H    0.983
                            29 H    0.981
    10   6 C    3.995 --    33 H    0.985    32 H    0.985     8 C    0.984
                            34 H    0.983
    11   7 N    3.010 --     8 C    0.978    35 H    0.952    12 C    0.846
    12   6 C    3.933 --    14 O    1.221    13 C    0.937    15 C    0.874
                            11 N    0.846
    13   6 C    3.991 --    38 H    0.989    37 H    0.985    36 H    0.983
                            12 C    0.937
    14   8 O    1.543 --    12 C    1.221
    15   6 C    3.801 --    16 N    1.654    20 O    1.045    12 C    0.874
    16   7 N    2.969 --    15 C    1.654    17 N    1.149
    17   7 N    2.976 --    18 C    1.657    16 N    1.149
    18   6 C    3.888 --    17 N    1.657    20 O    1.061    19 C    1.024
    19   6 C    3.993 --    18 C    1.024    41 H    0.985    40 H    0.971
                            39 H    0.970
    20   8 O    2.292 --    18 C    1.061    15 C    1.045
    21   7 N    3.451 --    22 C    1.186     7 C    1.111    42 H    0.879
                            23 O    0.136
    22   6 C    3.886 --    23 O    1.549    21 N    1.186    24 C    0.974
    23   8 O    1.830 --    22 C    1.549    21 N    0.136
    24   6 C    3.945 --    25 O    1.499     5 C    1.281    22 C    0.974
    25   8 O    1.804 --    24 C    1.499     5 C    0.130
    26   1 H    1.016 --     1 C    0.980
    27   1 H    1.015 --     1 C    0.980
    28   1 H    1.017 --     1 C    0.987
    29   1 H    1.025 --     9 C    0.981
    30   1 H    1.032 --     9 C    0.983
    31   1 H    1.015 --     9 C    0.986
    32   1 H    1.009 --    10 C    0.985
    33   1 H    1.007 --    10 C    0.985
    34   1 H    1.018 --    10 C    0.983
    35   1 H    0.981 --    11 N    0.952
    36   1 H    1.017 --    13 C    0.983
    37   1 H    1.017 --    13 C    0.985
    38   1 H    1.009 --    13 C    0.989
    39   1 H    1.002 --    19 C    0.970
    40   1 H    1.002 --    19 C    0.971
    41   1 H    1.003 --    19 C    0.985
    42   1 H    0.984 --    21 N    0.879
 ---------------------------------------------------------------------------

           -------------------------------------------------
          | TOTAL ENERGY              -83.649913333535 Eh   |
          | GRADIENT NORM               0.000647950383 Eh/α |
          | HOMO-LUMO GAP               2.132452859232 eV   |
           -------------------------------------------------

 * finished run on 2023/06/21 at 17:03:48.244
