   * xtb version 6.5.1 (579679a) compiled by 'ehlert@majestix' on 2022-07-11
          program call               : /lustre/hpc/kemi/ree/PhD/git/ReactivityQM/dep/xtb-6.5.1/bin/xtb --gfn 1 /lustre/hpc/kemi/ree/PhD/git/ReactivityQM/calculations/R02deprot/reac01prodE14/conf02/R02deprot_reac01prodE14_conf02_gfn1.xyz --opt --vfukui --chrg -2 --uhf 0 --alpb DMSO

   ID    Z sym.   atoms
    1    6 C      1, 3, 5, 7-10, 12, 14, 17, 18, 21, 23, 24
    2    8 O      2, 4, 13, 19, 22, 25
    3    7 N      6, 11, 15, 16, 20
    4    1 H      26-42

      * Solvation model:               ALPB
        Solvent                        DMSO
        Solvent mass                       7.8130E+01 g/mol
          :  Hamiltonian                  GFN1-xTB          :
 * total energy  :   -83.5955884 Eh     change       -0.7275958E-11 Eh
 * total energy  :   -83.6178276 Eh     change       -0.2223916E-01 Eh
 * total energy  :   -83.6279986 Eh     change       -0.1017098E-01 Eh
 * total energy  :   -83.6303480 Eh     change       -0.2349399E-02 Eh
 * total energy  :   -83.6320289 Eh     change       -0.1680924E-02 Eh
 * total energy  :   -83.6327479 Eh     change       -0.7189475E-03 Eh
 * total energy  :   -83.6332226 Eh     change       -0.4747514E-03 Eh
 * total energy  :   -83.6335639 Eh     change       -0.3412456E-03 Eh
 * total energy  :   -83.6338162 Eh     change       -0.2523147E-03 Eh
 * total energy  :   -83.6340614 Eh     change       -0.2451826E-03 Eh
 * total energy  :   -83.6353797 Eh     change       -0.1159565E-04 Eh
 * total energy  :   -83.6353918 Eh     change       -0.1214257E-04 Eh
 * total energy  :   -83.6354093 Eh     change       -0.1751750E-04 Eh
 * total energy  :   -83.6354270 Eh     change       -0.1767803E-04 Eh
 * total energy  :   -83.6354417 Eh     change       -0.1470807E-04 Eh
 * total energy  :   -83.6354511 Eh     change       -0.9347113E-05 Eh
 * total energy  :   -83.6354576 Eh     change       -0.6545420E-05 Eh
 * total energy  :   -83.6354634 Eh     change       -0.5816787E-05 Eh
 * total energy  :   -83.6354683 Eh     change       -0.4818318E-05 Eh
   *** GEOMETRY OPTIMIZATION CONVERGED AFTER 57 ITERATIONS ***

 final structure:
================
42
 xtb: 6.5.1 (579679a)
C           -1.34476634152512        2.82748982290488       -2.77188355797977
O           -1.26728678115139        1.87999584753399       -1.73264240933634
C           -2.50699921746505        1.26864792194812       -1.39818345784043
O           -3.52168597414937        1.62606170578823       -2.03955583539053
C           -2.40752578255270        0.32679536088700       -0.37800103308899
N           -1.15666808541313        0.01689363659179        0.13339424096271
C           -1.03860395590853       -0.89461418379239        1.04290782461244
C            0.36416173272449       -1.23289262619976        1.54594750499318
C            0.48720191141054       -0.84337251412104        3.02725152362874
C            0.62122148814250       -2.73639276443669        1.36741272748921
N            1.30496238743639       -0.45730086654307        0.74069795989404
C            2.63669343490357       -0.49555338876712        0.84570056905434
O            3.27694116122892       -1.17558406361979        1.64763787862381
C            3.28403629367896        0.40060074548550       -0.14505406739143
N            2.67583502119809        1.16460318719593       -1.00896697835518
N            3.64878754592732        1.80700739598612       -1.72121246104517
C            4.78348832747904        1.39812124522040       -1.25087714059576
C            6.13724513095505        1.80122809934509       -1.69441191702009
O            4.62993989024869        0.51016292256047       -0.25342016451033
N           -2.03256846075053       -1.59525454381956        1.67535591237245
C           -3.28724743023902       -1.36912132431043        1.31513076360803
O           -4.27514193502412       -1.87422539114956        1.90136859311683
C           -3.62026988189788       -0.43410524498779        0.11040926201303
C           -4.22427918050900       -1.31425245729793       -1.00996715955241
O           -4.64560576602788        0.46771506952418        0.57707652961567
H           -1.99019854963894        3.67484051977779       -2.50161616892003
H           -0.33435215569615        3.19906979019537       -2.95726159348835
H           -1.73533338639564        2.38346115385555       -3.69794553006006
H            1.45365903426687       -1.14145275981087        3.43163389957057
H            0.37307996728045        0.23479806027880        3.14215525536198
H           -0.30369700984529       -1.34404952876563        3.58644856844503
H            1.57044710992391       -3.03019823989421        1.81318478473044
H           -0.18663740413828       -3.28584427115113        1.85190603530015
H            0.63458478377294       -2.99033617834543        0.30735646793641
H            0.86698922842454        0.14792190308904        0.04077687837510
H            6.69710559211624        0.92988870700167       -2.03226367910263
H            6.05460104453427        2.51690677210930       -2.50800805379470
H            6.68519543326677        2.25327753441026       -0.86797184824426
H           -3.46426650481669       -1.99126899485362       -1.40117302963873
H           -4.59348738869161       -0.68338711598663       -1.81908555018214
H           -5.05338494781111       -1.90085048679550       -0.61273271095691
H           -5.19616737926107       -0.04543145703231        1.19013016678425

          :  Hamiltonian                  GFN1-xTB          :
         :: total energy             -83.635468262189 Eh    ::
         :: gradient norm              0.000752678904 Eh/a0 ::
         :: HOMO-LUMO gap              0.153205587471 eV    ::
         :: SCC energy               -84.368754156314 Eh    ::
         :: -> Gsolv                  -0.280537530526 Eh    ::
         :: repulsion energy           0.759195653391 Eh    ::

    * Orbital Energies and Occupations

         #    Occupation            Energy/Eh            Energy/eV
      -------------------------------------------------------------
         1        2.0000           -0.8421754             -22.9168
       ...           ...                  ...                  ...
        56        2.0000           -0.4384966             -11.9321
        57        2.0000           -0.4358660             -11.8605
        58        2.0000           -0.4288648             -11.6700
        59        2.0000           -0.4243223             -11.5464
        60        2.0000           -0.4228355             -11.5059
        61        2.0000           -0.4142533             -11.2724
        62        2.0000           -0.4105067             -11.1705
        63        2.0000           -0.3946435             -10.7388
        64        2.0000           -0.3835560             -10.4371
        65        2.0000           -0.3610937              -9.8259
        66        2.0000           -0.3559271              -9.6853
        67        2.0000           -0.3290834              -8.9548
        68        1.9018           -0.2902978              -7.8994 (HOMO)
        69        0.0982           -0.2846676              -7.7462 (LUMO)
        70                         -0.2393451              -6.5129
        71                         -0.2029069              -5.5214
        72                         -0.1705822              -4.6418
        73                         -0.1361886              -3.7059
        74                         -0.1353463              -3.6830
        75                         -0.1135455              -3.0897
        76                         -0.1052368              -2.8636
        77                         -0.0946618              -2.5759
        78                         -0.0930439              -2.5319
        79                         -0.0737084              -2.0057
       ...                                ...                  ...
       134                          0.7244250              19.7126
      -------------------------------------------------------------
                  HL-Gap            0.0056302 Eh            0.1532 eV

Wiberg/Mayer (AO) data.
largest (>0.10) Wiberg bond orders for each atom

     #   Z sym  total        # sym  WBO       # sym  WBO       # sym  WBO
 ---------------------------------------------------------------------------
     1   6 C    3.926 --    27 H    0.987    26 H    0.980    28 H    0.980
                             2 O    0.960
     2   8 O    2.046 --     1 C    0.960     3 C    0.909
     3   6 C    3.847 --     4 O    1.425     5 C    1.381     2 O    0.909
     4   8 O    1.737 --     3 C    1.425     5 C    0.121
     5   6 C    3.813 --     3 C    1.381     6 N    1.141    23 C    0.983
                             4 O    0.121
     6   7 N    3.041 --     7 C    1.572     5 C    1.141
     7   6 C    3.932 --     6 N    1.572    20 N    1.176     8 C    0.963
     8   6 C    3.920 --    10 C    0.986     9 C    0.984     7 C    0.963
                            11 N    0.918
     9   6 C    3.992 --    30 H    0.987    29 H    0.985    31 H    0.985
                             8 C    0.984
    10   6 C    3.992 --    34 H    0.987     8 C    0.986    32 H    0.985
                            33 H    0.984
    11   7 N    3.369 --    12 C    1.296     8 C    0.918    35 H    0.874
                            13 O    0.181
    12   6 C    3.899 --    13 O    1.527    11 N    1.296    14 C    0.999
    13   8 O    1.834 --    12 C    1.527    11 N    0.181
    14   6 C    3.822 --    15 N    1.584    19 O    1.042    12 C    0.999
    15   7 N    2.958 --    14 C    1.584    16 N    1.187
    16   7 N    2.980 --    17 C    1.622    15 N    1.187
    17   6 C    3.864 --    16 N    1.622    19 O    1.074    18 C    1.028
    18   6 C    3.990 --    17 C    1.028    37 H    0.984    36 H    0.967
                            38 H    0.967
    19   8 O    2.292 --    17 C    1.074    14 C    1.042
    20   7 N    2.924 --    21 C    1.391     7 C    1.176    22 O    0.134
    21   6 C    3.902 --    22 O    1.464    20 N    1.391    23 C    0.910
    22   8 O    1.768 --    21 C    1.464    20 N    0.134
    23   6 C    3.897 --     5 C    0.983    24 C    0.970    25 O    0.916
                            21 C    0.910
    24   6 C    3.991 --    39 H    0.989    41 H    0.986    40 H    0.984
                            23 C    0.970
    25   8 O    1.871 --    23 C    0.916    42 H    0.867
    26   1 H    1.023 --     1 C    0.980
    27   1 H    1.022 --     1 C    0.987
    28   1 H    1.024 --     1 C    0.980
    29   1 H    1.014 --     9 C    0.985
    30   1 H    1.009 --     9 C    0.987
    31   1 H    1.021 --     9 C    0.985
    32   1 H    1.014 --    10 C    0.985
    33   1 H    1.024 --    10 C    0.984
    34   1 H    1.009 --    10 C    0.987
    35   1 H    0.996 --    11 N    0.874
    36   1 H    0.999 --    18 C    0.967
    37   1 H    1.001 --    18 C    0.984
    38   1 H    0.999 --    18 C    0.967
    39   1 H    1.015 --    24 C    0.989
    40   1 H    1.026 --    24 C    0.984
    41   1 H    1.018 --    24 C    0.986
    42   1 H    0.914 --    25 O    0.867
 ---------------------------------------------------------------------------

           -------------------------------------------------
          | TOTAL ENERGY              -83.635468262189 Eh   |
          | GRADIENT NORM               0.000752678904 Eh/α |
          | HOMO-LUMO GAP               0.153205587471 eV   |
           -------------------------------------------------

 * finished run on 2023/06/20 at 18:04:28.193
