   * xtb version 6.5.1 (579679a) compiled by 'ehlert@majestix' on 2022-07-11
          program call               : /lustre/hpc/kemi/ree/PhD/git/ReactivityQM/dep/xtb-6.5.1/bin/xtb --gfn 1 /lustre/hpc/kemi/ree/PhD/git/ReactivityQM/calculations/RaltegravirCLI/reac02prodE11/conf12/RaltegravirCLI_reac02prodE11_conf12_gfn1.xyz --opt --vfukui --chrg -1 --uhf 0 --alpb DMSO

   ID    Z sym.   atoms
    1    6 C      1, 3-6, 9, 10, 13-17, 19-21, 23, 24
    2    7 N      2, 7, 8, 12
    3    8 O      11, 22, 25
    4    9 F      18
    5    1 H      26-47

      * Solvation model:               ALPB
        Solvent                        DMSO
        Solvent mass                       7.8130E+01 g/mol
          :  Hamiltonian                  GFN1-xTB          :
 * total energy  :   -80.1931652 Eh     change       -0.1480771E-10 Eh
 * total energy  :   -80.2022090 Eh     change       -0.9043763E-02 Eh
 * total energy  :   -80.2051176 Eh     change       -0.2908621E-02 Eh
 * total energy  :   -80.2059836 Eh     change       -0.8660328E-03 Eh
 * total energy  :   -80.2071550 Eh     change       -0.1171337E-02 Eh
 * total energy  :   -80.2087050 Eh     change       -0.1550065E-02 Eh
 * total energy  :   -80.2053597 Eh     change        0.3345377E-02 Eh
 * total energy  :   -80.2111628 Eh     change       -0.5803103E-02 Eh
 * total energy  :   -80.2126650 Eh     change       -0.1502283E-02 Eh
 * total energy  :   -80.2153748 Eh     change       -0.2709716E-02 Eh
 * total energy  :   -80.2341603 Eh     change       -0.4005856E-04 Eh
 * total energy  :   -80.2341946 Eh     change       -0.3436308E-04 Eh
 * total energy  :   -80.2342106 Eh     change       -0.1600253E-04 Eh
 * total energy  :   -80.2342352 Eh     change       -0.2457964E-04 Eh
 * total energy  :   -80.2342504 Eh     change       -0.1514241E-04 Eh
 * total energy  :   -80.2342638 Eh     change       -0.1341712E-04 Eh
 * total energy  :   -80.2342732 Eh     change       -0.9413454E-05 Eh
 * total energy  :   -80.2342792 Eh     change       -0.5996595E-05 Eh
 * total energy  :   -80.2342839 Eh     change       -0.4698389E-05 Eh
   *** GEOMETRY OPTIMIZATION CONVERGED AFTER 50 ITERATIONS ***

 final structure:
================
47
 xtb: 6.5.1 (579679a)
C           -3.88294088776704        1.53194635265585        0.37551284855186
N           -2.59290136500026        0.87541814975111        0.57251479041221
C           -2.21786936749151       -0.27061174615831       -0.13984292241814
C           -3.21840168288939       -1.06380475474401       -0.98111883766945
C           -2.44365304879574       -2.01428681142647       -1.91229213248965
C           -4.11910026574925       -1.89880535027721       -0.05721208992776
N           -4.06023428576063       -0.18042934323070       -1.79257811451975
N           -1.05739943531823       -0.79812170866028       -0.01197173979617
C           -0.09611474531313       -0.26097939308008        0.87285496475027
C            1.04655211148274       -1.11732242037799        1.11779884937174
O            1.23691430891138       -2.20722475567947        0.55395610061606
N            1.93332196305777       -0.68012715726508        2.08978922563245
C            3.25851651364176       -1.27675031841743        2.14294233662733
C            4.17038462789262       -0.66103590898408        1.10050322496586
C            5.01938974813584        0.38919395690977        1.44235179773293
C            5.83635100827046        0.98342231530224        0.48929053297273
C            5.78063141308873        0.50620950935641       -0.80673108212453
F            6.57250803532585        1.07292599373185       -1.73857351390833
C            4.95024766033667       -0.53351010204325       -1.18441916704407
C            4.14228944961669       -1.11499870094315       -0.21767908810580
C           -0.28129372033371        1.00803091591181        1.39928561631140
O            0.41035122410652        1.62169531553277        2.25531624627245
C           -1.48673991858204        1.80136566963113        0.82836625900954
C           -1.05072305241999        2.53239160923941       -0.46335791699760
O           -1.86664753830398        2.74780320722092        1.79579335028241
H           -3.95118839285895        2.02908030898831       -0.59729732698919
H           -4.68847408222098        0.80441500027574        0.45039238050761
H           -4.01714774804021        2.27550692290784        1.16374358561492
H           -3.14282990414743       -2.57077419538405       -2.53476111573278
H           -1.77581863540903       -1.44262892224880       -2.55626560453416
H           -1.84681097936234       -2.71615992815147       -1.32931185507973
H           -4.72237834955064       -1.26075968541257        0.58703802497009
H           -4.79038893757673       -2.51807702498622       -0.65161526777267
H           -3.50697354428279       -2.54844656802100        0.56877002233691
H           -4.80274557253288       -0.72320707341267       -2.20990179950705
H           -3.51115716568776        0.20443748753910       -2.55146148636252
H            1.90082982401104        0.30620451909446        2.32818698220552
H            3.66982767127376       -1.11560929739851        3.14376499750794
H            3.16087555306492       -2.35430786630992        1.97145845985571
H            5.05359699648421        0.74574585030063        2.46546447846541
H            6.50382870956037        1.79546049954629        0.74535690760582
H            4.94398735422620       -0.87888910791553       -2.21011762634522
H            3.48320425462813       -1.93275279689126       -0.49064117036722
H           -1.11818850435547        2.77580576638228        2.43137156051477
H           -0.81580474043167        1.80981999176682       -1.24300164469624
H           -0.16668513291017        3.12914141775942       -0.24487312156309
H           -1.84300042401231        3.19360017761400       -0.80910791914095

          :  Hamiltonian                  GFN1-xTB          :
         :: total energy             -80.234283886594 Eh    ::
         :: gradient norm              0.000645701464 Eh/a0 ::
         :: HOMO-LUMO gap              1.940276068673 eV    ::
         :: SCC energy               -81.087991136391 Eh    ::
         :: -> Gsolv                  -0.103585439379 Eh    ::
         :: repulsion energy           0.884832863074 Eh    ::

    * Orbital Energies and Occupations

         #    Occupation            Energy/Eh            Energy/eV
      -------------------------------------------------------------
         1        2.0000           -0.8530853             -23.2136
       ...           ...                  ...                  ...
        56        2.0000           -0.4598005             -12.5118
        57        2.0000           -0.4568595             -12.4318
        58        2.0000           -0.4449051             -12.1065
        59        2.0000           -0.4404076             -11.9841
        60        2.0000           -0.4381417             -11.9224
        61        2.0000           -0.4246587             -11.5556
        62        2.0000           -0.4088862             -11.1264
        63        2.0000           -0.4028278             -10.9615
        64        2.0000           -0.3945279             -10.7357
        65        2.0000           -0.3878624             -10.5543
        66        2.0000           -0.3792956             -10.3212
        67        2.0000           -0.3665096              -9.9732
        68        2.0000           -0.3314531              -9.0193 (HOMO)
        69                         -0.2601492              -7.0790 (LUMO)
        70                         -0.2524769              -6.8702
        71                         -0.2259408              -6.1482
        72                         -0.2075582              -5.6479
        73                         -0.1320261              -3.5926
        74                         -0.1151612              -3.1337
        75                         -0.1097077              -2.9853
        76                         -0.1062801              -2.8920
        77                         -0.1038774              -2.8266
        78                         -0.1020054              -2.7757
        79                         -0.0960411              -2.6134
       ...                                ...                  ...
       144                          0.7021901              19.1076
      -------------------------------------------------------------
                  HL-Gap            0.0713038 Eh            1.9403 eV

Wiberg/Mayer (AO) data.
largest (>0.10) Wiberg bond orders for each atom

     #   Z sym  total        # sym  WBO       # sym  WBO       # sym  WBO
 ---------------------------------------------------------------------------
     1   6 C    3.965 --    28 H    0.983    27 H    0.982    26 H    0.980
                             2 N    0.960
     2   7 N    3.238 --     3 C    1.087     1 C    0.960    23 C    0.931
                             8 N    0.138
     3   6 C    3.941 --     8 N    1.675     2 N    1.087     4 C    0.972
     4   6 C    3.964 --     5 C    0.991     6 C    0.988     7 N    0.976
                             3 C    0.972
     5   6 C    3.996 --     4 C    0.991    29 H    0.987    30 H    0.985
                            31 H    0.982
     6   6 C    3.995 --     4 C    0.988    34 H    0.986    33 H    0.985
                            32 H    0.981
     7   7 N    2.978 --     4 C    0.976    36 H    0.948    35 H    0.948
     8   7 N    3.016 --     3 C    1.675     9 C    1.059     2 N    0.138
     9   6 C    3.901 --    21 C    1.391    10 C    1.141     8 N    1.059
                            22 O    0.125
    10   6 C    3.900 --    11 O    1.504     9 C    1.141    12 N    1.134
    11   8 O    1.814 --    10 C    1.504    12 N    0.115
    12   7 N    3.226 --    10 C    1.134    13 C    0.962    37 H    0.893
                            11 O    0.115
    13   6 C    3.969 --    14 C    0.993    38 H    0.979    39 H    0.972
                            12 N    0.962
    14   6 C    3.987 --    15 C    1.420    20 C    1.413    13 C    0.993
    15   6 C    3.994 --    16 C    1.439    14 C    1.420    40 H    0.972
                            19 C    0.109
    16   6 C    3.992 --    15 C    1.439    17 C    1.405    41 H    0.970
                            20 C    0.111
    17   6 C    3.856 --    16 C    1.405    19 C    1.400    18 F    0.915
    18   9 F    1.040 --    17 C    0.915
    19   6 C    3.992 --    20 C    1.446    17 C    1.400    42 H    0.971
                            15 C    0.109
    20   6 C    3.992 --    19 C    1.446    14 C    1.413    43 H    0.968
                            16 C    0.111
    21   6 C    3.934 --    22 O    1.441     9 C    1.391    23 C    0.915
    22   8 O    1.849 --    21 C    1.441     9 C    0.125
    23   6 C    3.883 --    24 C    0.966    25 O    0.964     2 N    0.931
                            21 C    0.915
    24   6 C    3.995 --    45 H    0.987    46 H    0.986    47 H    0.984
                            23 C    0.966
    25   8 O    1.898 --    23 C    0.964    44 H    0.822
    26   1 H    1.024 --     1 C    0.980
    27   1 H    1.029 --     1 C    0.982
    28   1 H    1.021 --     1 C    0.983
    29   1 H    1.006 --     5 C    0.987
    30   1 H    1.014 --     5 C    0.985
    31   1 H    1.024 --     5 C    0.982
    32   1 H    1.009 --     6 C    0.981
    33   1 H    1.003 --     6 C    0.985
    34   1 H    1.008 --     6 C    0.986
    35   1 H    0.963 --     7 N    0.948
    36   1 H    0.967 --     7 N    0.948
    37   1 H    0.969 --    12 N    0.893
    38   1 H    1.010 --    13 C    0.979
    39   1 H    1.020 --    13 C    0.972
    40   1 H    1.001 --    15 C    0.972
    41   1 H    0.999 --    16 C    0.970
    42   1 H    1.000 --    19 C    0.971
    43   1 H    1.017 --    20 C    0.968
    44   1 H    0.890 --    25 O    0.822
    45   1 H    1.007 --    24 C    0.987
    46   1 H    1.009 --    24 C    0.986
    47   1 H    1.008 --    24 C    0.984
 ---------------------------------------------------------------------------

           -------------------------------------------------
          | TOTAL ENERGY              -80.234283886594 Eh   |
          | GRADIENT NORM               0.000645701464 Eh/α |
          | HOMO-LUMO GAP               1.940276068673 eV   |
           -------------------------------------------------

 * finished run on 2023/06/20 at 15:13:44.860
