                         Program Version 5.0.1 -  RELEASE  -
|  1> # ORCA input file
|  2> ! SP r2SCAN-3c CPCM
|  3>
|  4> %maxcore 1875.0
|  5> %pal nprocs 4 end
|  6> %cpcm smd true SMDsolvent "DMSO" end
|  7>
|  8> *xyz -1 1
|  9> C      -5.615170    0.148448   -1.383920
| 10> O      -4.262230    0.051783   -0.950955
| 11> C      -3.907153    0.849841    0.068665
| 12> O      -4.715683    1.609614    0.583395
| 13> C      -2.490537    0.707094    0.472359
| 14> N      -1.766461   -0.137836   -0.266620
| 15> C      -0.376230   -0.193884    0.000626
| 16> C       0.242473   -1.561697   -0.425382
| 17> C      -0.559761   -2.147498   -1.591923
| 18> C       0.314108   -2.559293    0.725325
| 19> N       1.586070   -1.209601   -0.902625
| 20> C       1.583654    0.222657   -1.224517
| 21> C       1.847941    0.442294   -2.719431
| 22> O       0.324384    0.740492   -0.886974
| 23> C       2.665733    0.937241   -0.431858
| 24> N       3.199153    2.081030   -0.708504
| 25> N       4.110239    2.342468    0.289032
| 26> C       4.064640    1.338732    1.100359
| 27> C       4.862560    1.129552    2.329934
| 28> O       3.166729    0.413236    0.705953
| 29> N      -0.034295    0.124265    1.364590
| 30> C      -0.684667    1.143420    2.058701
| 31> O      -0.136234    1.648154    3.049305
| 32> C      -2.002737    1.417865    1.569139
| 33> O      -2.749770    2.352618    2.274130
| 34> H      -6.296137   -0.122297   -0.572346
| 35> H      -5.732983   -0.544343   -2.215416
| 36> H      -5.840024    1.167603   -1.710903
| 37> H      -0.039438   -3.013214   -1.999065
| 38> H      -0.674902   -1.400370   -2.377080
| 39> H      -1.550476   -2.447862   -1.251467
| 40> H      -0.677956   -2.687021    1.159509
| 41> H       0.991447   -2.211723    1.503710
| 42> H       0.668007   -3.524726    0.366589
| 43> H       2.279591   -1.409077   -0.189540
| 44> H       1.886999    1.509078   -2.934068
| 45> H       2.794782   -0.017966   -2.990623
| 46> H       1.046873   -0.015459   -3.295481
| 47> H       4.211688    1.104126    3.204529
| 48> H       5.582646    1.937054    2.438150
| 49> H       5.389121    0.177584    2.273567
| 50> H       0.948043    0.039283    1.581031
| 51> H      -3.654039    2.378540    1.910101
| 52> **                         ****END OF INPUT****

CARTESIAN COORDINATES (ANGSTROEM)
---------------------------------
  C     -5.615170    0.148448   -1.383920
  O     -4.262230    0.051783   -0.950955
  C     -3.907153    0.849841    0.068665
  O     -4.715683    1.609614    0.583395
  C     -2.490537    0.707094    0.472359
  N     -1.766461   -0.137836   -0.266620
  C     -0.376230   -0.193884    0.000626
  C      0.242473   -1.561697   -0.425382
  C     -0.559761   -2.147498   -1.591923
  C      0.314108   -2.559293    0.725325
  N      1.586070   -1.209601   -0.902625
  C      1.583654    0.222657   -1.224517
  C      1.847941    0.442294   -2.719431
  O      0.324384    0.740492   -0.886974
  C      2.665733    0.937241   -0.431858
  N      3.199153    2.081030   -0.708504
  N      4.110239    2.342468    0.289032
  C      4.064640    1.338732    1.100359
  C      4.862560    1.129552    2.329934
  O      3.166729    0.413236    0.705953
  N     -0.034295    0.124265    1.364590
  C     -0.684667    1.143420    2.058701
  O     -0.136234    1.648154    3.049305
  C     -2.002737    1.417865    1.569139
  O     -2.749770    2.352618    2.274130
  H     -6.296137   -0.122297   -0.572346
  H     -5.732983   -0.544343   -2.215416
  H     -5.840024    1.167603   -1.710903
  H     -0.039438   -3.013214   -1.999065
  H     -0.674902   -1.400370   -2.377080
  H     -1.550476   -2.447862   -1.251467
  H     -0.677956   -2.687021    1.159509
  H      0.991447   -2.211723    1.503710
  H      0.668007   -3.524726    0.366589
  H      2.279591   -1.409077   -0.189540
  H      1.886999    1.509078   -2.934068
  H      2.794782   -0.017966   -2.990623
  H      1.046873   -0.015459   -3.295481
  H      4.211688    1.104126    3.204529
  H      5.582646    1.937054    2.438150
  H      5.389121    0.177584    2.273567
  H      0.948043    0.039283    1.581031
  H     -3.654039    2.378540    1.910101

 Total Charge           Charge          ....   -1
 Multiplicity           Mult            ....    1
 Number of Electrons    NEL             ....  186
 Basis Dimension        Dim             ....  620

ORBITAL ENERGIES
----------------

  NO   OCC          E(Eh)            E(eV)
   0   2.0000     -19.056073      -518.5421
   1   2.0000     -18.991406      -516.7824
   2   2.0000     -18.946967      -515.5732
   3   2.0000     -18.944540      -515.5071
   4   2.0000     -18.938220      -515.3352
   5   2.0000     -18.887935      -513.9668
   6   2.0000     -14.188399      -386.0860
   7   2.0000     -14.187311      -386.0563
   8   2.0000     -14.158245      -385.2654
   9   2.0000     -14.146899      -384.9567
  10   2.0000     -14.097883      -383.6229
  11   2.0000     -10.152235      -276.2564
  12   2.0000     -10.135541      -275.8021
  13   2.0000     -10.130883      -275.6753
  14   2.0000     -10.127653      -275.5875
  15   2.0000     -10.122999      -275.4608
  16   2.0000     -10.100136      -274.8387
  17   2.0000     -10.070761      -274.0393
  18   2.0000     -10.061318      -273.7824
  19   2.0000     -10.056801      -273.6595
  20   2.0000     -10.056122      -273.6410
  21   2.0000     -10.040903      -273.2269
  22   2.0000     -10.013636      -272.4849
  23   2.0000     -10.011430      -272.4249
  24   2.0000     -10.000864      -272.1374
  25   2.0000      -1.143697       -31.1216
  26   2.0000      -1.067691       -29.0534
  27   2.0000      -1.022270       -27.8174
  28   2.0000      -0.990972       -26.9657
  29   2.0000      -0.974771       -26.5249
  30   2.0000      -0.960946       -26.1487
  31   2.0000      -0.959770       -26.1167
  32   2.0000      -0.890020       -24.2187
  33   2.0000      -0.865012       -23.5382
  34   2.0000      -0.822595       -22.3840
  35   2.0000      -0.822211       -22.3735
  36   2.0000      -0.756627       -20.5889
  37   2.0000      -0.710367       -19.3301
  38   2.0000      -0.700900       -19.0725
  39   2.0000      -0.686352       -18.6766
  40   2.0000      -0.684139       -18.6164
  41   2.0000      -0.648773       -17.6540
  42   2.0000      -0.639961       -17.4142
  43   2.0000      -0.621422       -16.9098
  44   2.0000      -0.596990       -16.2449
  45   2.0000      -0.584212       -15.8972
  46   2.0000      -0.555999       -15.1295
  47   2.0000      -0.533948       -14.5295
  48   2.0000      -0.530010       -14.4223
  49   2.0000      -0.511982       -13.9317
  50   2.0000      -0.498634       -13.5685
  51   2.0000      -0.486383       -13.2352
  52   2.0000      -0.480183       -13.0665
  53   2.0000      -0.467465       -12.7204
  54   2.0000      -0.462608       -12.5882
  55   2.0000      -0.444764       -12.1027
  56   2.0000      -0.440720       -11.9926
  57   2.0000      -0.440510       -11.9869
  58   2.0000      -0.428167       -11.6510
  59   2.0000      -0.407897       -11.0994
  60   2.0000      -0.406228       -11.0540
  61   2.0000      -0.398162       -10.8345
  62   2.0000      -0.390030       -10.6133
  63   2.0000      -0.383694       -10.4408
  64   2.0000      -0.380704       -10.3595
  65   2.0000      -0.377018       -10.2592
  66   2.0000      -0.375119       -10.2075
  67   2.0000      -0.364889        -9.9291
  68   2.0000      -0.359599        -9.7852
  69   2.0000      -0.357025        -9.7152
  70   2.0000      -0.356119        -9.6905
  71   2.0000      -0.350689        -9.5427
  72   2.0000      -0.343754        -9.3540
  73   2.0000      -0.333713        -9.0808
  74   2.0000      -0.332408        -9.0453
  75   2.0000      -0.325040        -8.8448
  76   2.0000      -0.315942        -8.5972
  77   2.0000      -0.312694        -8.5088
  78   2.0000      -0.308764        -8.4019
  79   2.0000      -0.303553        -8.2601
  80   2.0000      -0.302016        -8.2183
  81   2.0000      -0.291507        -7.9323
  82   2.0000      -0.273576        -7.4444
  83   2.0000      -0.263794        -7.1782
  84   2.0000      -0.259503        -7.0614
  85   2.0000      -0.257470        -7.0061
  86   2.0000      -0.251877        -6.8539
  87   2.0000      -0.244082        -6.6418
  88   2.0000      -0.218501        -5.9457
  89   2.0000      -0.206096        -5.6081
  90   2.0000      -0.202504        -5.5104
  91   2.0000      -0.192846        -5.2476
  92   2.0000      -0.133547        -3.6340
  93   0.0000      -0.063140        -1.7181
  94   0.0000      -0.040816        -1.1107
  95   0.0000      -0.005141        -0.1399
  96   0.0000       0.035357         0.9621
  97   0.0000       0.046199         1.2571

MULLIKEN ATOMIC CHARGES
-----------------------
   0 C :   -0.322034
   1 O :   -0.180661
   2 C :    0.187011
   3 O :   -0.476813
   4 C :    0.134325
   5 N :   -0.039035
   6 C :   -0.137989
   7 C :    0.088069
   8 C :   -0.612468
   9 C :   -0.561673
  10 N :   -0.489820
  11 C :    0.034176
  12 C :   -0.598807
  13 O :   -0.100484
  14 C :    0.272864
  15 N :   -0.191454
  16 N :   -0.305038
  17 C :    0.361211
  18 C :   -0.641817
  19 O :   -0.068763
  20 N :   -0.037971
  21 C :   -0.036311
  22 O :   -0.433861
  23 C :   -0.069888
  24 O :   -0.406939
  25 H :    0.172536
  26 H :    0.172287
  27 H :    0.172770
  28 H :    0.162928
  29 H :    0.176713
  30 H :    0.175716
  31 H :    0.186976
  32 H :    0.167983
  33 H :    0.175207
  34 H :    0.321470
  35 H :    0.174190
  36 H :    0.185208
  37 H :    0.181421
  38 H :    0.199078
  39 H :    0.202251
  40 H :    0.195150
  41 H :    0.266306
  42 H :    0.345983
Sum of atomic charges:   -1.0000000

LOEWDIN ATOMIC CHARGES
----------------------
   0 C :   -0.042509
   1 O :   -0.577121
   2 C :    0.412031
   3 O :   -0.480419
   4 C :    0.180666
   5 N :   -0.654362
   6 C :    0.406059
   7 C :    0.089499
   8 C :   -0.365341
   9 C :   -0.362380
  10 N :   -0.683382
  11 C :    0.295229
  12 C :   -0.334984
  13 O :   -0.555934
  14 C :    0.404875
  15 N :   -0.366405
  16 N :   -0.377874
  17 C :    0.363046
  18 C :   -0.320987
  19 O :   -0.418986
  20 N :   -0.540856
  21 C :    0.335414
  22 O :   -0.525203
  23 C :    0.170666
  24 O :   -0.530318
  25 H :    0.179165
  26 H :    0.183158
  27 H :    0.179702
  28 H :    0.157871
  29 H :    0.169539
  30 H :    0.167444
  31 H :    0.172669
  32 H :    0.168485
  33 H :    0.165237
  34 H :    0.275895
  35 H :    0.171981
  36 H :    0.172919
  37 H :    0.172004
  38 H :    0.189417
  39 H :    0.189415
  40 H :    0.187941
  41 H :    0.283574
  42 H :    0.293161

  Mayer bond orders larger than 0.100000
B(  0-C ,  1-O ) :   0.8359 B(  0-C , 25-H ) :   0.9584 B(  0-C , 26-H ) :   0.9640
B(  0-C , 27-H ) :   0.9584 B(  1-O ,  2-C ) :   1.1398 B(  2-C ,  3-O ) :   1.7357
B(  2-C ,  4-C ) :   1.0701 B(  4-C ,  5-N ) :   1.1978 B(  4-C , 23-C ) :   1.1917
B(  5-N ,  6-C ) :   1.3014 B(  5-N ,  7-C ) :  -0.1144 B(  5-N , 23-C ) :   0.1016
B(  6-C ,  7-C ) :   0.6526 B(  6-C , 10-N ) :  -0.1808 B(  6-C , 13-O ) :   0.9515
B(  6-C , 20-N ) :   0.9535 B(  7-C ,  8-C ) :   1.0110 B(  7-C ,  9-C ) :   0.8996
B(  7-C , 10-N ) :   0.8975 B(  7-C , 11-C ) :   0.1217 B(  8-C , 28-H ) :   0.9756
B(  8-C , 29-H ) :   0.9611 B(  8-C , 30-H ) :   0.9751 B(  9-C , 31-H ) :   0.9756
B(  9-C , 32-H ) :   0.9663 B(  9-C , 33-H ) :   0.9670 B( 10-N , 11-C ) :   0.8530
B( 10-N , 34-H ) :   0.8653 B( 11-C , 12-C ) :   0.9284 B( 11-C , 13-O ) :   0.7993
B( 11-C , 14-C ) :   1.0555 B( 12-C , 35-H ) :   0.9689 B( 12-C , 36-H ) :   0.9691
B( 12-C , 37-H ) :   0.9667 B( 13-O , 20-N ) :  -0.1303 B( 14-C , 15-N ) :   1.7623
B( 14-C , 17-C ) :   0.1088 B( 14-C , 19-O ) :   1.1002 B( 15-N , 16-N ) :   1.2195
B( 16-N , 17-C ) :   1.6802 B( 17-C , 18-C ) :   0.8236 B( 17-C , 19-O ) :   1.0378
B( 18-C , 38-H ) :   0.9410 B( 18-C , 39-H ) :   0.9918 B( 18-C , 40-H ) :   0.9493
B( 20-N , 21-C ) :   1.0554 B( 20-N , 41-H ) :   0.8840 B( 21-C , 22-O ) :   2.0725
B( 21-C , 23-C ) :   1.0711 B( 23-C , 24-O ) :   1.0579 B( 24-O , 42-H ) :   0.7973

Dispersion correction           -0.020653887
FINAL SINGLE POINT ENERGY     -1269.348286917731

DIPOLE MOMENT
-------------
                                X             Y             Z
Electronic contribution:     -0.91468      13.08368       7.13356
Nuclear contribution   :      2.80206     -16.47198      -8.31910
                        -----------------------------------------
Total Dipole Moment    :      1.88737      -3.38829      -1.18554
                        -----------------------------------------
Magnitude (a.u.)       :      4.05564
Magnitude (Debye)      :     10.30862

Rotational constants in cm-1:     0.012964     0.005062     0.004349
Rotational constants in MHz :   388.658580   151.759901   130.375266

                             ****ORCA TERMINATED NORMALLY****
TOTAL RUN TIME: 0 days 0 hours 2 minutes 33 seconds 454 msec
