   * xtb version 6.5.1 (579679a) compiled by 'ehlert@majestix' on 2022-07-11
          program call               : /lustre/hpc/kemi/ree/PhD/git/ReactivityQM/dep/xtb-6.5.1/bin/xtb --gfn 1 /lustre/hpc/kemi/ree/PhD/git/ReactivityQM/calculations/R02/reac01prodE01/conf04/R02_reac01prodE01_conf04_gfn1.xyz --opt --vfukui --chrg -1 --uhf 0 --alpb DMSO

   ID    Z sym.   atoms
    1    6 C      1, 3, 5, 7-10, 12, 13, 15, 18, 19, 22, 24
    2    8 O      2, 4, 14, 20, 23, 25
    3    7 N      6, 11, 16, 17, 21
    4    1 H      26-43

      * Solvation model:               ALPB
        Solvent                        DMSO
        Solvent mass                       7.8130E+01 g/mol
          :  Hamiltonian                  GFN1-xTB          :
 * total energy  :   -83.8527333 Eh     change       -0.5479706E-10 Eh
 * total energy  :   -83.8663062 Eh     change       -0.1357287E-01 Eh
 * total energy  :   -83.8709600 Eh     change       -0.4653831E-02 Eh
 * total energy  :   -83.8719534 Eh     change       -0.9933526E-03 Eh
 * total energy  :   -83.8726127 Eh     change       -0.6593474E-03 Eh
 * total energy  :   -83.8730859 Eh     change       -0.4732379E-03 Eh
 * total energy  :   -83.8735601 Eh     change       -0.4741782E-03 Eh
 * total energy  :   -83.8739606 Eh     change       -0.4005257E-03 Eh
 * total energy  :   -83.8742041 Eh     change       -0.2434255E-03 Eh
 * total energy  :   -83.8743774 Eh     change       -0.1733407E-03 Eh
 * total energy  :   -83.8966260 Eh     change       -0.9013135E-05 Eh
 * total energy  :   -83.8966367 Eh     change       -0.1073849E-04 Eh
 * total energy  :   -83.8966446 Eh     change       -0.7919704E-05 Eh
 * total energy  :   -83.8966531 Eh     change       -0.8509093E-05 Eh
 * total energy  :   -83.8966591 Eh     change       -0.5944394E-05 Eh
 * total energy  :   -83.8966636 Eh     change       -0.4476811E-05 Eh
 * total energy  :   -83.8966642 Eh     change       -0.6664959E-06 Eh
 * total energy  :   -83.8966693 Eh     change       -0.5015839E-05 Eh
 * total energy  :   -83.8966703 Eh     change       -0.1092141E-05 Eh
   *** GEOMETRY OPTIMIZATION CONVERGED AFTER 66 ITERATIONS ***

 final structure:
================
43
 xtb: 6.5.1 (579679a)
C           -5.61516974788925        0.14844761350648       -1.38392008024697
O           -4.26223000558068        0.05178321347262       -0.95095492735607
C           -3.90715256986553        0.84984138611723        0.06866481886158
O           -4.71568316214667        1.60961375698814        0.58339477253940
C           -2.49053711987467        0.70709434108262        0.47235872385830
N           -1.76646126406156       -0.13783586149101       -0.26662022180956
C           -0.37623010265072       -0.19388417843555        0.00062621871019
C            0.24247254453619       -1.56169729792643       -0.42538247684829
C           -0.55976073215185       -2.14749750250369       -1.59192273465220
C            0.31410778753851       -2.55929329598635        0.72532460019948
N            1.58606963178559       -1.20960060375996       -0.90262480292181
C            1.58365434092572        0.22265700014950       -1.22451673948083
C            1.84794054466988        0.44229431965896       -2.71943139050353
O            0.32438441100451        0.74049167391844       -0.88697420903761
C            2.66573276351230        0.93724061335744       -0.43185777962448
N            3.19915262594702        2.08103035952595       -0.70850384831549
N            4.11023879036136        2.34246778781526        0.28903198482634
C            4.06463966463658        1.33873232483575        1.10035884264486
C            4.86256030001397        1.12955180248706        2.32993428918574
O            3.16672910365382        0.41323621847575        0.70595326529413
N           -0.03429536645202        0.12426495825177        1.36458973777122
C           -0.68466672473037        1.14342012744215        2.05870141617389
O           -0.13623360954594        1.64815375646367        3.04930470368251
C           -2.00273693565195        1.41786530587087        1.56913895970474
O           -2.74977024882495        2.35261798360472        2.27412961604809
H           -6.29613687321596       -0.12229715040508       -0.57234613534046
H           -5.73298278960813       -0.54434299712139       -2.21541562281700
H           -5.84002410770410        1.16760301444439       -1.71090312577336
H           -0.03943822729242       -3.01321396100525       -1.99906528535849
H           -0.67490151958844       -1.40037013319012       -2.37707978056542
H           -1.55047604612833       -2.44786150707969       -1.25146708626927
H           -0.67795625245117       -2.68702125922844        1.15950875254645
H            0.99144693045726       -2.21172301136585        1.50370958532903
H            0.66800676977848       -3.52472580179058        0.36658876949114
H            2.27959054712037       -1.40907726479518       -0.18953973015510
H            1.88699922138007        1.50907810293752       -2.93406843332465
H            2.79478217741188       -0.01796563786417       -2.99062295388123
H            1.04687336363044       -0.01545862731472       -3.29548066317482
H            4.21168844998432        1.10412585441497        3.20452883217820
H            5.58264560513472        1.93705402577956        2.43815024093181
H            5.38912138483884        0.17758351449887        2.27356661602332
H            0.94804305782447        0.03928329189198        1.58103114255950
H           -3.65403861069568        2.37853974428071        1.91010113890550

          :  Hamiltonian                  GFN1-xTB          :
         :: total energy             -83.896670344839 Eh    ::
         :: gradient norm              0.000667349194 Eh/a0 ::
         :: HOMO-LUMO gap              1.472377504759 eV    ::
         :: SCC energy               -84.618423034434 Eh    ::
         :: -> Gsolv                  -0.116007325637 Eh    ::
         :: repulsion energy           0.750183014186 Eh    ::

    * Orbital Energies and Occupations

         #    Occupation            Energy/Eh            Energy/eV
      -------------------------------------------------------------
         1        2.0000           -0.8461322             -23.0244
       ...           ...                  ...                  ...
        56        2.0000           -0.4705816             -12.8052
        57        2.0000           -0.4634053             -12.6099
        58        2.0000           -0.4596644             -12.5081
        59        2.0000           -0.4489688             -12.2171
        60        2.0000           -0.4447893             -12.1033
        61        2.0000           -0.4381905             -11.9238
        62        2.0000           -0.4353082             -11.8453
        63        2.0000           -0.4306911             -11.7197
        64        2.0000           -0.4091285             -11.1330
        65        2.0000           -0.4029859             -10.9658
        66        2.0000           -0.3902959             -10.6205
        67        2.0000           -0.3784498             -10.2981
        68        2.0000           -0.3273174              -8.9068 (HOMO)
        69                         -0.2732085              -7.4344 (LUMO)
        70                         -0.2528901              -6.8815
        71                         -0.2363677              -6.4319
        72                         -0.1923924              -5.2353
        73                         -0.1341755              -3.6511
        74                         -0.1268019              -3.4505
        75                         -0.1194257              -3.2497
        76                         -0.1144453              -3.1142
        77                         -0.1072473              -2.9183
        78                         -0.1013156              -2.7569
        79                         -0.0715623              -1.9473
       ...                                ...                  ...
       136                          0.7322496              19.9255
      -------------------------------------------------------------
                  HL-Gap            0.0541089 Eh            1.4724 eV

Wiberg/Mayer (AO) data.
largest (>0.10) Wiberg bond orders for each atom

     #   Z sym  total        # sym  WBO       # sym  WBO       # sym  WBO
 ---------------------------------------------------------------------------
     1   6 C    3.889 --    27 H    0.987    26 H    0.980    28 H    0.980
                             2 O    0.914
     2   8 O    2.191 --     3 C    1.093     1 C    0.914     4 O    0.118
     3   6 C    3.821 --     4 O    1.597     2 O    1.093     5 C    1.027
     4   8 O    1.919 --     3 C    1.597     2 O    0.118
     5   6 C    3.971 --     6 N    1.369    24 C    1.355     3 C    1.027
     6   7 N    2.888 --     5 C    1.369     7 C    1.035    24 C    0.178
     7   6 C    3.879 --     6 N    1.035    21 N    0.958     8 C    0.933
                            14 O    0.843
     8   6 C    3.956 --    10 C    1.005     9 C    0.999    11 N    0.962
                             7 C    0.933
     9   6 C    3.997 --     8 C    0.999    29 H    0.987    31 H    0.985
                            30 H    0.982
    10   6 C    3.996 --     8 C    1.005    34 H    0.985    32 H    0.984
                            33 H    0.982
    11   7 N    2.994 --    12 C    0.963     8 C    0.962    35 H    0.934
    12   6 C    3.915 --    13 C    0.979    11 N    0.963    14 O    0.957
                            15 C    0.953
    13   6 C    3.994 --    37 H    0.987    36 H    0.985    38 H    0.983
                            12 C    0.979
    14   8 O    1.992 --    12 C    0.957     7 C    0.843
    15   6 C    3.865 --    16 N    1.666    20 O    1.057    12 C    0.953
    16   7 N    2.987 --    15 C    1.666    17 N    1.159
    17   7 N    2.978 --    18 C    1.650    16 N    1.159
    18   6 C    3.874 --    17 N    1.650    20 O    1.055    19 C    1.028
    19   6 C    3.990 --    18 C    1.028    40 H    0.984    41 H    0.968
                            39 H    0.965
    20   8 O    2.318 --    15 C    1.057    18 C    1.055
    21   7 N    3.227 --    22 C    1.093     7 C    0.958    42 H    0.913
                            23 O    0.112
    22   6 C    3.914 --    23 O    1.502    24 C    1.168    21 N    1.093
    23   8 O    1.803 --    22 C    1.502    21 N    0.112
    24   6 C    3.885 --     5 C    1.355    22 C    1.168    25 O    0.996
                             6 N    0.178
    25   8 O    1.967 --    24 C    0.996    43 H    0.825
    26   1 H    1.011 --     1 C    0.980
    27   1 H    1.014 --     1 C    0.987
    28   1 H    1.011 --     1 C    0.980
    29   1 H    1.010 --     9 C    0.987
    30   1 H    1.017 --     9 C    0.982
    31   1 H    1.022 --     9 C    0.985
    32   1 H    1.008 --    10 C    0.984
    33   1 H    1.007 --    10 C    0.982
    34   1 H    1.003 --    10 C    0.985
    35   1 H    0.966 --    11 N    0.934
    36   1 H    1.011 --    13 C    0.985
    37   1 H    1.009 --    13 C    0.987
    38   1 H    1.012 --    13 C    0.983
    39   1 H    0.999 --    19 C    0.965
    40   1 H    1.001 --    19 C    0.984
    41   1 H    0.999 --    19 C    0.968
    42   1 H    0.967 --    21 N    0.913
    43   1 H    0.889 --    25 O    0.825
 ---------------------------------------------------------------------------

           -------------------------------------------------
          | TOTAL ENERGY              -83.896670344839 Eh   |
          | GRADIENT NORM               0.000667349194 Eh/α |
          | HOMO-LUMO GAP               1.472377504759 eV   |
           -------------------------------------------------

 * finished run on 2023/06/20 at 14:52:22.874
