   * xtb version 6.5.1 (579679a) compiled by 'ehlert@majestix' on 2022-07-11
          program call               : /lustre/hpc/kemi/ree/PhD/git/ReactivityQM/dep/xtb-6.5.1/bin/xtb --gfn 1 /lustre/hpc/kemi/ree/PhD/git/ReactivityQM/calculations/R02methylcation/reac01prodN16/conf20/R02methylcation_reac01prodN16_conf20_gfn1.xyz --opt --vfukui --chrg 0 --uhf 0 --alpb DMSO

   ID    Z sym.   atoms
    1    6 C      1, 2, 5, 6, 9-12, 14, 15, 18-20, 22
    2    7 N      3, 4, 8, 13, 24
    3    8 O      7, 16, 17, 21, 23, 25
    4    1 H      26-42

      * Solvation model:               ALPB
        Solvent                        DMSO
        Solvent mass                       7.8130E+01 g/mol
          :  Hamiltonian                  GFN1-xTB          :
 * total energy  :   -82.9215107 Eh     change       -0.2066258E-10 Eh
 * total energy  :   -82.9385736 Eh     change       -0.1706283E-01 Eh
 * total energy  :   -82.9469260 Eh     change       -0.8352396E-02 Eh
 * total energy  :   -82.9489098 Eh     change       -0.1983821E-02 Eh
 * total energy  :   -82.9503040 Eh     change       -0.1394253E-02 Eh
 * total energy  :   -82.9510810 Eh     change       -0.7769919E-03 Eh
 * total energy  :   -82.9515757 Eh     change       -0.4947199E-03 Eh
 * total energy  :   -82.9519914 Eh     change       -0.4156365E-03 Eh
 * total energy  :   -82.9523209 Eh     change       -0.3295393E-03 Eh
 * total energy  :   -82.9525813 Eh     change       -0.2604277E-03 Eh
 * total energy  :   -82.9547137 Eh     change       -0.9555992E-05 Eh
 * total energy  :   -82.9547190 Eh     change       -0.5304346E-05 Eh
 * total energy  :   -82.9547243 Eh     change       -0.5309143E-05 Eh
 * total energy  :   -82.9547374 Eh     change       -0.1310228E-04 Eh
 * total energy  :   -82.9547418 Eh     change       -0.4398737E-05 Eh
 * total energy  :   -82.9547490 Eh     change       -0.7247119E-05 Eh
 * total energy  :   -82.9547542 Eh     change       -0.5223288E-05 Eh
 * total energy  :   -82.9547596 Eh     change       -0.5404300E-05 Eh
 * total energy  :   -82.9547628 Eh     change       -0.3196289E-05 Eh
   *** GEOMETRY OPTIMIZATION CONVERGED AFTER 46 ITERATIONS ***

 final structure:
================
42
 xtb: 6.5.1 (579679a)
C            7.12140223034795        0.52531580856585        1.82035651207294
C            5.85805992995870        0.00780182826629        1.25068417313417
N            5.43425426380908       -1.22038710393996        1.24593789864036
N            4.23254477165875       -1.21367663190039        0.60503830803717
C            3.99837441609571        0.01757253829819        0.26161231091759
C            2.80429072870982        0.51256811721431       -0.46827493068943
O            2.61490653780034        1.69472076475091       -0.71087354009020
N            1.98278350440947       -0.50300422207980       -0.79155446554624
C            0.77162000665580       -0.41103016865735       -1.62092179845957
C            0.41110416117713       -1.84148924772742       -2.02707711663256
C            1.03527758780497        0.43548659803101       -2.87284897329477
C           -0.37311236757876        0.18526654603189       -0.81548549607036
N           -1.45168735596402       -0.48707255788657       -0.67389396353874
C           -2.53475906116890        0.05362734112641        0.02034357660005
C           -3.59166098534491       -0.85393164715789        0.08500134291724
O           -3.78697801236325       -1.96474801531751       -0.30434276825294
O           -4.82485513791924       -0.26810830872488        0.93380680190784
C           -5.49299447155144       -1.32558898993892        1.64940401637086
C           -5.71510256654917        0.51290534797965        0.10663564199429
C           -2.49749970362140        1.37433234206452        0.57557458534781
O           -3.43344837793484        1.94386383249003        1.13900883482805
C           -1.17375955937932        2.10609072861795        0.42299543429685
O           -0.96277265851418        3.21147412726631        0.89205982993846
N           -0.21422316857483        1.44796873748953       -0.29455332488448
O            4.99352388113371        0.83591116920986        0.64675608985892
H            6.90808511658491        1.24411445197862        2.61148416404342
H            7.69578649292685        1.03508343290296        1.04720540841118
H            7.70384258442137       -0.29845393309290        2.22487682254779
H            2.27750955446120       -1.43309115460387       -0.53210216093069
H           -0.49034537711187       -1.83185155250054       -2.63743751116209
H            0.22323778627946       -2.44962253950708       -1.14331959621611
H            1.22508800547952       -2.28058482128411       -2.60053121159087
H            1.88885477921797        0.03143781465028       -3.41428573847097
H            1.23873461318731        1.47241986149621       -2.61556680159322
H            0.15734475044499        0.39983370376194       -3.51605514071043
H           -6.28889277162616       -0.87073943248652        2.23463876750851
H           -5.89942772013895       -2.05627703522452        0.94798194132323
H           -4.75362089717317       -1.78738747184571        2.30095606759395
H           -5.11156521994984        1.26785895106835       -0.39249703861075
H           -6.21549165010060       -0.13219871933635       -0.61696759429626
H           -6.43806290998480        0.98782349978429        0.76731409908451
H            0.67363626998752        1.92576501015265       -0.42569045634647

          :  Hamiltonian                  GFN1-xTB          :
         :: total energy             -82.954762846161 Eh    ::
         :: gradient norm              0.000572058651 Eh/a0 ::
         :: HOMO-LUMO gap              2.424333662904 eV    ::
         :: SCC energy               -83.745675097432 Eh    ::
         :: -> Gsolv                  -0.060246446571 Eh    ::
         :: repulsion energy           0.816683341393 Eh    ::

    * Orbital Energies and Occupations

         #    Occupation            Energy/Eh            Energy/eV
      -------------------------------------------------------------
         1        2.0000           -0.8813072             -23.9816
       ...           ...                  ...                  ...
        55        2.0000           -0.5070304             -13.7970
        56        2.0000           -0.5039224             -13.7124
        57        2.0000           -0.4988634             -13.5748
        58        2.0000           -0.4909433             -13.3592
        59        2.0000           -0.4838611             -13.1665
        60        2.0000           -0.4706078             -12.8059
        61        2.0000           -0.4671509             -12.7118
        62        2.0000           -0.4636966             -12.6178
        63        2.0000           -0.4539175             -12.3517
        64        2.0000           -0.4535287             -12.3411
        65        2.0000           -0.4412983             -12.0083
        66        2.0000           -0.4170493             -11.3485
        67        2.0000           -0.4096016             -11.1458 (HOMO)
        68                         -0.3205090              -8.7215 (LUMO)
        69                         -0.3127890              -8.5114
        70                         -0.2679831              -7.2922
        71                         -0.2578494              -7.0164
        72                         -0.2398724              -6.5273
        73                         -0.2009951              -5.4694
        74                         -0.1680586              -4.5731
        75                         -0.1528846              -4.1602
        76                         -0.1471494              -4.0041
        77                         -0.1435476              -3.9061
        78                         -0.1424518              -3.8763
       ...                                ...                  ...
       134                          0.7878992              21.4398
      -------------------------------------------------------------
                  HL-Gap            0.0890926 Eh            2.4243 eV

Wiberg/Mayer (AO) data.
largest (>0.10) Wiberg bond orders for each atom

     #   Z sym  total        # sym  WBO       # sym  WBO       # sym  WBO
 ---------------------------------------------------------------------------
     1   6 C    3.986 --     2 C    1.032    28 H    0.983    27 H    0.964
                            26 H    0.962
     2   6 C    3.870 --     3 N    1.603    25 O    1.084     1 C    1.032
     3   7 N    2.981 --     2 C    1.603     4 N    1.201
     4   7 N    3.017 --     5 C    1.608     3 N    1.201
     5   6 C    3.876 --     4 N    1.608    25 O    1.065     6 C    0.992
     6   6 C    3.917 --     7 O    1.570     8 N    1.268     5 C    0.992
     7   8 O    1.920 --     6 C    1.570     8 N    0.177
     8   7 N    3.350 --     6 C    1.268     9 C    0.915    29 H    0.894
                             7 O    0.177
     9   6 C    3.932 --    10 C    1.001    11 C    0.984    12 C    0.968
                             8 N    0.915
    10   6 C    3.992 --     9 C    1.001    32 H    0.985    31 H    0.983
                            30 H    0.982
    11   6 C    3.988 --    35 H    0.985     9 C    0.984    33 H    0.984
                            34 H    0.979
    12   6 C    3.935 --    13 N    1.659    24 N    1.115     9 C    0.968
    13   7 N    3.024 --    12 C    1.659    14 C    1.098
    14   6 C    3.918 --    15 C    1.302    20 C    1.193    13 N    1.098
                            16 O    0.111
    15   6 C    3.809 --    16 O    1.719    14 C    1.302    17 O    0.601
    16   8 O    2.044 --    15 C    1.719    14 C    0.111
    17   8 O    2.442 --    18 C    0.861    19 C    0.852    15 C    0.601
    18   6 C    3.833 --    38 H    0.979    37 H    0.979    36 H    0.979
                            17 O    0.861
    19   6 C    3.826 --    40 H    0.983    41 H    0.978    39 H    0.974
                            17 O    0.852
    20   6 C    3.922 --    21 O    1.594    14 C    1.193    22 C    0.944
    21   8 O    1.907 --    20 C    1.594
    22   6 C    3.889 --    23 O    1.624    24 N    1.173    20 C    0.944
    23   8 O    1.901 --    22 C    1.624    24 N    0.140
    24   7 N    3.443 --    22 C    1.173    12 C    1.115    42 H    0.860
                            23 O    0.140
    25   8 O    2.332 --     2 C    1.084     5 C    1.065
    26   1 H    0.996 --     1 C    0.962
    27   1 H    0.996 --     1 C    0.964
    28   1 H    0.998 --     1 C    0.983
    29   1 H    0.951 --     8 N    0.894
    30   1 H    1.009 --    10 C    0.982
    31   1 H    1.006 --    10 C    0.983
    32   1 H    0.999 --    10 C    0.985
    33   1 H    0.999 --    11 C    0.984
    34   1 H    1.009 --    11 C    0.979
    35   1 H    1.001 --    11 C    0.985
    36   1 H    1.000 --    18 C    0.979
    37   1 H    1.005 --    18 C    0.979
    38   1 H    1.001 --    18 C    0.979
    39   1 H    1.014 --    19 C    0.974
    40   1 H    0.998 --    19 C    0.983
    41   1 H    1.002 --    19 C    0.978
    42   1 H    0.938 --    24 N    0.860
 ---------------------------------------------------------------------------

           -------------------------------------------------
          | TOTAL ENERGY              -82.954762846161 Eh   |
          | GRADIENT NORM               0.000572058651 Eh/α |
          | HOMO-LUMO GAP               2.424333662904 eV   |
           -------------------------------------------------

 * finished run on 2023/06/21 at 17:58:22.760
