   * xtb version 6.5.1 (579679a) compiled by 'ehlert@majestix' on 2022-07-11
          program call               : /lustre/hpc/kemi/ree/PhD/git/ReactivityQM/dep/xtb-6.5.1/bin/xtb --gfn 1 /lustre/hpc/kemi/ree/PhD/git/ReactivityQM/calculations/R02deprot/reac01prodN10/conf19/R02deprot_reac01prodN10_conf19_gfn1.xyz --opt --vfukui --chrg 0 --uhf 0 --alpb DMSO

   ID    Z sym.   atoms
    1    6 C      1, 3, 5, 6, 8-11, 13, 15, 18, 19, 22, 24
    2    8 O      2, 4, 14, 20, 23, 25
    3    7 N      7, 12, 16, 17, 21
    4    1 H      26-42

      * Solvation model:               ALPB
        Solvent                        DMSO
        Solvent mass                       7.8130E+01 g/mol
          :  Hamiltonian                  GFN1-xTB          :
 * total energy  :   -82.9279174 Eh     change       -0.4931167E-11 Eh
 * total energy  :   -82.9420425 Eh     change       -0.1412509E-01 Eh
 * total energy  :   -82.9477662 Eh     change       -0.5723740E-02 Eh
 * total energy  :   -82.9490538 Eh     change       -0.1287619E-02 Eh
 * total energy  :   -82.9497845 Eh     change       -0.7306737E-03 Eh
 * total energy  :   -82.9500401 Eh     change       -0.2556096E-03 Eh
 * total energy  :   -82.9501894 Eh     change       -0.1493021E-03 Eh
 * total energy  :   -82.9503019 Eh     change       -0.1124634E-03 Eh
 * total energy  :   -82.9504097 Eh     change       -0.1077861E-03 Eh
 * total energy  :   -82.9505495 Eh     change       -0.1398812E-03 Eh
 * total energy  :   -82.9543910 Eh     change       -0.1307572E-04 Eh
 * total energy  :   -82.9544007 Eh     change       -0.9703875E-05 Eh
 * total energy  :   -82.9544069 Eh     change       -0.6211087E-05 Eh
 * total energy  :   -82.9544123 Eh     change       -0.5403017E-05 Eh
 * total energy  :   -82.9544190 Eh     change       -0.6654743E-05 Eh
 * total energy  :   -82.9544274 Eh     change       -0.8476381E-05 Eh
 * total energy  :   -82.9544356 Eh     change       -0.8166222E-05 Eh
 * total energy  :   -82.9544417 Eh     change       -0.6121424E-05 Eh
 * total energy  :   -82.9544463 Eh     change       -0.4610912E-05 Eh
   *** GEOMETRY OPTIMIZATION CONVERGED AFTER 108 ITERATIONS ***

 final structure:
================
42
 xtb: 6.5.1 (579679a)
C           -5.94816979881005       -0.80995407828514       -1.21280482445430
O           -5.00560170462910       -0.09981990712635       -0.38647032318485
C           -3.73412552782937       -0.27554122821328       -0.62714504551523
O           -3.24711227602039       -0.98617363499237       -1.45318634299022
C           -2.85829974812917        0.61184816426017        0.36813188958134
C           -3.63082847881098        1.87982049826456        0.74569482020843
N           -1.67337234816759        0.92415666247238       -0.35470224723970
C           -0.60194877517464        0.22075083260004       -0.16085274025043
C            0.57451816005899        0.52301129351602       -1.07609642739163
C            0.37206034663526       -0.28923561514422       -2.36611081628342
C            0.65076707815502        2.02350614346233       -1.37388113078429
N            1.78877669004791        0.08064963489912       -0.39582988775637
C            3.02331641404021        0.18881916463410       -0.91200383216108
O            3.30396006421950        0.67135650406119       -1.99783112671219
C            4.04508774240707       -0.34891542623242        0.02813216445553
N            3.81573084592175       -0.91337599845749        1.17501881167317
N            5.03032864729571       -1.23424318833849        1.70563335170269
C            5.92272233532329       -0.84282473006562        0.84821879174090
C            7.39389295332946       -0.95417307454094        0.96036301464445
O            5.36393890919712       -0.27811122103903       -0.23268033989143
N           -0.40374229304279       -0.78121110019036        0.72980394037248
C           -1.37321508378576       -1.10098798496506        1.58795265866565
O           -1.33977391900092       -1.93484469103233        2.49680748112317
C           -2.64595314389213       -0.33437290510593        1.45911647261070
O           -3.55623289508058       -0.61606984457079        2.32004182101525
H           -5.99131651552601       -0.34036532706083       -2.19637698464947
H           -6.90868023702288       -0.73185723582539       -0.70956477483224
H           -5.64226923658611       -1.85259958707514       -1.30961983809516
H           -2.97828702949302        2.52070915257206        1.33475036755122
H           -4.51054456779395        1.62174958256547        1.32967235453519
H           -3.92967909955014        2.40670050797206       -0.15696652278246
H           -0.58609782210972       -0.02303109615060       -2.80989328201256
H            0.37377055796473       -1.35415012780209       -2.13648335845754
H            1.16979468862880       -0.07297391762179       -3.07471756393496
H            1.45984178614075        2.23179269599079       -2.07136188585408
H            0.82145622330594        2.57677111726783       -0.45145162176439
H           -0.29091323191703        2.34969293302163       -1.81175765585885
H            1.66038104480401       -0.38828636875108        0.49453737802040
H            7.84543099531357        0.03681958389996        0.91575470338727
H            7.65357353932563       -1.43068859998267        1.90233838157463
H            7.78868834465443       -1.54209438500056        0.13200023342687
H           -3.20187063438473       -1.33225219788354        2.91450993657121

          :  Hamiltonian                  GFN1-xTB          :
         :: total energy             -82.954446331554 Eh    ::
         :: gradient norm              0.000282659737 Eh/a0 ::
         :: HOMO-LUMO gap              1.245373779756 eV    ::
         :: SCC energy               -83.726022309885 Eh    ::
         :: -> Gsolv                  -0.054405241037 Eh    ::
         :: repulsion energy           0.797835636273 Eh    ::

    * Orbital Energies and Occupations

         #    Occupation            Energy/Eh            Energy/eV
      -------------------------------------------------------------
         1        2.0000           -0.8764803             -23.8502
       ...           ...                  ...                  ...
        55        2.0000           -0.5030791             -13.6895
        56        2.0000           -0.4992290             -13.5847
        57        2.0000           -0.4964776             -13.5098
        58        2.0000           -0.4890620             -13.3081
        59        2.0000           -0.4876197             -13.2688
        60        2.0000           -0.4796563             -13.0521
        61        2.0000           -0.4621746             -12.5764
        62        2.0000           -0.4567113             -12.4277
        63        2.0000           -0.4526286             -12.3167
        64        2.0000           -0.4471425             -12.1674
        65        2.0000           -0.4409724             -11.9995
        66        2.0000           -0.4332198             -11.7885
        67        2.0000           -0.4262523             -11.5989 (HOMO)
        68                         -0.3804856             -10.3535 (LUMO)
        69                         -0.3055321              -8.3140
        70                         -0.2949627              -8.0263
        71                         -0.2719003              -7.3988
        72                         -0.2547888              -6.9332
        73                         -0.1998178              -5.4373
        74                         -0.1938294              -5.2744
        75                         -0.1528693              -4.1598
        76                         -0.1418719              -3.8605
        77                         -0.1349418              -3.6720
        78                         -0.1206770              -3.2838
       ...                                ...                  ...
       134                          0.7325498              19.9337
      -------------------------------------------------------------
                  HL-Gap            0.0457666 Eh            1.2454 eV

Wiberg/Mayer (AO) data.
largest (>0.10) Wiberg bond orders for each atom

     #   Z sym  total        # sym  WBO       # sym  WBO       # sym  WBO
 ---------------------------------------------------------------------------
     1   6 C    3.839 --    27 H    0.983    28 H    0.980    26 H    0.978
                             2 O    0.860
     2   8 O    2.242 --     3 C    1.178     1 C    0.860     4 O    0.142
     3   6 C    3.851 --     4 O    1.726     2 O    1.178     5 C    0.772
     4   8 O    2.023 --     3 C    1.726     2 O    0.142
     5   6 C    3.969 --    24 C    1.058     7 N    1.026     6 C    0.952
                             3 C    0.772
     6   6 C    3.978 --    31 H    0.983    30 H    0.983    29 H    0.981
                             5 C    0.952
     7   7 N    3.001 --     8 C    1.595     5 C    1.026
     8   6 C    3.943 --     7 N    1.595    21 N    1.244     9 C    0.978
     9   6 C    3.936 --    11 C    0.990     8 C    0.978    10 C    0.972
                            12 N    0.928
    10   6 C    3.990 --    33 H    0.986    32 H    0.985    34 H    0.981
                             9 C    0.972
    11   6 C    3.991 --     9 C    0.990    36 H    0.986    37 H    0.984
                            35 H    0.982
    12   7 N    3.364 --    13 C    1.276     9 C    0.928    38 H    0.880
                            14 O    0.183
    13   6 C    3.921 --    14 O    1.579    12 N    1.276    15 C    0.985
    14   8 O    1.898 --    13 C    1.579    12 N    0.183
    15   6 C    3.873 --    16 N    1.615    20 O    1.062    13 C    0.985
    16   7 N    3.012 --    15 C    1.615    17 N    1.196
    17   7 N    2.980 --    18 C    1.609    16 N    1.196
    18   6 C    3.872 --    17 N    1.609    20 O    1.082    19 C    1.031
    19   6 C    3.987 --    18 C    1.031    40 H    0.983    41 H    0.964
                            39 H    0.964
    20   8 O    2.328 --    18 C    1.082    15 C    1.062
    21   7 N    3.024 --    22 C    1.308     8 C    1.244    23 O    0.163
                            24 C    0.110
    22   6 C    3.934 --    23 O    1.512    21 N    1.308    24 C    0.990
    23   8 O    1.883 --    22 C    1.512    21 N    0.163
    24   6 C    3.786 --    25 O    1.327     5 C    1.058    22 C    0.990
                            21 N    0.110
    25   8 O    2.251 --    24 C    1.327    42 H    0.747
    26   1 H    1.001 --     1 C    0.978
    27   1 H    1.005 --     1 C    0.983
    28   1 H    1.002 --     1 C    0.980
    29   1 H    0.999 --     6 C    0.981
    30   1 H    1.004 --     6 C    0.983
    31   1 H    1.001 --     6 C    0.983
    32   1 H    1.006 --    10 C    0.985
    33   1 H    1.004 --    10 C    0.986
    34   1 H    1.009 --    10 C    0.981
    35   1 H    1.011 --    11 C    0.982
    36   1 H    1.004 --    11 C    0.986
    37   1 H    1.014 --    11 C    0.984
    38   1 H    0.969 --    12 N    0.880
    39   1 H    0.997 --    19 C    0.964
    40   1 H    0.999 --    19 C    0.983
    41   1 H    0.997 --    19 C    0.964
    42   1 H    0.821 --    25 O    0.747
 ---------------------------------------------------------------------------

           -------------------------------------------------
          | TOTAL ENERGY              -82.954446331554 Eh   |
          | GRADIENT NORM               0.000282659737 Eh/α |
          | HOMO-LUMO GAP               1.245373779756 eV   |
           -------------------------------------------------

 * finished run on 2023/06/20 at 18:17:57.396
