   * xtb version 6.5.1 (579679a) compiled by 'ehlert@majestix' on 2022-07-11
          program call               : /lustre/hpc/kemi/ree/PhD/git/ReactivityQM/dep/xtb-6.5.1/bin/xtb --gfn 1 /lustre/hpc/kemi/ree/PhD/git/ReactivityQM/calculations/R02methylcation/reac01prodE01/conf08/R02methylcation_reac01prodE01_conf08_gfn1.xyz --opt --vfukui --chrg -2 --uhf 0 --alpb DMSO

   ID    Z sym.   atoms
    1    6 C      1, 3, 5, 7-10, 12, 13, 15, 18, 19, 22, 24
    2    8 O      2, 4, 14, 20, 23, 25
    3    7 N      6, 11, 16, 17, 21
    4    1 H      26-42

      * Solvation model:               ALPB
        Solvent                        DMSO
        Solvent mass                       7.8130E+01 g/mol
          :  Hamiltonian                  GFN1-xTB          :
 * total energy  :   -83.6317718 Eh     change       -0.2586376E-10 Eh
 * total energy  :   -83.6440106 Eh     change       -0.1223874E-01 Eh
 * total energy  :   -83.6482943 Eh     change       -0.4283722E-02 Eh
 * total energy  :   -83.6492404 Eh     change       -0.9460912E-03 Eh
 * total energy  :   -83.6497454 Eh     change       -0.5050455E-03 Eh
 * total energy  :   -83.6500033 Eh     change       -0.2579110E-03 Eh
 * total energy  :   -83.6502087 Eh     change       -0.2054009E-03 Eh
 * total energy  :   -83.6503719 Eh     change       -0.1631922E-03 Eh
 * total energy  :   -83.6505120 Eh     change       -0.1401053E-03 Eh
 * total energy  :   -83.6506433 Eh     change       -0.1312447E-03 Eh
 * total energy  :   -83.6523469 Eh     change       -0.1753205E-04 Eh
 * total energy  :   -83.6523696 Eh     change       -0.2267985E-04 Eh
 * total energy  :   -83.6523869 Eh     change       -0.1729770E-04 Eh
 * total energy  :   -83.6523957 Eh     change       -0.8738137E-05 Eh
 * total energy  :   -83.6523942 Eh     change        0.1449716E-05 Eh
 * total energy  :   -83.6524040 Eh     change       -0.9819277E-05 Eh
 * total energy  :   -83.6524124 Eh     change       -0.8393668E-05 Eh
 * total energy  :   -83.6524193 Eh     change       -0.6858587E-05 Eh
 * total energy  :   -83.6524237 Eh     change       -0.4383595E-05 Eh
   *** GEOMETRY OPTIMIZATION CONVERGED AFTER 44 ITERATIONS ***

 final structure:
================
42
 xtb: 6.5.1 (579679a)
C            4.73277121318673        2.96616902337131        1.35951138247715
O            3.89669492015124        1.93265581219901        0.86674496737642
C            4.38388380441659        0.65680070833405        1.01762645586711
O            5.47214976605910        0.48096501799069        1.54934470156545
C            3.48336993070859       -0.35088556128711        0.49434457627511
N            2.30940766896449        0.13395219902757       -0.06018829997220
C            1.43501320632279       -0.67152285322035       -0.53975135280602
C            0.15585548092941       -0.17202671983099       -1.19261833356315
C            0.37776964648261       -0.21212774750715       -2.71662668081597
C           -0.10350191235599        1.27107687327283       -0.72810388706320
N           -0.89712080100129       -1.12479586737209       -0.82144650479783
C           -2.34111833867593       -0.68832119870599       -1.11288502639639
C           -3.12539042021934       -2.04765800539020       -1.22349292738908
O           -2.50994788846760        0.10951502617254       -2.11970276669039
C           -2.83469080693219       -0.09333088931066        0.26163192432182
N           -2.17745161750276        0.01009972344548        1.37499784886298
N           -3.03759668420462        0.56232262961529        2.30587771973020
C           -4.15568338868148        0.75108251165885        1.69122702645968
C           -5.40526128246078        1.32787501370982        2.24457171350742
O           -4.10168341229992        0.35883586021311        0.40345255561041
N            1.63026210115701       -2.03824685143950       -0.53229172676946
C            2.73892088574408       -2.65327070819880       -0.02689816072263
O            2.83289106260502       -3.88240197949367       -0.06059598561428
C            3.79184986134822       -1.73538926215176        0.55273350831379
O            4.82837860741237       -2.23854957413066        1.03189618979223
H            4.88066076010207        2.86792807832799        2.44041692493083
H            4.23729694269790        3.91213575646385        1.14323667373318
H            5.71189991263716        2.94460558571086        0.86937908859464
H           -0.50125818795536        0.16321693094803       -3.23871529809383
H            1.23938398860324        0.40027997506971       -2.98468537808807
H            0.56142126344455       -1.23869076511741       -3.03394729882180
H           -0.27120441255300        1.29505043862378        0.34899376869270
H            0.76807124105272        1.88485358474887       -0.95863519847682
H           -0.97317905728534        1.68579780432419       -1.23564773990639
H           -0.84033859251339       -1.29064335791576        0.18424003418752
H           -4.18683238932574       -1.82951175148139       -1.32494855228125
H           -2.96278003472907       -2.67378441142767       -0.34829409954845
H           -2.78018870738231       -2.56860875175724       -2.11441578178141
H           -5.29200564308365        1.48498945251096        3.31427766396254
H           -6.24265202357266        0.65549972712911        2.06350222903281
H           -5.62722448618502        2.28082021427766        1.76407299297990
H            0.89915782336308       -2.62676069140600       -0.90819094667574

          :  Hamiltonian                  GFN1-xTB          :
         :: total energy             -83.652423667085 Eh    ::
         :: gradient norm              0.000390724556 Eh/a0 ::
         :: HOMO-LUMO gap              2.141183096214 eV    ::
         :: SCC energy               -84.386748569887 Eh    ::
         :: -> Gsolv                  -0.266796137073 Eh    ::
         :: repulsion energy           0.760820176143 Eh    ::

    * Orbital Energies and Occupations

         #    Occupation            Energy/Eh            Energy/eV
      -------------------------------------------------------------
         1        2.0000           -0.8171255             -22.2351
       ...           ...                  ...                  ...
        56        2.0000           -0.4410861             -12.0026
        57        2.0000           -0.4393317             -11.9548
        58        2.0000           -0.4349833             -11.8365
        59        2.0000           -0.4278278             -11.6418
        60        2.0000           -0.4237975             -11.5321
        61        2.0000           -0.4132362             -11.2447
        62        2.0000           -0.4077800             -11.0963
        63        2.0000           -0.3992443             -10.8640
        64        2.0000           -0.3709138             -10.0931
        65        2.0000           -0.3648921              -9.9292
        66        2.0000           -0.3522953              -9.5864
        67        2.0000           -0.3422119              -9.3121
        68        2.0000           -0.3380550              -9.1989 (HOMO)
        69                         -0.2593680              -7.0578 (LUMO)
        70                         -0.2245758              -6.1110
        71                         -0.2197144              -5.9787
        72                         -0.2096920              -5.7060
        73                         -0.1858089              -5.0561
        74                         -0.1281789              -3.4879
        75                         -0.1193323              -3.2472
        76                         -0.0968179              -2.6345
        77                         -0.0899238              -2.4470
        78                         -0.0824196              -2.2428
        79                         -0.0816638              -2.2222
       ...                                ...                  ...
       134                          0.7690767              20.9276
      -------------------------------------------------------------
                  HL-Gap            0.0786870 Eh            2.1412 eV

Wiberg/Mayer (AO) data.
largest (>0.10) Wiberg bond orders for each atom

     #   Z sym  total        # sym  WBO       # sym  WBO       # sym  WBO
 ---------------------------------------------------------------------------
     1   6 C    3.904 --    27 H    0.987    26 H    0.980    28 H    0.980
                             2 O    0.932
     2   8 O    2.131 --     3 C    1.014     1 C    0.932     4 O    0.105
     3   6 C    3.848 --     4 O    1.580     5 C    1.133     2 O    1.014
     4   8 O    1.858 --     3 C    1.580     2 O    0.105
     5   6 C    3.919 --    24 C    1.274     6 N    1.144     3 C    1.133
                            25 O    0.130
     6   7 N    3.022 --     7 C    1.635     5 C    1.144
     7   6 C    3.923 --     6 N    1.635    21 N    1.094     8 C    0.975
     8   6 C    3.968 --    10 C    0.988     9 C    0.980     7 C    0.975
                            11 N    0.973
     9   6 C    3.993 --    30 H    0.989    31 H    0.987     8 C    0.980
                            29 H    0.976
    10   6 C    3.996 --     8 C    0.988    33 H    0.985    32 H    0.984
                            34 H    0.981
    11   7 N    2.999 --     8 C    0.973    35 H    0.949    12 C    0.857
    12   6 C    3.937 --    14 O    1.228    13 C    0.922    15 C    0.874
                            11 N    0.857
    13   6 C    3.991 --    37 H    0.991    36 H    0.988    38 H    0.986
                            12 C    0.922
    14   8 O    1.548 --    12 C    1.228
    15   6 C    3.800 --    16 N    1.645    20 O    1.052    12 C    0.874
    16   7 N    2.989 --    15 C    1.645    17 N    1.145
    17   7 N    2.975 --    18 C    1.656    16 N    1.145
    18   6 C    3.889 --    17 N    1.656    20 O    1.066    19 C    1.024
    19   6 C    3.993 --    18 C    1.024    39 H    0.985    40 H    0.972
                            41 H    0.968
    20   8 O    2.299 --    18 C    1.066    15 C    1.052
    21   7 N    3.440 --    22 C    1.181     7 C    1.094    42 H    0.894
                            23 O    0.136
    22   6 C    3.883 --    23 O    1.557    21 N    1.181    24 C    0.972
    23   8 O    1.836 --    22 C    1.557    21 N    0.136
    24   6 C    3.944 --    25 O    1.508     5 C    1.274    22 C    0.972
    25   8 O    1.812 --    24 C    1.508     5 C    0.130
    26   1 H    1.015 --     1 C    0.980
    27   1 H    1.017 --     1 C    0.987
    28   1 H    1.016 --     1 C    0.980
    29   1 H    1.034 --     9 C    0.976
    30   1 H    1.009 --     9 C    0.989
    31   1 H    1.013 --     9 C    0.987
    32   1 H    1.024 --    10 C    0.984
    33   1 H    1.020 --    10 C    0.985
    34   1 H    1.031 --    10 C    0.981
    35   1 H    0.995 --    11 N    0.949
    36   1 H    1.017 --    13 C    0.988
    37   1 H    1.011 --    13 C    0.991
    38   1 H    1.020 --    13 C    0.986
    39   1 H    1.003 --    19 C    0.985
    40   1 H    1.002 --    19 C    0.972
    41   1 H    1.002 --    19 C    0.968
    42   1 H    0.965 --    21 N    0.894
 ---------------------------------------------------------------------------

           -------------------------------------------------
          | TOTAL ENERGY              -83.652423667085 Eh   |
          | GRADIENT NORM               0.000390724556 Eh/α |
          | HOMO-LUMO GAP               2.141183096214 eV   |
           -------------------------------------------------

 * finished run on 2023/06/21 at 17:04:04.480
