   * xtb version 6.5.1 (579679a) compiled by 'ehlert@majestix' on 2022-07-11
          program call               : /lustre/hpc/kemi/ree/PhD/git/ReactivityQM/dep/xtb-6.5.1/bin/xtb --gfn 1 /lustre/hpc/kemi/ree/PhD/git/ReactivityQM/calculations/R02deprot/reac01prodE13/conf11/R02deprot_reac01prodE13_conf11_gfn1.xyz --opt --vfukui --chrg -2 --uhf 0 --alpb DMSO

   ID    Z sym.   atoms
    1    6 C      1, 3, 5, 6, 8, 10, 12-15, 17, 19, 22, 23
    2    8 O      2, 4, 7, 9, 18, 24
    3    7 N      11, 16, 20, 21, 25
    4    1 H      26-42

      * Solvation model:               ALPB
        Solvent                        DMSO
        Solvent mass                       7.8130E+01 g/mol
          :  Hamiltonian                  GFN1-xTB          :
 * total energy  :   -83.5674702 Eh     change       -0.1148379E-09 Eh
 * total energy  :   -83.5819960 Eh     change       -0.1452583E-01 Eh
 * total energy  :   -83.5871820 Eh     change       -0.5185950E-02 Eh
 * total energy  :   -83.5879772 Eh     change       -0.7952627E-03 Eh
 * total energy  :   -83.5883826 Eh     change       -0.4054150E-03 Eh
 * total energy  :   -83.5885121 Eh     change       -0.1294874E-03 Eh
 * total energy  :   -83.5886325 Eh     change       -0.1203537E-03 Eh
 * total energy  :   -83.5887252 Eh     change       -0.9275298E-04 Eh
 * total energy  :   -83.5888073 Eh     change       -0.8203052E-04 Eh
 * total energy  :   -83.5888781 Eh     change       -0.7083982E-04 Eh
 * total energy  :   -83.5893087 Eh     change       -0.1517757E-04 Eh
 * total energy  :   -83.5893175 Eh     change       -0.8822872E-05 Eh
 * total energy  :   -83.5893321 Eh     change       -0.1460890E-04 Eh
 * total energy  :   -83.5893398 Eh     change       -0.7655701E-05 Eh
 * total energy  :   -83.5893467 Eh     change       -0.6904974E-05 Eh
 * total energy  :   -83.5893529 Eh     change       -0.6185601E-05 Eh
 * total energy  :   -83.5893589 Eh     change       -0.6026339E-05 Eh
 * total energy  :   -83.5893646 Eh     change       -0.5648640E-05 Eh
 * total energy  :   -83.5893683 Eh     change       -0.3750090E-05 Eh
   *** GEOMETRY OPTIMIZATION CONVERGED AFTER 35 ITERATIONS ***

 final structure:
================
42
 xtb: 6.5.1 (579679a)
C           -5.36757069755950        4.00239879641710       -0.64429729354979
O           -4.62605521904031        2.81522521559475       -0.81139578933657
C           -3.48320708243233        2.71476898826223        0.01115515466742
O           -3.22387376076388        3.66765153258240        0.78701490985319
C           -2.74597541991546        1.52624238194236       -0.14058210420361
C           -3.02441951364849        0.41829111822072       -1.01865928765467
O           -4.14507756905136        0.41560505528338       -1.83414275632928
C           -2.15975463184965       -0.64114703612323       -1.03231143540856
O           -2.43868140036730       -1.70602300773136       -1.87982832072633
C           -1.57841477937824       -2.82264787675486       -1.76599373037021
N           -1.04032738524084       -0.71832933422039       -0.26392659610507
C           -0.84965714066609        0.34721839571081        0.54783109300565
C            0.40173496718982        0.24660206583543        1.42198052265950
C            0.19947849499379       -0.91286404935164        2.41594101913656
C            0.64972599545925        1.56349140090630        2.16438058138855
N            1.50811015876214       -0.04083185375298        0.50694274573260
C            2.78771101417118       -0.35608626131516        0.96522313212766
O            3.18794171762092       -0.08724611192784        2.12352984097993
C            3.58637431567609       -0.93607132733519       -0.06577114225707
N            3.18957093386055       -1.21728367536352       -1.31694342078010
N            4.27306400816719       -1.75799030790987       -1.95436871787999
C            5.24835289924443       -1.78694923905782       -1.10684803412095
C            6.62677987247948       -2.28447264516628       -1.34718917815392
O            4.91498115993685       -1.29066978432982        0.11171125281500
N           -1.59471909430863        1.40711781802037        0.65525843297981
H           -4.76609771437897        4.89186452193803       -0.87639813301344
H           -5.74366579257090        4.10250443180437        0.38288510425164
H           -6.21573127269125        3.95810297713417       -1.33024449665593
H           -4.17291792668169       -0.41715802947298       -2.32071793814449
H           -1.59169517507554       -3.23176946211095       -0.74778021876301
H           -0.54399668297856       -2.55719592420142       -2.02026511744811
H           -1.94128372358678       -3.57875845357182       -2.46382472647924
H            0.01092926586080       -1.83477842052221        1.86516716434196
H           -0.65990189444829       -0.70466006294775        3.05358302647956
H            1.07948764467578       -1.04582162308398        3.04437034198580
H            1.49998949813823        1.47570091118898        2.83916776493855
H            0.84576204509381        2.36191256113592        1.44725411885715
H           -0.23622293138551        1.82686305945876        2.74303744845287
H            1.21161658930228       -0.58343344825259       -0.30206258802178
H            7.35432397495426       -1.48935971443417       -1.18062560726930
H            6.86251828064399       -3.10288806119084       -0.66636732683217
H            6.71079397179755       -2.63712352128181       -2.37242469515999

          :  Hamiltonian                  GFN1-xTB          :
         :: total energy             -83.589368319382 Eh    ::
         :: gradient norm              0.000348256540 Eh/a0 ::
         :: HOMO-LUMO gap              0.030652832184 eV    ::
         :: SCC energy               -84.311632662479 Eh    ::
         :: -> Gsolv                  -0.270037732429 Eh    ::
         :: repulsion energy           0.747222113957 Eh    ::

    * Orbital Energies and Occupations

         #    Occupation            Energy/Eh            Energy/eV
      -------------------------------------------------------------
         1        2.0000           -0.7925777             -21.5671
       ...           ...                  ...                  ...
        56        2.0000           -0.4377954             -11.9130
        57        2.0000           -0.4269799             -11.6187
        58        2.0000           -0.4223000             -11.4914
        59        2.0000           -0.3997016             -10.8764
        60        2.0000           -0.3959109             -10.7733
        61        2.0000           -0.3920943             -10.6694
        62        2.0000           -0.3891347             -10.5889
        63        2.0000           -0.3865274             -10.5179
        64        2.0000           -0.3836861             -10.4406
        65        2.0000           -0.3741701             -10.1817
        66        2.0000           -0.3642306              -9.9112
        67        2.0000           -0.3504926              -9.5374
        68        1.2880           -0.2590762              -7.0498 (HOMO)
        69        0.7120           -0.2579497              -7.0192 (LUMO)
        70                         -0.2036533              -5.5417
        71                         -0.1970977              -5.3633
        72                         -0.1569515              -4.2709
        73                         -0.1308015              -3.5593
        74                         -0.1220244              -3.3205
        75                         -0.1113694              -3.0305
        76                         -0.1065440              -2.8992
        77                         -0.0893469              -2.4313
        78                         -0.0836754              -2.2769
        79                         -0.0737267              -2.0062
       ...                                ...                  ...
       134                          0.6889612              18.7476
      -------------------------------------------------------------
                  HL-Gap            0.0011265 Eh            0.0307 eV

Wiberg/Mayer (AO) data.
largest (>0.10) Wiberg bond orders for each atom

     #   Z sym  total        # sym  WBO       # sym  WBO       # sym  WBO
 ---------------------------------------------------------------------------
     1   6 C    3.923 --    28 H    0.987    27 H    0.980    26 H    0.980
                             2 O    0.956
     2   8 O    2.041 --     1 C    0.956     3 C    0.925
     3   6 C    3.728 --     4 O    1.420     5 C    1.287     2 O    0.925
     4   8 O    1.649 --     3 C    1.420
     5   6 C    3.761 --     3 C    1.287     6 C    1.163    25 N    1.104
     6   6 C    3.801 --     8 C    1.473     5 C    1.163     7 O    0.990
     7   8 O    1.957 --     6 C    0.990    29 H    0.856
     8   6 C    3.804 --     6 C    1.473    11 N    1.205     9 O    0.958
     9   8 O    2.067 --     8 C    0.958    10 C    0.940
    10   6 C    3.911 --    32 H    0.986    30 H    0.980    31 H    0.980
                             9 O    0.940
    11   7 N    2.791 --    12 C    1.276     8 C    1.205
    12   6 C    3.951 --    25 N    1.551    11 N    1.276    13 C    0.966
    13   6 C    3.947 --    15 C    0.999    14 C    0.980    12 C    0.966
                            16 N    0.940
    14   6 C    3.992 --    34 H    0.988    33 H    0.985    35 H    0.984
                            13 C    0.980
    15   6 C    3.996 --    13 C    0.999    37 H    0.986    38 H    0.986
                            36 H    0.983
    16   7 N    3.149 --    17 C    1.098    13 C    0.940    39 H    0.910
                            18 O    0.111
    17   6 C    3.758 --    18 O    1.427    19 C    1.163    16 N    1.098
    18   8 O    1.671 --    17 C    1.427    16 N    0.111
    19   6 C    3.672 --    20 N    1.374    17 C    1.163    24 O    0.967
    20   7 N    2.724 --    19 C    1.374    21 N    1.186
    21   7 N    2.981 --    22 C    1.629    20 N    1.186
    22   6 C    3.815 --    21 N    1.629    24 O    1.044    23 C    1.022
    23   6 C    3.994 --    22 C    1.022    42 H    0.986    40 H    0.972
                            41 H    0.972
    24   8 O    2.167 --    22 C    1.044    19 C    0.967
    25   7 N    2.899 --    12 C    1.551     5 C    1.104
    26   1 H    1.022 --     1 C    0.980
    27   1 H    1.021 --     1 C    0.980
    28   1 H    1.021 --     1 C    0.987
    29   1 H    0.887 --     7 O    0.856
    30   1 H    1.020 --    10 C    0.980
    31   1 H    1.023 --    10 C    0.980
    32   1 H    1.018 --    10 C    0.986
    33   1 H    1.018 --    14 C    0.985
    34   1 H    1.008 --    14 C    0.988
    35   1 H    1.017 --    14 C    0.984
    36   1 H    1.025 --    15 C    0.983
    37   1 H    1.018 --    15 C    0.986
    38   1 H    1.023 --    15 C    0.986
    39   1 H    0.997 --    16 N    0.910
    40   1 H    1.002 --    23 C    0.972
    41   1 H    1.001 --    23 C    0.972
    42   1 H    1.005 --    23 C    0.986
 ---------------------------------------------------------------------------

           -------------------------------------------------
          | TOTAL ENERGY              -83.589368319382 Eh   |
          | GRADIENT NORM               0.000348256540 Eh/α |
          | HOMO-LUMO GAP               0.030652832184 eV   |
           -------------------------------------------------

 * finished run on 2023/06/20 at 18:00:54.626
