   * xtb version 6.5.1 (579679a) compiled by 'ehlert@majestix' on 2022-07-11
          program call               : /lustre/hpc/kemi/ree/PhD/git/ReactivityQM/dep/xtb-6.5.1/bin/xtb --gfn 1 /lustre/hpc/kemi/ree/PhD/git/ReactivityQM/calculations/RaltegravirCLI/reac02prodN10/conf16/RaltegravirCLI_reac02prodN10_conf16_gfn1.xyz --opt --vfukui --chrg 1 --uhf 0 --alpb DMSO

   ID    Z sym.   atoms
    1    6 C      1-5, 7, 9, 11-14, 17, 18, 20, 22-24
    2    7 N      6, 10, 15, 16
    3    8 O      8, 19, 21
    4    9 F      25
    5    1 H      26-47

      * Solvation model:               ALPB
        Solvent                        DMSO
        Solvent mass                       7.8130E+01 g/mol
          :  Hamiltonian                  GFN1-xTB          :
 * total energy  :   -79.4678771 Eh     change       -0.2943068E-10 Eh
 * total energy  :   -79.4767666 Eh     change       -0.8889501E-02 Eh
 * total energy  :   -79.4789585 Eh     change       -0.2191852E-02 Eh
 * total energy  :   -79.4792993 Eh     change       -0.3408841E-03 Eh
 * total energy  :   -79.4795682 Eh     change       -0.2688273E-03 Eh
 * total energy  :   -79.4796868 Eh     change       -0.1186213E-03 Eh
 * total energy  :   -79.4798219 Eh     change       -0.1351472E-03 Eh
 * total energy  :   -79.4799413 Eh     change       -0.1193627E-03 Eh
 * total energy  :   -79.4800632 Eh     change       -0.1218726E-03 Eh
 * total energy  :   -79.4802400 Eh     change       -0.1767763E-03 Eh
 * total energy  :   -79.4850675 Eh     change       -0.4075797E-04 Eh
 * total energy  :   -79.4850900 Eh     change       -0.2241330E-04 Eh
 * total energy  :   -79.4851273 Eh     change       -0.3737650E-04 Eh
 * total energy  :   -79.4851482 Eh     change       -0.2083606E-04 Eh
 * total energy  :   -79.4851665 Eh     change       -0.1829334E-04 Eh
 * total energy  :   -79.4851740 Eh     change       -0.7540248E-05 Eh
 * total energy  :   -79.4851839 Eh     change       -0.9887703E-05 Eh
 * total energy  :   -79.4851922 Eh     change       -0.8263214E-05 Eh
 * total energy  :   -79.4851952 Eh     change       -0.3063877E-05 Eh
   *** GEOMETRY OPTIMIZATION CONVERGED AFTER 67 ITERATIONS ***

 final structure:
================
47
 xtb: 6.5.1 (579679a)
C            7.15303699194747        0.57294872931014        0.34266144840936
C            5.95059392838161        0.37940938142457       -0.62250614460998
C            4.83056183809415        1.29171861652912       -0.32477220072186
C            3.54185767288624        0.85661842436485       -0.17071735226773
C            2.43697611053282        1.85072953113528        0.12630642349236
N            1.22390270462466        1.19311083246470        0.55279864579378
C            0.16321230356061        1.07800931233196       -0.28732864762634
O            0.12551943060682        1.62248249786133       -1.37759279660036
C           -0.95456362572929        0.23190572974355        0.24174073843272
N           -2.19898073466513        0.54321002516068       -0.21732201167748
C           -3.24713227659175       -0.12968331661835        0.14953550937817
C           -4.56997838686690        0.30520179521301       -0.47074459924190
C           -4.37538450286006        1.65417307771286       -1.18424424160942
C           -5.02887999743070       -0.74802742279178       -1.48886620274888
N           -5.58637824910986        0.45215795567863        0.56349703537951
N           -3.15280704374257       -1.20007116216288        0.99951218304790
C           -4.28376095024255       -2.01156315600103        1.46006928977992
C           -1.92907940256911       -1.62854216502095        1.48237838203675
O           -1.81853724997700       -2.60810378417398        2.21539661701835
C           -0.78929049471369       -0.83854785771440        1.06911612705834
O            0.41280034537004       -1.25306845929554        1.53149632388839
C            3.26006558089624       -0.52210324881898       -0.28099441224875
C            4.24948636545107       -1.45916546532248       -0.56967145331215
C            5.53933791488651       -1.02646637156840       -0.72428761852057
F            6.49260930661084       -1.88723283267209       -0.97447673848887
H            7.48650574058291        1.60661347785444        0.29636169957540
H            6.84329726007422        0.33440005945900        1.35706785808650
H            7.96285468510579       -0.08745242530463        0.04109449442887
H            6.34601654948368        0.66818122550794       -1.61311259507074
H            5.07921956815358        2.34187367437441       -0.22237140164450
H            2.76972330875397        2.54731677088182        0.89972041029381
H            2.21100368743996        2.41930518711133       -0.78349208415818
H            1.23887168165428        0.72139844900554        1.44043516120103
H           -3.66182157032433        1.55001275119958       -2.00060063391171
H           -5.33039229950910        1.99156581254362       -1.58304811019308
H           -4.00033919259995        2.39768295224202       -0.48285704278951
H           -5.25116078351241       -1.69387439541058       -0.99931117541150
H           -5.92877697376610       -0.39845365962073       -1.99326183989299
H           -4.24886519008558       -0.91041043684669       -2.23182476487486
H           -6.48502614839749        0.63794911266451        0.14300955686878
H           -5.35203740385412        1.20926584144554        1.18906245442419
H           -4.13404606565789       -2.22691524294464        2.51818520303993
H           -5.21350349535155       -1.46793110265116        1.32264217804140
H           -4.30112973356912       -2.94927202975542        0.90440998902800
H            0.26769052071918       -2.03062354872545        2.10471065122833
H            2.24439265455669       -0.86685682873040       -0.11323221162217
H            4.01233462075037       -2.51287731107442       -0.65013010069515

          :  Hamiltonian                  GFN1-xTB          :
         :: total energy             -79.485195221055 Eh    ::
         :: gradient norm              0.000624641285 Eh/a0 ::
         :: HOMO-LUMO gap              0.162303001908 eV    ::
         :: SCC energy               -80.368306388216 Eh    ::
         :: -> Gsolv                  -0.107303117027 Eh    ::
         :: repulsion energy           0.912968074406 Eh    ::

    * Orbital Energies and Occupations

         #    Occupation            Energy/Eh            Energy/eV
      -------------------------------------------------------------
         1        2.0000           -0.9432432             -25.6670
       ...           ...                  ...                  ...
        55        2.0000           -0.5202573             -14.1569
        56        2.0000           -0.5163926             -14.0518
        57        2.0000           -0.5084075             -13.8345
        58        2.0000           -0.5012444             -13.6396
        59        2.0000           -0.4999590             -13.6046
        60        2.0000           -0.4926258             -13.4050
        61        2.0000           -0.4777868             -13.0012
        62        2.0000           -0.4739291             -12.8963
        63        2.0000           -0.4598847             -12.5141
        64        2.0000           -0.4561426             -12.4123
        65        2.0000           -0.4432864             -12.0624
        66        1.9999           -0.4292629             -11.6808
        67        1.9170           -0.4221981             -11.4886 (HOMO)
        68        0.0831           -0.4162336             -11.3263 (LUMO)
        69                         -0.3263294              -8.8799
        70                         -0.3182149              -8.6591
        71                         -0.2821285              -7.6771
        72                         -0.2462535              -6.7009
        73                         -0.2415903              -6.5740
        74                         -0.1621602              -4.4126
        75                         -0.1579027              -4.2968
        76                         -0.1507493              -4.1021
        77                         -0.1494603              -4.0670
        78                         -0.1385023              -3.7688
       ...                                ...                  ...
       144                          0.7080108              19.2660
      -------------------------------------------------------------
                  HL-Gap            0.0059645 Eh            0.1623 eV

Wiberg/Mayer (AO) data.
largest (>0.10) Wiberg bond orders for each atom

     #   Z sym  total        # sym  WBO       # sym  WBO       # sym  WBO
 ---------------------------------------------------------------------------
     1   6 C    3.956 --    27 H    0.985    26 H    0.982    28 H    0.981
                             2 C    0.907
     2   6 C    3.986 --     3 C    1.081    24 C    1.066     1 C    0.907
                            29 H    0.850
     3   6 C    3.923 --     4 C    1.568     2 C    1.081    30 H    0.964
     4   6 C    3.982 --     3 C    1.568    22 C    1.302     5 C    0.995
     5   6 C    3.952 --     4 C    0.995     6 N    0.968    31 H    0.963
                            32 H    0.948
     6   7 N    3.324 --     7 C    1.226     5 C    0.968    33 H    0.889
                             8 O    0.165
     7   6 C    3.899 --     8 O    1.607     6 N    1.226     9 C    0.985
     8   8 O    1.899 --     7 C    1.607     6 N    0.165
     9   6 C    3.966 --    20 C    1.509    10 N    1.206     7 C    0.985
    10   7 N    3.027 --    11 C    1.551     9 C    1.206
    11   6 C    3.921 --    10 N    1.551    16 N    1.184    12 C    0.974
    12   6 C    3.956 --    13 C    0.984    14 C    0.983    15 N    0.979
                            11 C    0.974
    13   6 C    3.980 --    35 H    0.985    36 H    0.984    12 C    0.984
                            34 H    0.982
    14   6 C    3.991 --    39 H    0.985    12 C    0.983    38 H    0.982
                            37 H    0.982
    15   7 N    2.964 --    12 C    0.979    41 H    0.932    40 H    0.931
    16   7 N    3.517 --    11 C    1.184    18 C    1.129    17 C    0.925
                            19 O    0.132
    17   6 C    3.912 --    42 H    0.976    44 H    0.976    43 H    0.966
                            16 N    0.925
    18   6 C    3.917 --    19 O    1.544    16 N    1.129    20 C    1.095
    19   8 O    1.888 --    18 C    1.544    16 N    0.132
    20   6 C    3.913 --     9 C    1.509    18 C    1.095    21 O    1.062
    21   8 O    2.057 --    20 C    1.062    45 H    0.800
    22   6 C    3.895 --    23 C    1.399     4 C    1.302    46 H    0.958
    23   6 C    3.982 --    24 C    1.473    22 C    1.399    47 H    0.956
    24   6 C    3.806 --    23 C    1.473     2 C    1.066    25 F    1.027
    25   9 F    1.188 --    24 C    1.027
    26   1 H    0.993 --     1 C    0.982
    27   1 H    0.994 --     1 C    0.985
    28   1 H    0.995 --     1 C    0.981
    29   1 H    0.971 --     2 C    0.850
    30   1 H    0.988 --     3 C    0.964
    31   1 H    0.998 --     5 C    0.963
    32   1 H    1.006 --     5 C    0.948
    33   1 H    0.937 --     6 N    0.889
    34   1 H    1.010 --    13 C    0.982
    35   1 H    1.002 --    13 C    0.985
    36   1 H    1.009 --    13 C    0.984
    37   1 H    1.002 --    14 C    0.982
    38   1 H    0.999 --    14 C    0.982
    39   1 H    1.002 --    14 C    0.985
    40   1 H    0.946 --    15 N    0.931
    41   1 H    0.948 --    15 N    0.932
    42   1 H    1.006 --    17 C    0.976
    43   1 H    1.023 --    17 C    0.966
    44   1 H    1.002 --    17 C    0.976
    45   1 H    0.842 --    21 O    0.800
    46   1 H    1.008 --    22 C    0.958
    47   1 H    0.985 --    23 C    0.956
 ---------------------------------------------------------------------------

           -------------------------------------------------
          | TOTAL ENERGY              -79.485195221055 Eh   |
          | GRADIENT NORM               0.000624641285 Eh/α |
          | HOMO-LUMO GAP               0.162303001908 eV   |
           -------------------------------------------------

 * finished run on 2023/06/20 at 15:30:09.447
