   * xtb version 6.5.1 (579679a) compiled by 'ehlert@majestix' on 2022-07-11
          program call               : /lustre/hpc/kemi/ree/PhD/git/ReactivityQM/dep/xtb-6.5.1/bin/xtb --gfn 1 /lustre/hpc/kemi/ree/PhD/git/ReactivityQM/calculations/R01/reac02prodN06/conf12/R01_reac02prodN06_conf12_gfn1.xyz --opt --vfukui --chrg 1 --uhf 0 --alpb DMSO

   ID    Z sym.   atoms
    1    6 C      1, 3, 5, 6, 8-11, 14, 16
    2    8 O      2, 4, 15, 17
    3    7 N      7, 12, 13
    4    1 H      18-33

      * Solvation model:               ALPB
        Solvent                        DMSO
        Solvent mass                       7.8130E+01 g/mol
          :  Hamiltonian                  GFN1-xTB          :
 * total energy  :   -57.7960652 Eh     change       -0.6259882E-11 Eh
 * total energy  :   -57.8116190 Eh     change       -0.1555378E-01 Eh
 * total energy  :   -57.8177403 Eh     change       -0.6121268E-02 Eh
 * total energy  :   -57.8191337 Eh     change       -0.1393399E-02 Eh
 * total energy  :   -57.8200360 Eh     change       -0.9023004E-03 Eh
 * total energy  :   -57.8203293 Eh     change       -0.2932911E-03 Eh
 * total energy  :   -57.8205596 Eh     change       -0.2302965E-03 Eh
 * total energy  :   -57.8206733 Eh     change       -0.1137169E-03 Eh
 * total energy  :   -57.8207608 Eh     change       -0.8750587E-04 Eh
 * total energy  :   -57.8208529 Eh     change       -0.9209298E-04 Eh
 * total energy  :   -57.8212325 Eh     change       -0.1081515E-04 Eh
 * total energy  :   -57.8212413 Eh     change       -0.8854866E-05 Eh
 * total energy  :   -57.8212514 Eh     change       -0.1005481E-04 Eh
 * total energy  :   -57.8212580 Eh     change       -0.6605639E-05 Eh
 * total energy  :   -57.8212632 Eh     change       -0.5182513E-05 Eh
 * total energy  :   -57.8212734 Eh     change       -0.1022934E-04 Eh
 * total energy  :   -57.8212805 Eh     change       -0.7144071E-05 Eh
 * total energy  :   -57.8212868 Eh     change       -0.6282841E-05 Eh
 * total energy  :   -57.8212913 Eh     change       -0.4512870E-05 Eh
   *** GEOMETRY OPTIMIZATION CONVERGED AFTER 27 ITERATIONS ***

 final structure:
================
33
 xtb: 6.5.1 (579679a)
C            2.78709377976247        2.28295335820222        0.03308634723832
O            1.95011025820642        1.11144089372870       -0.13004541361503
C            2.31842799198325        0.02403686274386        0.46563608607178
O            3.28486272054297       -0.18846928535411        1.12206456442245
C            1.22942528827809       -1.15651989450445        0.22127672787885
C            1.64670297631510       -2.33889296535366        1.09897152908798
N           -0.00140159747030       -0.58484297875674        0.65767610240048
C           -0.83376393939398       -0.10313476924384       -0.18573706789567
C           -2.14970463360933        0.49305497479996        0.26934426524280
C           -3.07437409132625       -0.66893643115798        0.65808364615602
C           -1.90631630522202        1.42151680269105        1.46612899037636
N           -2.72619953260461        1.20822672626237       -0.86125021388721
N           -0.64839934234874       -0.13462440042441       -1.55053848492190
C            0.38957714049985       -0.73448000092805       -2.17064532045073
O            0.56837977280537       -0.82723072674814       -3.36548660667081
C            1.34715501164221       -1.36550164001496       -1.21138166209357
O            2.30992136353185       -2.04161323581912       -1.70842727515142
H            3.82033104767221        2.02434407377280       -0.19991379546319
H            2.39969479861187        3.02096278574303       -0.66391366478124
H            2.70743556363900        2.63908944373036        1.06018491418334
H            2.63528664073097       -2.68509868507690        0.80578978238338
H            0.92306702184351       -3.14107996359982        0.97567018089683
H            1.66148926211007       -2.01897323694110        2.13832951042274
H           -3.25256015269506       -1.30947845035939       -0.20438057239960
H           -4.02548901853425       -0.27375101087836        1.01075305905485
H           -2.61660617391485       -1.25829060828474        1.45131936197214
H           -1.24037834662079        2.23320028241289        1.17802937291295
H           -1.44965246748073        0.86217575346447        2.28188409736519
H           -2.85332844179587        1.84043550392173        1.80049769991894
H           -2.37715744327384        2.15614685288493       -0.88553543859420
H           -3.73187474339956        1.24771647476734       -0.77490251752426
H           -1.39857285924137        0.30547000557422       -2.08886849252421
H            2.30681745075629       -2.03985151125322       -2.69370171201236

          :  Hamiltonian                  GFN1-xTB          :
         :: total energy             -57.821291329061 Eh    ::
         :: gradient norm              0.000556534181 Eh/a0 ::
         :: HOMO-LUMO gap              0.379590891330 eV    ::
         :: SCC energy               -58.400012318186 Eh    ::
         :: -> Gsolv                  -0.094646287429 Eh    ::
         :: repulsion energy           0.598586426408 Eh    ::

    * Orbital Energies and Occupations

         #    Occupation            Energy/Eh            Energy/eV
      -------------------------------------------------------------
         1        2.0000           -0.9148850             -24.8953
       ...           ...                  ...                  ...
        35        2.0000           -0.5511359             -14.9972
        36        2.0000           -0.5492677             -14.9463
        37        2.0000           -0.5395895             -14.6830
        38        2.0000           -0.5343695             -14.5409
        39        2.0000           -0.5314201             -14.4607
        40        2.0000           -0.5276096             -14.3570
        41        2.0000           -0.5224394             -14.2163
        42        2.0000           -0.5184524             -14.1078
        43        2.0000           -0.5056918             -13.7606
        44        2.0000           -0.5019136             -13.6578
        45        2.0000           -0.4923550             -13.3977
        46        2.0000           -0.4841722             -13.1750
        47        1.9987           -0.4361008             -11.8669 (HOMO)
        48        0.0013           -0.4221511             -11.4873 (LUMO)
        49                         -0.3317725              -9.0280
        50                         -0.3053600              -8.3093
        51                         -0.2616509              -7.1199
        52                         -0.1644287              -4.4743
        53                         -0.1538781              -4.1872
        54                         -0.1498586              -4.0779
        55                         -0.1363788              -3.7111
        56                         -0.1333794              -3.6294
        57                         -0.1191967              -3.2435
        58                         -0.1059020              -2.8817
       ...                                ...                  ...
       100                          0.7427755              20.2120
      -------------------------------------------------------------
                  HL-Gap            0.0139497 Eh            0.3796 eV

Wiberg/Mayer (AO) data.
largest (>0.10) Wiberg bond orders for each atom

     #   Z sym  total        # sym  WBO       # sym  WBO       # sym  WBO
 ---------------------------------------------------------------------------
     1   6 C    3.820 --    19 H    0.981    18 H    0.979    20 H    0.977
                             2 O    0.840
     2   8 O    2.248 --     3 C    1.213     1 C    0.840     4 O    0.147
     3   6 C    3.855 --     4 O    1.748     2 O    1.213     5 C    0.714
     4   8 O    2.087 --     3 C    1.748     2 O    0.147
     5   6 C    3.958 --    16 C    1.101     7 N    1.020     6 C    0.952
                             3 C    0.714
     6   6 C    3.968 --    21 H    0.981    23 H    0.980    22 H    0.978
                             5 C    0.952
     7   7 N    3.020 --     8 C    1.669     5 C    1.020
     8   6 C    3.902 --     7 N    1.669    13 N    1.113     9 C    0.975
     9   6 C    3.960 --    12 N    0.993    11 C    0.980     8 C    0.975
                            10 C    0.974
    10   6 C    3.989 --    24 H    0.985    26 H    0.985    25 H    0.981
                             9 C    0.974
    11   6 C    3.991 --    27 H    0.985    29 H    0.983    28 H    0.983
                             9 C    0.980
    12   7 N    2.996 --     9 C    0.993    30 H    0.934    31 H    0.928
    13   7 N    3.496 --    14 C    1.211     8 C    1.113    32 H    0.835
                            15 O    0.168
    14   6 C    3.924 --    15 O    1.624    13 N    1.211    16 C    0.975
    15   8 O    1.965 --    14 C    1.624    13 N    0.168
    16   6 C    3.802 --    17 O    1.356     5 C    1.101    14 C    0.975
    17   8 O    2.276 --    16 C    1.356    33 H    0.744
    18   1 H    0.998 --     1 C    0.979
    19   1 H    1.003 --     1 C    0.981
    20   1 H    0.997 --     1 C    0.977
    21   1 H    0.998 --     6 C    0.981
    22   1 H    0.995 --     6 C    0.978
    23   1 H    0.999 --     6 C    0.980
    24   1 H    1.000 --    10 C    0.985
    25   1 H    0.997 --    10 C    0.981
    26   1 H    1.002 --    10 C    0.985
    27   1 H    1.001 --    11 C    0.985
    28   1 H    1.006 --    11 C    0.983
    29   1 H    0.999 --    11 C    0.983
    30   1 H    0.946 --    12 N    0.934
    31   1 H    0.943 --    12 N    0.928
    32   1 H    0.930 --    13 N    0.835
    33   1 H    0.790 --    17 O    0.744
 ---------------------------------------------------------------------------

           -------------------------------------------------
          | TOTAL ENERGY              -57.821291329061 Eh   |
          | GRADIENT NORM               0.000556534181 Eh/α |
          | HOMO-LUMO GAP               0.379590891330 eV   |
           -------------------------------------------------

 * finished run on 2023/06/20 at 15:07:02.673
