   * xtb version 6.5.1 (579679a) compiled by 'ehlert@majestix' on 2022-07-11
          program call               : /lustre/hpc/kemi/ree/PhD/git/ReactivityQM/dep/xtb-6.5.1/bin/xtb --gfn 1 /lustre/hpc/kemi/ree/PhD/git/ReactivityQM/calculations/R02oxygendeprot/reac01prodE03/conf17/R02oxygendeprot_reac01prodE03_conf17_gfn1.xyz --opt --vfukui --chrg -2 --uhf 0 --alpb DMSO

   ID    Z sym.   atoms
    1    6 C      1, 3, 5, 6, 8-11, 13, 15, 18, 19, 22, 24
    2    8 O      2, 4, 14, 20, 23, 25
    3    7 N      7, 12, 16, 17, 21
    4    1 H      26-42

      * Solvation model:               ALPB
        Solvent                        DMSO
        Solvent mass                       7.8130E+01 g/mol
          :  Hamiltonian                  GFN1-xTB          :
 * total energy  :   -83.5559060 Eh     change       -0.7048584E-11 Eh
 * total energy  :   -83.5693461 Eh     change       -0.1344011E-01 Eh
 * total energy  :   -83.5751271 Eh     change       -0.5780949E-02 Eh
 * total energy  :   -83.5766923 Eh     change       -0.1565254E-02 Eh
 * total energy  :   -83.5781262 Eh     change       -0.1433882E-02 Eh
 * total energy  :   -83.5790761 Eh     change       -0.9498599E-03 Eh
 * total energy  :   -83.5799154 Eh     change       -0.8393188E-03 Eh
 * total energy  :   -83.5806263 Eh     change       -0.7109565E-03 Eh
 * total energy  :   -83.5811112 Eh     change       -0.4848150E-03 Eh
 * total energy  :   -83.5814387 Eh     change       -0.3275845E-03 Eh
 * total energy  :   -83.5834128 Eh     change        0.6814979E-04 Eh
 * total energy  :   -83.5834966 Eh     change       -0.8381816E-04 Eh
 * total energy  :   -83.5835037 Eh     change       -0.7068602E-05 Eh
 * total energy  :   -83.5835133 Eh     change       -0.9665150E-05 Eh
 * total energy  :   -83.5835189 Eh     change       -0.5552750E-05 Eh
 * total energy  :   -83.5835277 Eh     change       -0.8823420E-05 Eh
 * total energy  :   -83.5835349 Eh     change       -0.7191156E-05 Eh
 * total energy  :   -83.5835431 Eh     change       -0.8188936E-05 Eh
 * total energy  :   -83.5835474 Eh     change       -0.4352750E-05 Eh
   *** GEOMETRY OPTIMIZATION CONVERGED AFTER 59 ITERATIONS ***

 final structure:
================
42
 xtb: 6.5.1 (579679a)
C           -5.26468862472357       -2.04589990227672       -0.92048597677113
O           -5.08996086235398       -0.73826158829577       -0.37777368268516
C           -3.83266164779548       -0.17956536069852       -0.51618864371008
O           -3.66665247693302        0.57453735646796       -1.68570625202124
C           -4.60562642241375        1.61736548351390       -1.88530526864928
C           -2.78367787309568       -0.32785527017974        0.37105034752695
N           -1.64633110910271        0.42823486512446        0.07445502147046
C           -0.62784409958141        0.38482273741820        0.86497578553759
C            0.60589312257632        1.22402311344081        0.57473010738575
C            0.63918867688174        2.40208610302345        1.56245119796135
C            0.55386545497887        1.73385834918424       -0.87243447599730
N            1.77050305387683        0.35931238249386        0.79473612289691
C            3.06120057357440        0.80001860278212        0.46611067538201
O            3.37510127589610        2.00752338023480        0.39650091310374
C            3.95503982837819       -0.29924634325712        0.28551009596349
N            3.63038064259795       -1.59645702053586        0.32593564661104
N            4.78302819308589       -2.29227989183650        0.08209773462187
C            5.72686640918400       -1.42657990102765       -0.09177483417388
C            7.15452961127870       -1.70733498731140       -0.38531117848229
O            5.30153768210153       -0.14484506955360        0.01661638091384
N           -0.60969877914718       -0.36721300163547        1.99929105177917
C           -1.66240200996567       -1.20902875935969        2.39423017943389
O           -1.49977317118400       -1.87670201312970        3.44936124862485
C           -2.82339230794475       -1.21292120286896        1.53202053675302
O           -3.82149517964712       -1.97506138584349        1.77594614392274
H           -4.95182074634007       -2.08459914966244       -1.97086088543601
H           -6.32915301431962       -2.27946896663717       -0.85773361158501
H           -4.69689009727665       -2.78782170877216       -0.34479185038589
H           -4.39868728447184        2.05433056558496       -2.86392485200085
H           -5.63467552789761        1.23657343110803       -1.87753917369816
H           -4.51143373805787        2.39669703722274       -1.11613971229472
H           -0.28021728300238        2.98041864729141        1.47349373769084
H            1.48600783878095        3.05458548677603        1.35701677718060
H            0.72355046291636        2.02791467138491        2.58243331349733
H            0.57826378628903        0.89352706145617       -1.56618910430812
H           -0.37433871718817        2.28356125543612       -1.02763384792855
H            1.39663914569849        2.39167466400924       -1.07741332122375
H            1.61351261196265       -0.60923599981589        0.53193330539525
H            7.31253965779051       -2.78234722548249       -0.42774012443660
H            7.79352694508343       -1.28014301027125        0.38787654029535
H            7.44020587786576       -1.26439577132545       -1.33983533141927
H            0.21004212164834       -0.36379766417210        2.58504726325894

          :  Hamiltonian                  GFN1-xTB          :
         :: total energy             -83.583547435541 Eh    ::
         :: gradient norm              0.000764610576 Eh/a0 ::
         :: HOMO-LUMO gap              0.040851908744 eV    ::
         :: SCC energy               -84.305839333440 Eh    ::
         :: -> Gsolv                  -0.269491337203 Eh    ::
         :: repulsion energy           0.747502635218 Eh    ::

    * Orbital Energies and Occupations

         #    Occupation            Energy/Eh            Energy/eV
      -------------------------------------------------------------
         1        2.0000           -0.8014543             -21.8087
       ...           ...                  ...                  ...
        56        2.0000           -0.4345605             -11.8250
        57        2.0000           -0.4299382             -11.6992
        58        2.0000           -0.4234642             -11.5230
        59        2.0000           -0.4085803             -11.1180
        60        2.0000           -0.4059867             -11.0475
        61        2.0000           -0.4046814             -11.0119
        62        2.0000           -0.4033887             -10.9768
        63        2.0000           -0.3977119             -10.8223
        64        2.0000           -0.3889280             -10.5833
        65        2.0000           -0.3776620             -10.2767
        66        2.0000           -0.3466393              -9.4325
        67        2.0000           -0.3424173              -9.3176
        68        1.3757           -0.2687695              -7.3136 (HOMO)
        69        0.6243           -0.2672682              -7.2727 (LUMO)
        70                         -0.2103507              -5.7239
        71                         -0.2068058              -5.6275
        72                         -0.1798827              -4.8949
        73                         -0.1407216              -3.8292
        74                         -0.1243954              -3.3850
        75                         -0.1132505              -3.0817
        76                         -0.1033051              -2.8111
        77                         -0.0977859              -2.6609
        78                         -0.0923188              -2.5121
        79                         -0.0763286              -2.0770
       ...                                ...                  ...
       134                          0.7275693              19.7982
      -------------------------------------------------------------
                  HL-Gap            0.0015013 Eh            0.0409 eV

Wiberg/Mayer (AO) data.
largest (>0.10) Wiberg bond orders for each atom

     #   Z sym  total        # sym  WBO       # sym  WBO       # sym  WBO
 ---------------------------------------------------------------------------
     1   6 C    3.902 --    27 H    0.987    26 H    0.984    28 H    0.978
                             2 O    0.923
     2   8 O    2.020 --     3 C    0.963     1 C    0.923
     3   6 C    3.543 --     6 C    1.464     2 O    0.963     4 O    0.936
     4   8 O    2.010 --     5 C    0.942     3 C    0.936
     5   6 C    3.915 --    29 H    0.986    30 H    0.981    31 H    0.981
                             4 O    0.942
     6   6 C    3.942 --     3 C    1.464    24 C    1.121     7 N    1.109
     7   7 N    2.964 --     8 C    1.580     6 C    1.109    21 N    0.111
     8   6 C    3.913 --     7 N    1.580    21 N    1.159     9 C    0.975
     9   6 C    3.950 --    11 C    0.991    10 C    0.985     8 C    0.975
                            12 N    0.939
    10   6 C    3.991 --    32 H    0.988    34 H    0.986     9 C    0.985
                            33 H    0.980
    11   6 C    3.993 --     9 C    0.991    35 H    0.986    36 H    0.985
                            37 H    0.984
    12   7 N    3.142 --    13 C    1.079     9 C    0.939    38 H    0.918
                            14 O    0.108
    13   6 C    3.749 --    14 O    1.449    15 C    1.154    12 N    1.079
    14   8 O    1.691 --    13 C    1.449    12 N    0.108
    15   6 C    3.694 --    16 N    1.392    13 C    1.154    20 O    0.977
    16   7 N    2.742 --    15 C    1.392    17 N    1.184
    17   7 N    2.980 --    18 C    1.629    16 N    1.184
    18   6 C    3.820 --    17 N    1.629    20 O    1.050    19 C    1.024
    19   6 C    3.994 --    18 C    1.024    39 H    0.986    40 H    0.971
                            41 H    0.971
    20   8 O    2.184 --    18 C    1.050    15 C    0.977
    21   7 N    3.385 --     8 C    1.159    22 C    1.040    42 H    0.908
                             7 N    0.111
    22   6 C    3.778 --    23 O    1.423    24 C    1.146    21 N    1.040
    23   8 O    1.649 --    22 C    1.423
    24   6 C    3.810 --    25 O    1.374    22 C    1.146     6 C    1.121
    25   8 O    1.602 --    24 C    1.374
    26   1 H    1.015 --     1 C    0.984
    27   1 H    1.021 --     1 C    0.987
    28   1 H    1.043 --     1 C    0.978
    29   1 H    1.020 --     5 C    0.986
    30   1 H    1.021 --     5 C    0.981
    31   1 H    1.013 --     5 C    0.981
    32   1 H    1.008 --    10 C    0.988
    33   1 H    1.022 --    10 C    0.980
    34   1 H    1.010 --    10 C    0.986
    35   1 H    1.011 --    11 C    0.986
    36   1 H    1.021 --    11 C    0.985
    37   1 H    1.015 --    11 C    0.984
    38   1 H    0.980 --    12 N    0.918
    39   1 H    1.004 --    19 C    0.986
    40   1 H    1.001 --    19 C    0.971
    41   1 H    1.001 --    19 C    0.971
    42   1 H    0.966 --    21 N    0.908
 ---------------------------------------------------------------------------

           -------------------------------------------------
          | TOTAL ENERGY              -83.583547435541 Eh   |
          | GRADIENT NORM               0.000764610576 Eh/α |
          | HOMO-LUMO GAP               0.040851908744 eV   |
           -------------------------------------------------

 * finished run on 2023/06/21 at 17:03:02.385
