                         Program Version 5.0.1 -  RELEASE  -
|  1> # ORCA input file
|  2> ! SP r2SCAN-3c CPCM
|  3>
|  4> %maxcore 1875.0
|  5> %pal nprocs 4 end
|  6> %cpcm smd true SMDsolvent "DMSO" end
|  7>
|  8> *xyz 1 1
|  9> C      -3.813789    1.757880    3.731168
| 10> O      -2.974655    1.136545    2.738351
| 11> C      -3.342106    1.123438    1.511893
| 12> O      -4.469345    1.675136    1.209306
| 13> C      -2.474362    0.492321    0.544958
| 14> N      -1.323958   -0.033022    1.057054
| 15> C      -0.463371   -0.624129    0.290450
| 16> C       0.756347   -1.203806    0.993929
| 17> C       0.622461   -2.733964    1.038372
| 18> C       0.835753   -0.647473    2.422912
| 19> N       1.955454   -0.778659    0.266671
| 20> C       3.205136   -1.196300    0.595920
| 21> O       3.469678   -2.068732    1.401663
| 22> C       4.251122   -0.481206   -0.172662
| 23> N       5.535130   -0.647100   -0.112443
| 24> N       6.088028    0.237864   -0.986877
| 25> C       5.108070    0.891919   -1.528175
| 26> C       5.183171    1.968842   -2.538395
| 27> O       3.917064    0.485000   -1.056979
| 28> N      -0.681135   -0.760288   -1.053838
| 29> C       0.220761   -1.438575   -1.994126
| 30> C      -1.815096   -0.269523   -1.689153
| 31> O      -1.963473   -0.426330   -2.888775
| 32> C      -2.766721    0.412614   -0.806409
| 33> O      -3.898723    0.944247   -1.251562
| 34> C      -4.292502    0.921871   -2.639163
| 35> H      -3.978286    2.801889    3.463627
| 36> H      -3.275561    1.674283    4.672528
| 37> H      -4.767941    1.231820    3.775979
| 38> H      -0.348585   -2.988056    1.460658
| 39> H       0.697645   -3.168247    0.044664
| 40> H       1.402817   -3.157415    1.667938
| 41> H       1.722075   -1.044116    2.915855
| 42> H       0.893377    0.438924    2.396183
| 43> H      -0.048433   -0.940959    2.984905
| 44> H       1.878630    0.068054   -0.272122
| 45> H       6.221385    2.147424   -2.809916
| 46> H       4.745834    2.883255   -2.137193
| 47> H       4.614356    1.686667   -3.424089
| 48> H       0.466172   -0.735570   -2.789564
| 49> H      -0.310907   -2.288362   -2.421995
| 50> H       1.124131   -1.766435   -1.496515
| 51> H      -4.696416    1.639300    0.253796
| 52> H      -5.247791    1.442718   -2.671605
| 53> H      -3.553321    1.443575   -3.247639
| 54> H      -4.408121   -0.107320   -2.980713
| 55> **                         ****END OF INPUT****

CARTESIAN COORDINATES (ANGSTROEM)
---------------------------------
  C     -3.813789    1.757880    3.731168
  O     -2.974655    1.136545    2.738351
  C     -3.342106    1.123438    1.511893
  O     -4.469345    1.675136    1.209306
  C     -2.474362    0.492321    0.544958
  N     -1.323958   -0.033022    1.057054
  C     -0.463371   -0.624129    0.290450
  C      0.756347   -1.203806    0.993929
  C      0.622461   -2.733964    1.038372
  C      0.835753   -0.647473    2.422912
  N      1.955454   -0.778659    0.266671
  C      3.205136   -1.196300    0.595920
  O      3.469678   -2.068732    1.401663
  C      4.251122   -0.481206   -0.172662
  N      5.535130   -0.647100   -0.112443
  N      6.088028    0.237864   -0.986877
  C      5.108070    0.891919   -1.528175
  C      5.183171    1.968842   -2.538395
  O      3.917064    0.485000   -1.056979
  N     -0.681135   -0.760288   -1.053838
  C      0.220761   -1.438575   -1.994126
  C     -1.815096   -0.269523   -1.689153
  O     -1.963473   -0.426330   -2.888775
  C     -2.766721    0.412614   -0.806409
  O     -3.898723    0.944247   -1.251562
  C     -4.292502    0.921871   -2.639163
  H     -3.978286    2.801889    3.463627
  H     -3.275561    1.674283    4.672528
  H     -4.767941    1.231820    3.775979
  H     -0.348585   -2.988056    1.460658
  H      0.697645   -3.168247    0.044664
  H      1.402817   -3.157415    1.667938
  H      1.722075   -1.044116    2.915855
  H      0.893377    0.438924    2.396183
  H     -0.048433   -0.940959    2.984905
  H      1.878630    0.068054   -0.272122
  H      6.221385    2.147424   -2.809916
  H      4.745834    2.883255   -2.137193
  H      4.614356    1.686667   -3.424089
  H      0.466172   -0.735570   -2.789564
  H     -0.310907   -2.288362   -2.421995
  H      1.124131   -1.766435   -1.496515
  H     -4.696416    1.639300    0.253796
  H     -5.247791    1.442718   -2.671605
  H     -3.553321    1.443575   -3.247639
  H     -4.408121   -0.107320   -2.980713

 Total Charge           Charge          ....    1
 Multiplicity           Mult            ....    1
 Number of Electrons    NEL             ....  192
 Basis Dimension        Dim             ....  649

ORBITAL ENERGIES
----------------

  NO   OCC          E(Eh)            E(eV)
   0   2.0000     -19.071038      -518.9493
   1   2.0000     -19.069856      -518.9172
   2   2.0000     -19.068638      -518.8840
   3   2.0000     -19.052544      -518.4461
   4   2.0000     -18.952484      -515.7233
   5   2.0000     -18.939737      -515.3764
   6   2.0000     -14.258729      -387.9997
   7   2.0000     -14.207888      -386.6163
   8   2.0000     -14.207707      -386.6114
   9   2.0000     -14.199780      -386.3957
  10   2.0000     -14.184380      -385.9766
  11   2.0000     -10.246036      -278.8088
  12   2.0000     -10.172641      -276.8116
  13   2.0000     -10.165316      -276.6123
  14   2.0000     -10.162586      -276.5380
  15   2.0000     -10.150026      -276.1963
  16   2.0000     -10.146679      -276.1052
  17   2.0000     -10.145659      -276.0774
  18   2.0000     -10.127570      -275.5852
  19   2.0000     -10.113962      -275.2149
  20   2.0000     -10.106566      -275.0136
  21   2.0000     -10.095481      -274.7120
  22   2.0000     -10.071070      -274.0478
  23   2.0000     -10.047160      -273.3971
  24   2.0000     -10.026999      -272.8485
  25   2.0000     -10.022035      -272.7134
  26   2.0000      -1.168907       -31.8076
  27   2.0000      -1.158048       -31.5121
  28   2.0000      -1.102263       -29.9941
  29   2.0000      -1.087492       -29.5922
  30   2.0000      -1.048244       -28.5242
  31   2.0000      -1.029613       -28.0172
  32   2.0000      -0.989344       -26.9214
  33   2.0000      -0.978906       -26.6374
  34   2.0000      -0.921144       -25.0656
  35   2.0000      -0.911756       -24.8101
  36   2.0000      -0.835525       -22.7358
  37   2.0000      -0.817579       -22.2475
  38   2.0000      -0.770298       -20.9609
  39   2.0000      -0.767749       -20.8915
  40   2.0000      -0.717973       -19.5370
  41   2.0000      -0.715951       -19.4820
  42   2.0000      -0.703526       -19.1439
  43   2.0000      -0.675915       -18.3926
  44   2.0000      -0.671758       -18.2795
  45   2.0000      -0.665736       -18.1156
  46   2.0000      -0.656547       -17.8656
  47   2.0000      -0.637800       -17.3554
  48   2.0000      -0.606435       -16.5019
  49   2.0000      -0.596150       -16.2221
  50   2.0000      -0.575476       -15.6595
  51   2.0000      -0.567875       -15.4527
  52   2.0000      -0.548988       -14.9387
  53   2.0000      -0.539918       -14.6919
  54   2.0000      -0.537958       -14.6386
  55   2.0000      -0.529176       -14.3996
  56   2.0000      -0.516699       -14.0601
  57   2.0000      -0.497675       -13.5424
  58   2.0000      -0.488368       -13.2892
  59   2.0000      -0.482909       -13.1406
  60   2.0000      -0.460567       -12.5327
  61   2.0000      -0.457785       -12.4570
  62   2.0000      -0.451989       -12.2992
  63   2.0000      -0.445837       -12.1318
  64   2.0000      -0.441033       -12.0011
  65   2.0000      -0.435240       -11.8435
  66   2.0000      -0.427403       -11.6302
  67   2.0000      -0.425011       -11.5651
  68   2.0000      -0.421077       -11.4581
  69   2.0000      -0.414600       -11.2818
  70   2.0000      -0.404576       -11.0091
  71   2.0000      -0.400417       -10.8959
  72   2.0000      -0.397662       -10.8209
  73   2.0000      -0.390443       -10.6245
  74   2.0000      -0.383739       -10.4421
  75   2.0000      -0.383310       -10.4304
  76   2.0000      -0.381700       -10.3866
  77   2.0000      -0.368871       -10.0375
  78   2.0000      -0.364632        -9.9221
  79   2.0000      -0.358357        -9.7514
  80   2.0000      -0.355873        -9.6838
  81   2.0000      -0.353717        -9.6251
  82   2.0000      -0.349578        -9.5125
  83   2.0000      -0.347395        -9.4531
  84   2.0000      -0.346595        -9.4313
  85   2.0000      -0.340671        -9.2701
  86   2.0000      -0.326970        -8.8973
  87   2.0000      -0.317150        -8.6301
  88   2.0000      -0.294693        -8.0190
  89   2.0000      -0.272240        -7.4080
  90   2.0000      -0.269970        -7.3462
  91   2.0000      -0.265460        -7.2235
  92   2.0000      -0.260369        -7.0850
  93   2.0000      -0.253211        -6.8902
  94   2.0000      -0.246455        -6.7064
  95   2.0000      -0.233724        -6.3599
  96   0.0000      -0.145048        -3.9470
  97   0.0000      -0.091112        -2.4793
  98   0.0000      -0.065384        -1.7792
  99   0.0000      -0.032355        -0.8804
 100   0.0000      -0.022834        -0.6214

MULLIKEN ATOMIC CHARGES
-----------------------
   0 C :   -0.286092
   1 O :   -0.159831
   2 C :    0.225504
   3 O :   -0.313511
   4 C :    0.097348
   5 N :   -0.102117
   6 C :    0.182666
   7 C :   -0.063598
   8 C :   -0.537367
   9 C :   -0.642318
  10 N :   -0.107129
  11 C :   -0.100754
  12 O :   -0.429695
  13 C :    0.412470
  14 N :   -0.170917
  15 N :   -0.281257
  16 C :    0.396730
  17 C :   -0.635028
  18 O :   -0.055979
  19 N :    0.246704
  20 C :   -0.420664
  21 C :    0.209483
  22 O :   -0.437986
  23 C :    0.179453
  24 O :   -0.208672
  25 C :   -0.293496
  26 H :    0.201581
  27 H :    0.203362
  28 H :    0.203349
  29 H :    0.195686
  30 H :    0.188891
  31 H :    0.207201
  32 H :    0.194469
  33 H :    0.196883
  34 H :    0.192485
  35 H :    0.331221
  36 H :    0.205765
  37 H :    0.202140
  38 H :    0.201071
  39 H :    0.202724
  40 H :    0.202950
  41 H :    0.213606
  42 H :    0.384375
  43 H :    0.184378
  44 H :    0.191561
  45 H :    0.192356
Sum of atomic charges:    1.0000000

LOEWDIN ATOMIC CHARGES
----------------------
   0 C :    0.005115
   1 O :   -0.476474
   2 C :    0.502113
   3 O :   -0.290270
   4 C :    0.209958
   5 N :   -0.550581
   6 C :    0.390049
   7 C :    0.113677
   8 C :   -0.337731
   9 C :   -0.331355
  10 N :   -0.598809
  11 C :    0.381966
  12 O :   -0.450363
  13 C :    0.414072
  14 N :   -0.332336
  15 N :   -0.358374
  16 C :    0.380652
  17 C :   -0.316890
  18 O :   -0.393530
  19 N :   -0.615514
  20 C :   -0.064702
  21 C :    0.390340
  22 O :   -0.452481
  23 C :    0.334151
  24 O :   -0.647279
  25 C :   -0.000260
  26 H :    0.199692
  27 H :    0.202568
  28 H :    0.199758
  29 H :    0.176556
  30 H :    0.174753
  31 H :    0.187801
  32 H :    0.176422
  33 H :    0.176177
  34 H :    0.178977
  35 H :    0.302436
  36 H :    0.191680
  37 H :    0.192508
  38 H :    0.191983
  39 H :    0.208061
  40 H :    0.205384
  41 H :    0.212539
  42 H :    0.336228
  43 H :    0.190940
  44 H :    0.194965
  45 H :    0.195430

  Mayer bond orders larger than 0.100000
B(  0-C ,  1-O ) :   0.7926 B(  0-C , 26-H ) :   0.9399 B(  0-C , 27-H ) :   0.9497
B(  0-C , 28-H ) :   0.9387 B(  1-O ,  2-C ) :   1.3749 B(  2-C ,  3-O ) :   1.2687
B(  2-C ,  4-C ) :   1.0590 B(  2-C ,  5-N ) :   0.1019 B(  3-O , 42-H ) :   0.7696
B(  4-C ,  5-N ) :   0.9442 B(  4-C , 23-C ) :   1.4253 B(  5-N ,  6-C ) :   1.6818
B(  5-N ,  7-C ) :  -0.1216 B(  5-N , 19-N ) :   0.1061 B(  6-C ,  7-C ) :   0.8836
B(  6-C , 10-N ) :  -0.1158 B(  6-C , 19-N ) :   1.2113 B(  6-C , 23-C ) :   0.1128
B(  7-C ,  8-C ) :   0.9461 B(  7-C ,  9-C ) :   0.8920 B(  7-C , 10-N ) :   0.8590
B(  8-C , 29-H ) :   0.9610 B(  8-C , 30-H ) :   0.9363 B(  8-C , 31-H ) :   0.9570
B(  9-C , 32-H ) :   0.9607 B(  9-C , 33-H ) :   0.9693 B(  9-C , 34-H ) :   0.9592
B( 10-N , 11-C ) :   1.1420 B( 10-N , 35-H ) :   0.8747 B( 11-C , 12-O ) :   1.9379
B( 11-C , 13-C ) :   0.8103 B( 12-O , 13-C ) :  -0.1114 B( 13-C , 14-N ) :   1.7134
B( 13-C , 16-C ) :   0.1086 B( 13-C , 18-O ) :   1.0702 B( 14-N , 15-N ) :   1.2711
B( 15-N , 16-C ) :   1.6266 B( 16-C , 17-C ) :   0.8299 B( 16-C , 18-O ) :   1.0680
B( 17-C , 36-H ) :   0.9888 B( 17-C , 37-H ) :   0.9407 B( 17-C , 38-H ) :   0.9429
B( 19-N , 20-C ) :   0.8481 B( 19-N , 21-C ) :   1.1252 B( 20-C , 39-H ) :   0.9302
B( 20-C , 40-H ) :   0.9303 B( 20-C , 41-H ) :   0.9203 B( 21-C , 22-O ) :   1.7934
B( 21-C , 23-C ) :   1.0022 B( 23-C , 24-O ) :   1.1331 B( 24-O , 25-C ) :   0.8287
B( 25-C , 43-H ) :   0.9515 B( 25-C , 44-H ) :   0.9407 B( 25-C , 45-H ) :   0.9403

Dispersion correction           -0.020508459
FINAL SINGLE POINT ENERGY     -1308.337807525964

DIPOLE MOMENT
-------------
                                X             Y             Z
Electronic contribution:      2.19245       1.76917      -0.62331
Nuclear contribution   :    -10.33692       1.75861       0.07346
                        -----------------------------------------
Total Dipole Moment    :     -8.14447       3.52778      -0.54985
                        -----------------------------------------
Magnitude (a.u.)       :      8.89269
Magnitude (Debye)      :     22.60342

Rotational constants in cm-1:     0.010958     0.003535     0.003136
Rotational constants in MHz :   328.516356   105.964515    94.012510

                             ****ORCA TERMINATED NORMALLY****
TOTAL RUN TIME: 0 days 0 hours 1 minutes 38 seconds 6 msec
