   * xtb version 6.5.1 (579679a) compiled by 'ehlert@majestix' on 2022-07-11
          program call               : /lustre/hpc/kemi/ree/PhD/git/ReactivityQM/dep/xtb-6.5.1/bin/xtb --gfn 1 /lustre/hpc/kemi/ree/PhD/git/ReactivityQM/calculations/R03/reac02prodN04/conf13/R03_reac02prodN04_conf13_gfn1.xyz --opt --vfukui --chrg 1 --uhf 0 --alpb DMSO

   ID    Z sym.   atoms
    1    6 C      1, 3, 5, 7-10, 12, 14, 17, 18, 21, 22, 24, 26
    2    8 O      2, 4, 13, 19, 23, 25
    3    7 N      6, 11, 15, 16, 20
    4    1 H      27-46

      * Solvation model:               ALPB
        Solvent                        DMSO
        Solvent mass                       7.8130E+01 g/mol
          :  Hamiltonian                  GFN1-xTB          :
 * total energy  :   -86.2950761 Eh     change       -0.1128342E-10 Eh
 * total energy  :   -86.3113666 Eh     change       -0.1629050E-01 Eh
 * total energy  :   -86.3191610 Eh     change       -0.7794441E-02 Eh
 * total energy  :   -86.3219520 Eh     change       -0.2790952E-02 Eh
 * total energy  :   -86.3251425 Eh     change       -0.3190542E-02 Eh
 * total energy  :   -86.3273158 Eh     change       -0.2173264E-02 Eh
 * total energy  :   -86.3295119 Eh     change       -0.2196107E-02 Eh
 * total energy  :   -86.3333431 Eh     change       -0.3831236E-02 Eh
 * total energy  :   -86.3363288 Eh     change       -0.2985650E-02 Eh
 * total energy  :   -86.3344763 Eh     change        0.1852491E-02 Eh
 * total energy  :   -86.3481973 Eh     change       -0.8469562E-05 Eh
 * total energy  :   -86.3482097 Eh     change       -0.1235276E-04 Eh
 * total energy  :   -86.3482228 Eh     change       -0.1307910E-04 Eh
 * total energy  :   -86.3482281 Eh     change       -0.5361549E-05 Eh
 * total energy  :   -86.3482358 Eh     change       -0.7665800E-05 Eh
 * total energy  :   -86.3482445 Eh     change       -0.8658492E-05 Eh
 * total energy  :   -86.3482498 Eh     change       -0.5343266E-05 Eh
 * total energy  :   -86.3482529 Eh     change       -0.3127780E-05 Eh
 * total energy  :   -86.3482567 Eh     change       -0.3761837E-05 Eh
   *** GEOMETRY OPTIMIZATION CONVERGED AFTER 57 ITERATIONS ***

 final structure:
================
46
 xtb: 6.5.1 (579679a)
C           -3.81378949682493        1.75787996262985        3.73116753290430
O           -2.97465534439587        1.13654454295596        2.73835069765343
C           -3.34210573811334        1.12343793206880        1.51189297766504
O           -4.46934471081385        1.67513616977054        1.20930595687188
C           -2.47436150620444        0.49232136731527        0.54495795872927
N           -1.32395753743495       -0.03302207577102        1.05705396572399
C           -0.46337141837133       -0.62412943163169        0.29045003236521
C            0.75634694056229       -1.20380556468774        0.99392932443998
C            0.62246101980516       -2.73396430142434        1.03837230432340
C            0.83575303467555       -0.64747330210673        2.42291224175606
N            1.95545377247681       -0.77865934038651        0.26667145142990
C            3.20513597496993       -1.19630022451052        0.59591993398625
O            3.46967790168382       -2.06873248246535        1.40166310754410
C            4.25112224665683       -0.48120550564033       -0.17266155883684
N            5.53512982514505       -0.64709990209070       -0.11244272127292
N            6.08802827529809        0.23786358582213       -0.98687690721472
C            5.10807025990572        0.89191944548618       -1.52817479303868
C            5.18317131428977        1.96884198069419       -2.53839509064773
O            3.91706375687778        0.48500008557440       -1.05697856484883
N           -0.68113497668799       -0.76028799276169       -1.05383822002774
C            0.22076059671060       -1.43857537406606       -1.99412551809667
C           -1.81509620723314       -0.26952276147671       -1.68915319259648
O           -1.96347326914619       -0.42632972654528       -2.88877494590164
C           -2.76672085212067        0.41261447552207       -0.80640939765876
O           -3.89872347916081        0.94424661915205       -1.25156171086409
C           -4.29250154379428        0.92187091175692       -2.63916337553952
H           -3.97828589521854        2.80188853153057        3.46362729456813
H           -3.27556122981086        1.67428293781652        4.67252772992369
H           -4.76794121350351        1.23181951460122        3.77597894355327
H           -0.34858461224808       -2.98805592134653        1.46065808114166
H            0.69764503510039       -3.16824659918286        0.04466391181227
H            1.40281674804254       -3.15741457951842        1.66793814040795
H            1.72207538346300       -1.04411602748912        2.91585466486635
H            0.89337655556934        0.43892445472838        2.39618260969908
H           -0.04843299076375       -0.94095923556501        2.98490549138519
H            1.87862994047313        0.06805404234372       -0.27212224116369
H            6.22138549414617        2.14742375273881       -2.80991630674826
H            4.74583350068171        2.88325528018559       -2.13719281330816
H            4.61435569796567        1.68666733333974       -3.42408918949401
H            0.46617177368251       -0.73557033215356       -2.78956438684967
H           -0.31090703043292       -2.28836162560433       -2.42199470271041
H            1.12413055461286       -1.76643489955903       -1.49651497932276
H           -4.69641570190452        1.63929992465004        0.25379556197536
H           -5.24779122164768        1.44271809584466       -2.67160494309281
H           -3.55332096500690        1.44357534376152       -3.24763901900386
H           -4.40812066195712       -0.10732008430549       -2.98071333648928

          :  Hamiltonian                  GFN1-xTB          :
         :: total energy             -86.348256686309 Eh    ::
         :: gradient norm              0.000579877828 Eh/a0 ::
         :: HOMO-LUMO gap              1.906303008324 eV    ::
         :: SCC energy               -87.177606859531 Eh    ::
         :: -> Gsolv                  -0.113927224432 Eh    ::
         :: repulsion energy           0.858038995793 Eh    ::

    * Orbital Energies and Occupations

         #    Occupation            Energy/Eh            Energy/eV
      -------------------------------------------------------------
         1        2.0000           -0.9115682             -24.8050
       ...           ...                  ...                  ...
        58        2.0000           -0.5251820             -14.2909
        59        2.0000           -0.5171777             -14.0731
        60        2.0000           -0.5118583             -13.9284
        61        2.0000           -0.5095920             -13.8667
        62        2.0000           -0.5012446             -13.6396
        63        2.0000           -0.4866039             -13.2412
        64        2.0000           -0.4834237             -13.1546
        65        2.0000           -0.4793644             -13.0442
        66        2.0000           -0.4723848             -12.8542
        67        2.0000           -0.4661627             -12.6849
        68        2.0000           -0.4585558             -12.4779
        69        2.0000           -0.4569087             -12.4331
        70        2.0000           -0.4534817             -12.3399 (HOMO)
        71                         -0.3834263             -10.4336 (LUMO)
        72                         -0.3181721              -8.6579
        73                         -0.3156712              -8.5899
        74                         -0.2899906              -7.8910
        75                         -0.2605938              -7.0911
        76                         -0.2055692              -5.5938
        77                         -0.1989489              -5.4137
        78                         -0.1655963              -4.5061
        79                         -0.1486169              -4.0441
        80                         -0.1459499              -3.9715
        81                         -0.1440661              -3.9202
       ...                                ...                  ...
       144                          0.7271265              19.7861
      -------------------------------------------------------------
                  HL-Gap            0.0700553 Eh            1.9063 eV

Wiberg/Mayer (AO) data.
largest (>0.10) Wiberg bond orders for each atom

     #   Z sym  total        # sym  WBO       # sym  WBO       # sym  WBO
 ---------------------------------------------------------------------------
     1   6 C    3.820 --    28 H    0.982    27 H    0.972    29 H    0.972
                             2 O    0.852
     2   8 O    2.318 --     3 C    1.286     1 C    0.852
     3   6 C    3.811 --     2 O    1.286     4 O    1.250     5 C    1.120
     4   8 O    2.195 --     3 C    1.250    43 H    0.744
     5   6 C    3.958 --    24 C    1.398     6 N    1.179     3 C    1.120
     6   7 N    3.028 --     7 C    1.561     5 C    1.179
     7   6 C    3.921 --     6 N    1.561    20 N    1.182     8 C    0.977
     8   6 C    3.933 --    10 C    0.989     9 C    0.978     7 C    0.977
                            11 N    0.927
     9   6 C    3.985 --    30 H    0.984    31 H    0.981     8 C    0.978
                            32 H    0.975
    10   6 C    3.987 --     8 C    0.989    34 H    0.985    35 H    0.984
                            33 H    0.981
    11   7 N    3.330 --    12 C    1.224     8 C    0.927    36 H    0.894
                            13 O    0.168
    12   6 C    3.913 --    13 O    1.604    11 N    1.224    14 C    0.997
    13   8 O    1.918 --    12 C    1.604    11 N    0.168
    14   6 C    3.874 --    15 N    1.621    19 O    1.045    12 C    0.997
    15   7 N    3.002 --    14 C    1.621    16 N    1.201
    16   7 N    2.983 --    17 C    1.609    15 N    1.201
    17   6 C    3.867 --    16 N    1.609    19 O    1.071    18 C    1.032
    18   6 C    3.986 --    17 C    1.032    37 H    0.982    39 H    0.963
                            38 H    0.962
    19   8 O    2.314 --    17 C    1.071    14 C    1.045
    20   7 N    3.523 --     7 C    1.182    22 C    1.127    21 C    0.918
                            23 O    0.143
    21   6 C    3.905 --    42 H    0.976    41 H    0.971    40 H    0.971
                            20 N    0.918
    22   6 C    3.919 --    23 O    1.594    20 N    1.127    24 C    1.054
    23   8 O    1.940 --    22 C    1.594    20 N    0.143
    24   6 C    3.908 --     5 C    1.398    25 O    1.135    22 C    1.054
    25   8 O    2.249 --    24 C    1.135    26 C    0.854
    26   6 C    3.828 --    44 H    0.983    45 H    0.974    46 H    0.974
                            25 O    0.854
    27   1 H    0.997 --     1 C    0.972
    28   1 H    1.002 --     1 C    0.982
    29   1 H    0.996 --     1 C    0.972
    30   1 H    1.000 --     9 C    0.984
    31   1 H    1.000 --     9 C    0.981
    32   1 H    1.010 --     9 C    0.975
    33   1 H    1.004 --    10 C    0.981
    34   1 H    1.005 --    10 C    0.985
    35   1 H    1.009 --    10 C    0.984
    36   1 H    0.937 --    11 N    0.894
    37   1 H    0.998 --    18 C    0.982
    38   1 H    0.996 --    18 C    0.962
    39   1 H    0.996 --    18 C    0.963
    40   1 H    1.000 --    21 C    0.971
    41   1 H    0.999 --    21 C    0.971
    42   1 H    1.008 --    21 C    0.976
    43   1 H    0.807 --     4 O    0.744
    44   1 H    1.005 --    26 C    0.983
    45   1 H    1.007 --    26 C    0.974
    46   1 H    1.008 --    26 C    0.974
 ---------------------------------------------------------------------------

           -------------------------------------------------
          | TOTAL ENERGY              -86.348256686309 Eh   |
          | GRADIENT NORM               0.000579877828 Eh/α |
          | HOMO-LUMO GAP               1.906303008324 eV   |
           -------------------------------------------------

 * finished run on 2023/06/20 at 15:39:05.687
