   * xtb version 6.5.1 (579679a) compiled by 'ehlert@majestix' on 2022-07-11
          program call               : /lustre/hpc/kemi/ree/PhD/git/ReactivityQM/dep/xtb-6.5.1/bin/xtb --gfn 1 /lustre/hpc/kemi/ree/PhD/git/ReactivityQM/calculations/R02methylcation/reac01prodE08/conf18/R02methylcation_reac01prodE08_conf18_gfn1.xyz --opt --vfukui --chrg -2 --uhf 0 --alpb DMSO

   ID    Z sym.   atoms
    1    6 C      1, 3, 5, 7-10, 12, 14, 15, 18, 19, 22, 24
    2    8 O      2, 4, 13, 20, 23, 25
    3    7 N      6, 11, 16, 17, 21
    4    1 H      26-42

      * Solvation model:               ALPB
        Solvent                        DMSO
        Solvent mass                       7.8130E+01 g/mol
          :  Hamiltonian                  GFN1-xTB          :
 * total energy  :   -83.6223698 Eh     change       -0.2847997E-09 Eh
 * total energy  :   -83.6368529 Eh     change       -0.1448309E-01 Eh
 * total energy  :   -83.6419015 Eh     change       -0.5048583E-02 Eh
 * total energy  :   -83.6427255 Eh     change       -0.8240119E-03 Eh
 * total energy  :   -83.6432930 Eh     change       -0.5675488E-03 Eh
 * total energy  :   -83.6434848 Eh     change       -0.1917407E-03 Eh
 * total energy  :   -83.6436141 Eh     change       -0.1293645E-03 Eh
 * total energy  :   -83.6436936 Eh     change       -0.7946040E-04 Eh
 * total energy  :   -83.6437583 Eh     change       -0.6468028E-04 Eh
 * total energy  :   -83.6438198 Eh     change       -0.6152675E-04 Eh
 * total energy  :   -83.6439794 Eh     change       -0.2265099E-04 Eh
 * total energy  :   -83.6440082 Eh     change       -0.2880199E-04 Eh
 * total energy  :   -83.6440171 Eh     change       -0.8917602E-05 Eh
 * total energy  :   -83.6440277 Eh     change       -0.1062370E-04 Eh
 * total energy  :   -83.6440377 Eh     change       -0.9951011E-05 Eh
 * total energy  :   -83.6440444 Eh     change       -0.6731600E-05 Eh
 * total energy  :   -83.6440510 Eh     change       -0.6561943E-05 Eh
 * total energy  :   -83.6440576 Eh     change       -0.6621803E-05 Eh
 * total energy  :   -83.6440611 Eh     change       -0.3462843E-05 Eh
   *** GEOMETRY OPTIMIZATION CONVERGED AFTER 22 ITERATIONS ***

 final structure:
================
42
 xtb: 6.5.1 (579679a)
C            4.85846823750540        3.31195792221966       -0.48018582291305
O            4.44405513218991        2.16742353705747        0.24803142675626
C            3.28322557201195        1.58940140085112       -0.16503549798273
O            2.65011829774739        2.07350157080073       -1.09641690126200
C            2.90888806936609        0.39058474091427        0.56865535393173
N            1.71703583852280       -0.16078820994327        0.13181328049106
C            1.27169196160321       -1.24987697733236        0.63973980480623
C           -0.00971057004364       -1.86435319599793        0.09900700046889
C           -0.71925836532560       -2.75196167631455        1.13040201417761
C            0.34883896002660       -2.69044314613931       -1.15049598662283
N           -0.88456343999089       -0.76428308015959       -0.27152492389728
C           -2.08801591105636       -0.86438121603627       -0.84072293440716
O           -2.61998583783573       -1.91612513015755       -1.19894786084397
C           -2.75237709070449        0.55223058660626       -1.01581119329101
C           -3.06883828880643        0.73402762065190       -2.51335102564570
N           -1.86284812568509        1.58217274090697       -0.50455921963230
N           -2.52784430018377        2.15210103465419        0.55450032097035
C           -3.67991702499248        1.61296287849668        0.69409089472573
C           -4.72192998512453        1.92743651339034        1.71132168312867
O           -3.95126793737811        0.60489308823017       -0.24501002313014
N            1.96518336902370       -1.92008368745771        1.62913026468035
C            3.14559865700924       -1.47936290569430        2.16788306746803
O            3.69442017379454       -2.14052820281076        3.04967254249071
C            3.68817144175029       -0.18794763534972        1.60414254029041
O            4.75682344573938        0.25998758658130        2.06546794478878
H            4.12527201913009        4.12045542809196       -0.39025269782179
H            4.98890808051628        3.07285647281789       -1.54064101125876
H            5.81011491223278        3.63234298342646       -0.05813384963247
H           -1.68359801699559       -3.06662120581184        0.73354069763424
H           -0.87927795525572       -2.20640267216198        2.05933823637312
H           -0.13245015550912       -3.64463258620678        1.33636244054580
H            1.04447168396308       -3.48151452578656       -0.87691712483627
H           -0.54756443378144       -3.14007058265512       -1.57442742769789
H            0.81695679627374       -2.04906880835181       -1.89693236392581
H           -0.61762106694698        0.21190411938132       -0.04590572121052
H           -3.60535998088489        1.67003526463612       -2.65563812913745
H           -3.68306647801142       -0.09137193686576       -2.87125078655948
H           -2.13869925878507        0.76636366843951       -3.07821392766793
H           -4.95513805407718        1.05098327820329        2.32090713509574
H           -4.35937454745972        2.72176631966703        2.36203636364497
H           -5.64929137672851        2.25684304543644        1.23678376054630
H            1.61975755315830       -2.79241142021882        1.99067965635974

          :  Hamiltonian                  GFN1-xTB          :
         :: total energy             -83.644061060906 Eh    ::
         :: gradient norm              0.000378283832 Eh/a0 ::
         :: HOMO-LUMO gap              0.277819477224 eV    ::
         :: SCC energy               -84.382577932886 Eh    ::
         :: -> Gsolv                  -0.270900812345 Eh    ::
         :: repulsion energy           0.764784065953 Eh    ::

    * Orbital Energies and Occupations

         #    Occupation            Energy/Eh            Energy/eV
      -------------------------------------------------------------
         1        2.0000           -0.7938171             -21.6009
       ...           ...                  ...                  ...
        56        2.0000           -0.4493528             -12.2275
        57        2.0000           -0.4446107             -12.0985
        58        2.0000           -0.4324098             -11.7665
        59        2.0000           -0.4311154             -11.7312
        60        2.0000           -0.4107194             -11.1762
        61        2.0000           -0.4022801             -10.9466
        62        2.0000           -0.3995592             -10.8726
        63        2.0000           -0.3971000             -10.8056
        64        2.0000           -0.3756719             -10.2226
        65        2.0000           -0.3728251             -10.1451
        66        2.0000           -0.3591790              -9.7738
        67        2.0000           -0.3487825              -9.4909
        68        1.9908           -0.2752863              -7.4909 (HOMO)
        69        0.0092           -0.2650767              -7.2131 (LUMO)
        70                         -0.2306674              -6.2768
        71                         -0.2049350              -5.5766
        72                         -0.1916634              -5.2154
        73                         -0.1622845              -4.4160
        74                         -0.1204332              -3.2772
        75                         -0.1173139              -3.1923
        76                         -0.1075468              -2.9265
        77                         -0.1066216              -2.9013
        78                         -0.1019564              -2.7744
        79                         -0.0897005              -2.4409
       ...                                ...                  ...
       134                          0.7546445              20.5349
      -------------------------------------------------------------
                  HL-Gap            0.0102097 Eh            0.2778 eV

Wiberg/Mayer (AO) data.
largest (>0.10) Wiberg bond orders for each atom

     #   Z sym  total        # sym  WBO       # sym  WBO       # sym  WBO
 ---------------------------------------------------------------------------
     1   6 C    3.902 --    28 H    0.987    26 H    0.980    27 H    0.980
                             2 O    0.929
     2   8 O    2.155 --     3 C    1.039     1 C    0.929     4 O    0.108
     3   6 C    3.847 --     4 O    1.575     5 C    1.118     2 O    1.039
     4   8 O    1.850 --     3 C    1.575     2 O    0.108
     5   6 C    3.917 --    24 C    1.274     6 N    1.152     3 C    1.118
                            25 O    0.130
     6   7 N    3.028 --     7 C    1.634     5 C    1.152
     7   6 C    3.929 --     6 N    1.634    21 N    1.092     8 C    0.977
     8   6 C    3.954 --     9 C    0.992     7 C    0.977    10 C    0.976
                            11 N    0.941
     9   6 C    3.994 --     8 C    0.992    30 H    0.986    31 H    0.983
                            29 H    0.979
    10   6 C    3.993 --    32 H    0.988    34 H    0.986    33 H    0.981
                             8 C    0.976
    11   7 N    3.360 --    12 C    1.309     8 C    0.941    35 H    0.849
                            13 O    0.167
    12   6 C    3.865 --    13 O    1.561    11 N    1.309    14 C    0.884
    13   8 O    1.860 --    12 C    1.561    11 N    0.167
    14   6 C    3.897 --    16 N    1.021    15 C    0.968    20 O    0.918
                            12 C    0.884
    15   6 C    3.995 --    38 H    0.988    37 H    0.987    36 H    0.986
                            14 C    0.968
    16   7 N    2.644 --    17 N    1.163    14 C    1.021    18 C    0.203
    17   7 N    3.005 --    18 C    1.679    16 N    1.163
    18   6 C    3.866 --    17 N    1.679    19 C    1.015    20 O    0.935
                            16 N    0.203
    19   6 C    3.996 --    18 C    1.015    40 H    0.987    39 H    0.977
                            41 H    0.977
    20   8 O    2.059 --    18 C    0.935    14 C    0.918
    21   7 N    3.422 --    22 C    1.163     7 C    1.092    42 H    0.897
                            23 O    0.134
    22   6 C    3.876 --    23 O    1.566    21 N    1.163    24 C    0.974
    23   8 O    1.847 --    22 C    1.566    21 N    0.134
    24   6 C    3.942 --    25 O    1.509     5 C    1.274    22 C    0.974
    25   8 O    1.814 --    24 C    1.509     5 C    0.130
    26   1 H    1.015 --     1 C    0.980
    27   1 H    1.015 --     1 C    0.980
    28   1 H    1.016 --     1 C    0.987
    29   1 H    1.013 --     9 C    0.979
    30   1 H    1.004 --     9 C    0.986
    31   1 H    1.003 --     9 C    0.983
    32   1 H    1.005 --    10 C    0.988
    33   1 H    1.016 --    10 C    0.981
    34   1 H    1.010 --    10 C    0.986
    35   1 H    1.002 --    11 N    0.849
    36   1 H    1.020 --    15 C    0.986
    37   1 H    1.013 --    15 C    0.987
    38   1 H    1.015 --    15 C    0.988
    39   1 H    1.010 --    19 C    0.977
    40   1 H    1.010 --    19 C    0.987
    41   1 H    1.010 --    19 C    0.977
    42   1 H    0.951 --    21 N    0.897
 ---------------------------------------------------------------------------

           -------------------------------------------------
          | TOTAL ENERGY              -83.644061060906 Eh   |
          | GRADIENT NORM               0.000378283832 Eh/α |
          | HOMO-LUMO GAP               0.277819477224 eV   |
           -------------------------------------------------

 * finished run on 2023/06/21 at 17:18:40.263
