   * xtb version 6.5.1 (579679a) compiled by 'ehlert@majestix' on 2022-07-11
          program call               : /lustre/hpc/kemi/ree/PhD/git/ReactivityQM/dep/xtb-6.5.1/bin/xtb --gfn 1 /lustre/hpc/kemi/ree/PhD/git/ReactivityQM/calculations/R03/reac01/conf06/R03_reac01_conf06_gfn1.xyz --opt --vfukui --chrg 0 --uhf 0 --alpb DMSO

   ID    Z sym.   atoms
    1    7 N      1
    2    6 C      2-6, 8, 9
    3    9 F      7
    4    1 H      10-17

      * Solvation model:               ALPB
        Solvent                        DMSO
        Solvent mass                       7.8130E+01 g/mol
          :  Hamiltonian                  GFN1-xTB          :
 * total energy  :   -27.4594158 Eh     change       -0.8256507E-11 Eh
 * total energy  :   -27.4618252 Eh     change       -0.2409431E-02 Eh
 * total energy  :   -27.4622221 Eh     change       -0.3968761E-03 Eh
 * total energy  :   -27.4622708 Eh     change       -0.4877022E-04 Eh
 * total energy  :   -27.4623160 Eh     change       -0.4514178E-04 Eh
 * total energy  :   -27.4623514 Eh     change       -0.3537853E-04 Eh
 * total energy  :   -27.4624067 Eh     change       -0.5538546E-04 Eh
 * total energy  :   -27.4624756 Eh     change       -0.6880890E-04 Eh
 * total energy  :   -27.4625354 Eh     change       -0.5981516E-04 Eh
 * total energy  :   -27.4625952 Eh     change       -0.5980118E-04 Eh
 * total energy  :   -27.4629063 Eh     change       -0.7042194E-04 Eh
 * total energy  :   -27.4629940 Eh     change       -0.8775648E-04 Eh
 * total energy  :   -27.4631354 Eh     change       -0.1414131E-03 Eh
 * total energy  :   -27.4631945 Eh     change       -0.5901998E-04 Eh
 * total energy  :   -27.4633081 Eh     change       -0.1136254E-03 Eh
 * total energy  :   -27.4633535 Eh     change       -0.4545909E-04 Eh
 * total energy  :   -27.4633674 Eh     change       -0.1383533E-04 Eh
 * total energy  :   -27.4633729 Eh     change       -0.5548091E-05 Eh
 * total energy  :   -27.4633740 Eh     change       -0.1055415E-05 Eh
   *** GEOMETRY OPTIMIZATION CONVERGED AFTER 22 ITERATIONS ***

 final structure:
================
17
 xtb: 6.5.1 (579679a)
N           -2.47917737988835       -0.46528655671543       -0.81071736042966
C           -1.81605375631783       -0.01809247276479        0.41465915217692
C           -0.31781066326050        0.02951697212861        0.22948013610761
C            0.31205090565791       -0.87977985849704       -0.61840931675700
C            1.68996448344853       -0.86495793506478       -0.77855455272479
C            2.42046336586310        0.07443247780744       -0.07331269486385
F            3.75778282275421        0.09722487383015       -0.22202771599957
C            1.83117057857244        0.99275405166883        0.77597836975224
C            0.45041833379729        0.96271476343466        0.92181082291884
H           -2.47498319971578        0.29187229790090       -1.48104125102124
H           -3.44421657081314       -0.66924346436495       -0.59482262522373
H           -2.18777453576588        0.96499938717880        0.73785906215263
H           -2.04987708161867       -0.73970193977244        1.20658616635996
H           -0.28920077012634       -1.60089922708168       -1.16172595654551
H            2.19021102672202       -1.56555354339017       -1.43483197746500
H            2.43780264621390        1.71445145578169        1.30741513121657
H           -0.03077020552259        1.67554871792031        1.58165461034571

          :  Hamiltonian                  GFN1-xTB          :
         :: total energy             -27.463373982423 Eh    ::
         :: gradient norm              0.000215698080 Eh/a0 ::
         :: HOMO-LUMO gap              3.684060550885 eV    ::
         :: SCC energy               -27.819408287360 Eh    ::
         :: -> Gsolv                  -0.017039140544 Eh    ::
         :: repulsion energy           0.363630943576 Eh    ::

    * Orbital Energies and Occupations

         #    Occupation            Energy/Eh            Energy/eV
      -------------------------------------------------------------
         1        2.0000           -0.8592290             -23.3808
       ...           ...                  ...                  ...
        12        2.0000           -0.5630185             -15.3205
        13        2.0000           -0.5475836             -14.9005
        14        2.0000           -0.5376751             -14.6309
        15        2.0000           -0.5319117             -14.4741
        16        2.0000           -0.5279921             -14.3674
        17        2.0000           -0.5141947             -13.9920
        18        2.0000           -0.5083608             -13.8332
        19        2.0000           -0.4946872             -13.4611
        20        2.0000           -0.4763021             -12.9608
        21        2.0000           -0.4689181             -12.7599
        22        2.0000           -0.4459209             -12.1341
        23        2.0000           -0.4288636             -11.6700
        24        2.0000           -0.4032632             -10.9734 (HOMO)
        25                         -0.2678765              -7.2893 (LUMO)
        26                         -0.2584385              -7.0325
        27                         -0.1386181              -3.7720
        28                         -0.1138654              -3.0984
        29                         -0.0989714              -2.6932
        30                         -0.0942479              -2.5646
        31                         -0.0892896              -2.4297
        32                         -0.0809225              -2.2020
        33                         -0.0735050              -2.0002
        34                         -0.0534750              -1.4551
        35                         -0.0237357              -0.6459
       ...                                ...                  ...
        52                          0.6508967              17.7118
      -------------------------------------------------------------
                  HL-Gap            0.1353867 Eh            3.6841 eV

Wiberg/Mayer (AO) data.
largest (>0.10) Wiberg bond orders for each atom

     #   Z sym  total        # sym  WBO       # sym  WBO       # sym  WBO
 ---------------------------------------------------------------------------
     1   7 N    2.949 --     2 C    0.996    10 H    0.949    11 H    0.945
     2   6 C    3.980 --     3 C    1.006     1 N    0.996    12 H    0.972
                            13 H    0.966
     3   6 C    3.988 --     9 C    1.418     4 C    1.413     2 C    1.006
     4   6 C    3.994 --     5 C    1.446     3 C    1.413    14 H    0.970
                             8 C    0.111
     5   6 C    3.992 --     4 C    1.446     6 C    1.400    15 H    0.970
                             9 C    0.110
     6   6 C    3.859 --     8 C    1.403     5 C    1.400     7 F    0.919
     7   9 F    1.045 --     6 C    0.919
     8   6 C    3.992 --     9 C    1.441     6 C    1.403    16 H    0.970
                             4 C    0.111
     9   6 C    3.994 --     8 C    1.441     3 C    1.418    17 H    0.972
                             5 C    0.110
    10   1 H    0.962 --     1 N    0.949
    11   1 H    0.958 --     1 N    0.945
    12   1 H    1.004 --     2 C    0.972
    13   1 H    1.011 --     2 C    0.966
    14   1 H    1.016 --     4 C    0.970
    15   1 H    0.999 --     5 C    0.970
    16   1 H    0.999 --     8 C    0.970
    17   1 H    1.001 --     9 C    0.972
 ---------------------------------------------------------------------------

           -------------------------------------------------
          | TOTAL ENERGY              -27.463373982423 Eh   |
          | GRADIENT NORM               0.000215698080 Eh/α |
          | HOMO-LUMO GAP               3.684060550885 eV   |
           -------------------------------------------------

 * finished run on 2023/06/20 at 15:12:16.971
