   * xtb version 6.5.1 (579679a) compiled by 'ehlert@majestix' on 2022-07-11
          program call               : /lustre/hpc/kemi/ree/PhD/git/ReactivityQM/dep/xtb-6.5.1/bin/xtb --gfn 1 /lustre/hpc/kemi/ree/PhD/git/ReactivityQM/calculations/R01/reac01prodE04/conf08/R01_reac01prodE04_conf08_gfn1.xyz --opt --vfukui --chrg -1 --uhf 0 --alpb DMSO

   ID    Z sym.   atoms
    1    6 C      1, 3, 5, 7, 8, 11
    2    8 O      2, 4, 6
    3    7 N      9, 10
    4    1 H      12-20

      * Solvation model:               ALPB
        Solvent                        DMSO
        Solvent mass                       7.8130E+01 g/mol
          :  Hamiltonian                  GFN1-xTB          :
 * total energy  :   -38.2887690 Eh     change       -0.5201173E-11 Eh
 * total energy  :   -38.3031075 Eh     change       -0.1433851E-01 Eh
 * total energy  :   -38.3069937 Eh     change       -0.3886241E-02 Eh
 * total energy  :   -38.3085331 Eh     change       -0.1539396E-02 Eh
 * total energy  :   -38.3117685 Eh     change       -0.3235377E-02 Eh
 * total energy  :   -38.3135672 Eh     change       -0.1798768E-02 Eh
 * total energy  :   -38.3175187 Eh     change       -0.3951495E-02 Eh
 * total energy  :   -38.3193251 Eh     change       -0.1806331E-02 Eh
 * total energy  :   -38.3201604 Eh     change       -0.8353612E-03 Eh
 * total energy  :   -38.3209693 Eh     change       -0.8088646E-03 Eh
 * total energy  :   -38.3246996 Eh     change       -0.2996508E-04 Eh
 * total energy  :   -38.3247293 Eh     change       -0.2970546E-04 Eh
 * total energy  :   -38.3247407 Eh     change       -0.1140465E-04 Eh
 * total energy  :   -38.3247544 Eh     change       -0.1369643E-04 Eh
 * total energy  :   -38.3247607 Eh     change       -0.6286337E-05 Eh
 * total energy  :   -38.3247676 Eh     change       -0.6875730E-05 Eh
 * total energy  :   -38.3247741 Eh     change       -0.6478414E-05 Eh
 * total energy  :   -38.3247794 Eh     change       -0.5346118E-05 Eh
 * total energy  :   -38.3247831 Eh     change       -0.3657848E-05 Eh
   *** GEOMETRY OPTIMIZATION CONVERGED AFTER 37 ITERATIONS ***

 final structure:
================
20
 xtb: 6.5.1 (579679a)
C            3.53473948109642       -0.84048802334837        0.15055751436353
O            2.26548487414563       -0.23775644553501        0.27510355409390
C            1.18254164445583       -1.04580081546930       -0.20365348364361
O            1.43915078179560       -2.19359069043653       -0.64545887899272
C            0.02072619096947       -0.31948066132403       -0.27839625328691
O           -1.24698831583966       -0.94412782918052       -0.50009165631703
C           -2.12564842616990       -0.15317592030509        0.12024160059533
C           -3.56559628778526       -0.53861933858180        0.09428064793145
N           -1.67161850233539        0.89312476833557        0.69803964078460
N           -0.24337525621986        0.90374416287754        0.48660928323029
C            0.06981317995590        2.11737637432135       -0.28647800397071
H            4.26958144896727       -0.14282985922852        0.55789961527467
H            3.78264159915917       -1.04703089339333       -0.89960715492666
H            3.59149602578391       -1.78508715098777        0.70906381491318
H           -3.71585708413150       -1.47816070065942        0.62625849501956
H           -4.16325099815519        0.23950089551037        0.56297411631508
H           -3.89328559748087       -0.67716759643543       -0.93532232996415
H           -0.21746088404569        2.98870530440068        0.30080592313194
H           -0.45772359622375        2.13135167124898       -1.24546957097980
H            1.14462972205799        2.12951274819145       -0.46004987357206

          :  Hamiltonian                  GFN1-xTB          :
         :: total energy             -38.324783087925 Eh    ::
         :: gradient norm              0.000430709363 Eh/a0 ::
         :: HOMO-LUMO gap              2.433444278817 eV    ::
         :: SCC energy               -38.639132712285 Eh    ::
         :: -> Gsolv                  -0.102642068785 Eh    ::
         :: repulsion energy           0.322779860328 Eh    ::

    * Orbital Energies and Occupations

         #    Occupation            Energy/Eh            Energy/eV
      -------------------------------------------------------------
         1        2.0000           -0.7807042             -21.2440
       ...           ...                  ...                  ...
        19        2.0000           -0.5082418             -13.8300
        20        2.0000           -0.5035657             -13.7027
        21        2.0000           -0.4890070             -13.3066
        22        2.0000           -0.4831996             -13.1485
        23        2.0000           -0.4755154             -12.9394
        24        2.0000           -0.4681705             -12.7396
        25        2.0000           -0.4521588             -12.3039
        26        2.0000           -0.4255890             -11.5809
        27        2.0000           -0.4213704             -11.4661
        28        2.0000           -0.4157751             -11.3138
        29        2.0000           -0.3881212             -10.5613
        30        2.0000           -0.3849427             -10.4748
        31        2.0000           -0.2981554              -8.1132 (HOMO)
        32                         -0.2087280              -5.6798 (LUMO)
        33                         -0.1399294              -3.8077
        34                         -0.1235054              -3.3608
        35                         -0.1057811              -2.8785
        36                         -0.0930840              -2.5329
        37                         -0.0569618              -1.5500
        38                         -0.0561539              -1.5280
        39                         -0.0450206              -1.2251
        40                         -0.0423136              -1.1514
        41                         -0.0419660              -1.1420
        42                         -0.0372696              -1.0142
       ...                                ...                  ...
        62                          0.6991265              19.0242
      -------------------------------------------------------------
                  HL-Gap            0.0894274 Eh            2.4334 eV

Wiberg/Mayer (AO) data.
largest (>0.10) Wiberg bond orders for each atom

     #   Z sym  total        # sym  WBO       # sym  WBO       # sym  WBO
 ---------------------------------------------------------------------------
     1   6 C    3.923 --    12 H    0.986    13 H    0.981    14 H    0.980
                             2 O    0.957
     2   8 O    2.029 --     1 C    0.957     3 C    0.887
     3   6 C    3.879 --     5 C    1.486     4 O    1.392     2 O    0.887
     4   8 O    1.719 --     3 C    1.392     5 C    0.173
     5   6 C    3.632 --     3 C    1.486    10 N    0.950     6 O    0.875
                             4 O    0.173
     6   8 O    2.186 --     7 C    1.096     5 C    0.875     9 N    0.135
     7   6 C    3.908 --     9 N    1.708     6 O    1.096     8 C    1.014
     8   6 C    3.995 --     7 C    1.014    16 H    0.987    17 H    0.974
                            15 H    0.972
     9   7 N    2.945 --     7 C    1.708    10 N    0.984     6 O    0.135
    10   7 N    3.057 --     9 N    0.984    11 C    0.970     5 C    0.950
    11   6 C    3.982 --    18 H    0.989    20 H    0.987    19 H    0.984
                            10 N    0.970
    12   1 H    1.021 --     1 C    0.986
    13   1 H    1.022 --     1 C    0.981
    14   1 H    1.024 --     1 C    0.980
    15   1 H    1.004 --     8 C    0.972
    16   1 H    1.006 --     8 C    0.987
    17   1 H    1.003 --     8 C    0.974
    18   1 H    1.024 --    11 C    0.989
    19   1 H    1.021 --    11 C    0.984
    20   1 H    1.032 --    11 C    0.987
 ---------------------------------------------------------------------------

           -------------------------------------------------
          | TOTAL ENERGY              -38.324783087925 Eh   |
          | GRADIENT NORM               0.000430709363 Eh/α |
          | HOMO-LUMO GAP               2.433444278817 eV   |
           -------------------------------------------------

 * finished run on 2023/06/20 at 14:53:39.134
