   * xtb version 6.5.1 (579679a) compiled by 'ehlert@majestix' on 2022-07-11
          program call               : /lustre/hpc/kemi/ree/PhD/git/ReactivityQM/dep/xtb-6.5.1/bin/xtb --gfn 1 /lustre/hpc/kemi/ree/PhD/git/ReactivityQM/calculations/R01/reac01prodE05/conf02/R01_reac01prodE05_conf02_gfn1.xyz --opt --vfukui --chrg -1 --uhf 0 --alpb DMSO

   ID    Z sym.   atoms
    1    6 C      1, 3, 5, 8-10
    2    8 O      2, 4, 11
    3    7 N      6, 7
    4    1 H      12-20

      * Solvation model:               ALPB
        Solvent                        DMSO
        Solvent mass                       7.8130E+01 g/mol
          :  Hamiltonian                  GFN1-xTB          :
 * total energy  :   -38.2548990 Eh     change       -0.2360423E-10 Eh
 * total energy  :   -38.2713970 Eh     change       -0.1649809E-01 Eh
 * total energy  :   -38.2765113 Eh     change       -0.5114245E-02 Eh
 * total energy  :   -38.2770549 Eh     change       -0.5435912E-03 Eh
 * total energy  :   -38.2774346 Eh     change       -0.3797314E-03 Eh
 * total energy  :   -38.2775642 Eh     change       -0.1296159E-03 Eh
 * total energy  :   -38.2776329 Eh     change       -0.6862480E-04 Eh
 * total energy  :   -38.2776714 Eh     change       -0.3857918E-04 Eh
 * total energy  :   -38.2776924 Eh     change       -0.2097698E-04 Eh
 * total energy  :   -38.2777120 Eh     change       -0.1963606E-04 Eh
 * total energy  :   -38.2777213 Eh     change       -0.9252855E-05 Eh
 * total energy  :   -38.2777259 Eh     change       -0.4612712E-05 Eh
   *** GEOMETRY OPTIMIZATION CONVERGED AFTER 12 ITERATIONS ***

 final structure:
================
20
 xtb: 6.5.1 (579679a)
C            4.13181731175373        0.24932252117880       -0.19348016155181
O            2.74809099920211        0.49634656009117       -0.17832871171299
C            1.94176437152960       -0.70776558328204       -0.10297297335175
O            2.54176735634381       -1.83420691019986       -0.05440820153574
C            0.60874479491704       -0.46136624537299       -0.09575825482157
N           -0.45228342725195       -1.40760973858083       -0.03011703337703
N           -1.53901484820740       -0.64929188540788       -0.05145839680871
C           -2.82818887770686       -1.29744763812300        0.00551181121638
C           -1.31643257100502        0.64623608267630       -0.10902296834098
C           -2.30302342194986        1.75402236130924       -0.16930188232978
O            0.03301973301757        0.89067891072430       -0.15423465048687
H            4.46736218255527       -0.27042622892649        0.71687122832607
H            4.63935796877364        1.21621126710938       -0.25130460322084
H            4.43218207252581       -0.35835084603479       -1.06063948698108
H           -3.33304269825591       -1.04488429659099        0.93774964967965
H           -3.44345516773966       -0.97855777474076       -0.83452053948186
H           -2.66454311814472       -2.37198623660751       -0.04348263988764
H           -2.41451324658637        2.13672831288217       -1.18813597209658
H           -1.97333546994540        2.58005982522494        0.46268801846103
H           -3.27627394382549        1.41228754267108        0.17617176830166

          :  Hamiltonian                  GFN1-xTB          :
         :: total energy             -38.277725912798 Eh    ::
         :: gradient norm              0.000676401167 Eh/a0 ::
         :: HOMO-LUMO gap              0.972271844292 eV    ::
         :: SCC energy               -38.591055070936 Eh    ::
         :: -> Gsolv                  -0.121804837928 Eh    ::
         :: repulsion energy           0.321461952220 Eh    ::

    * Orbital Energies and Occupations

         #    Occupation            Energy/Eh            Energy/eV
      -------------------------------------------------------------
         1        2.0000           -0.8002877             -21.7769
       ...           ...                  ...                  ...
        19        2.0000           -0.5121709             -13.9369
        20        2.0000           -0.5109195             -13.9028
        21        2.0000           -0.5035863             -13.7033
        22        2.0000           -0.4850933             -13.2001
        23        2.0000           -0.4659311             -12.6786
        24        2.0000           -0.4594710             -12.5028
        25        2.0000           -0.4554822             -12.3943
        26        2.0000           -0.4370079             -11.8916
        27        2.0000           -0.4067654             -11.0686
        28        2.0000           -0.4027809             -10.9602
        29        2.0000           -0.3697775             -10.0622
        30        2.0000           -0.3653058              -9.9405
        31        2.0000           -0.2578226              -7.0157 (HOMO)
        32                         -0.2220923              -6.0434 (LUMO)
        33                         -0.1401488              -3.8136
        34                         -0.1247007              -3.3933
        35                         -0.0995553              -2.7090
        36                         -0.0987317              -2.6866
        37                         -0.0763478              -2.0775
        38                         -0.0723327              -1.9683
        39                         -0.0563768              -1.5341
        40                         -0.0459580              -1.2506
        41                         -0.0381941              -1.0393
        42                         -0.0350928              -0.9549
       ...                                ...                  ...
        62                          0.7123770              19.3848
      -------------------------------------------------------------
                  HL-Gap            0.0357303 Eh            0.9723 eV

Wiberg/Mayer (AO) data.
largest (>0.10) Wiberg bond orders for each atom

     #   Z sym  total        # sym  WBO       # sym  WBO       # sym  WBO
 ---------------------------------------------------------------------------
     1   6 C    3.933 --    13 H    0.986    14 H    0.979    12 H    0.979
                             2 O    0.970
     2   8 O    2.001 --     1 C    0.970     3 C    0.856
     3   6 C    3.878 --     5 C    1.544     4 O    1.309     2 O    0.856
     4   8 O    1.639 --     3 C    1.309     5 C    0.167
     5   6 C    3.712 --     3 C    1.544     6 N    1.059    11 O    0.837
                             4 O    0.167
     6   7 N    2.758 --     7 N    1.185     5 C    1.059     9 C    0.329
     7   7 N    3.635 --     9 C    1.374     6 N    1.185     8 C    0.951
     8   6 C    3.956 --    17 H    0.984    16 H    0.983    15 H    0.981
                             7 N    0.951
     9   6 C    3.867 --     7 N    1.374    11 O    1.027    10 C    1.025
                             6 N    0.329
    10   6 C    3.994 --     9 C    1.025    20 H    0.984    19 H    0.976
                            18 H    0.968
    11   8 O    2.084 --     9 C    1.027     5 C    0.837
    12   1 H    1.027 --     1 C    0.979
    13   1 H    1.023 --     1 C    0.986
    14   1 H    1.027 --     1 C    0.979
    15   1 H    1.004 --     8 C    0.981
    16   1 H    1.004 --     8 C    0.983
    17   1 H    1.015 --     8 C    0.984
    18   1 H    1.004 --    10 C    0.968
    19   1 H    1.004 --    10 C    0.976
    20   1 H    1.002 --    10 C    0.984
 ---------------------------------------------------------------------------

           -------------------------------------------------
          | TOTAL ENERGY              -38.277725912798 Eh   |
          | GRADIENT NORM               0.000676401167 Eh/α |
          | HOMO-LUMO GAP               0.972271844292 eV   |
           -------------------------------------------------

 * finished run on 2023/06/20 at 14:53:58.464
