   * xtb version 6.5.1 (579679a) compiled by 'ehlert@majestix' on 2022-07-11
          program call               : /lustre/hpc/kemi/ree/PhD/git/ReactivityQM/dep/xtb-6.5.1/bin/xtb --gfn 1 /lustre/hpc/kemi/ree/PhD/git/ReactivityQM/calculations/R01/reac02prodE02/conf08/R01_reac02prodE02_conf08_gfn1.xyz --opt --vfukui --chrg -1 --uhf 0 --alpb DMSO

   ID    Z sym.   atoms
    1    6 C      1, 3, 5, 6, 8-11, 14, 16
    2    8 O      2, 4, 15, 17
    3    7 N      7, 12, 13
    4    1 H      18-33

      * Solvation model:               ALPB
        Solvent                        DMSO
        Solvent mass                       7.8130E+01 g/mol
          :  Hamiltonian                  GFN1-xTB          :
 * total energy  :   -58.4924224 Eh     change       -0.5314860E-11 Eh
 * total energy  :   -58.5062661 Eh     change       -0.1384371E-01 Eh
 * total energy  :   -58.5113889 Eh     change       -0.5122756E-02 Eh
 * total energy  :   -58.5126851 Eh     change       -0.1296218E-02 Eh
 * total energy  :   -58.5139219 Eh     change       -0.1236795E-02 Eh
 * total energy  :   -58.5146805 Eh     change       -0.7585730E-03 Eh
 * total energy  :   -58.5153578 Eh     change       -0.6773359E-03 Eh
 * total energy  :   -58.5158874 Eh     change       -0.5295536E-03 Eh
 * total energy  :   -58.5162580 Eh     change       -0.3706112E-03 Eh
 * total energy  :   -58.5163531 Eh     change       -0.9513718E-04 Eh
 * total energy  :   -58.5219141 Eh     change       -0.2321881E-04 Eh
 * total energy  :   -58.5219696 Eh     change       -0.5555596E-04 Eh
 * total energy  :   -58.5219939 Eh     change       -0.2427268E-04 Eh
 * total energy  :   -58.5220332 Eh     change       -0.3930209E-04 Eh
 * total energy  :   -58.5220469 Eh     change       -0.1368116E-04 Eh
 * total energy  :   -58.5220569 Eh     change       -0.1004277E-04 Eh
 * total energy  :   -58.5220647 Eh     change       -0.7739433E-05 Eh
 * total energy  :   -58.5220688 Eh     change       -0.4080225E-05 Eh
 * total energy  :   -58.5220733 Eh     change       -0.4541830E-05 Eh
   *** GEOMETRY OPTIMIZATION CONVERGED AFTER 64 ITERATIONS ***

 final structure:
================
33
 xtb: 6.5.1 (579679a)
C            4.07515943361865        1.58771146107974       -0.56827299815949
O            3.55387531873348        0.35194400099355       -0.09432864232871
C            2.23684373468453        0.38606586769496        0.35748076078814
O            2.10751995186508        0.75356800719808        1.70652343307397
C            2.00903281332636       -0.32621500680042        2.62491468092613
C            1.14867709705960        0.06327169191330       -0.40596006117945
N           -0.08945662128799        0.02434983241345        0.26910789258890
C           -1.15599955722269       -0.30769620427407       -0.36741337990837
C           -2.48780710248967       -0.34937331297433        0.37523239155647
C           -2.24276505325853       -0.30624448007914        1.88727882954436
C           -3.34664925026669        0.84591266505200       -0.05738776141179
N           -3.22410630943007       -1.57660870725686        0.06510729869831
N           -1.18248593988772       -0.61781954394256       -1.68842778419155
C           -0.00680262537913       -0.57414005458509       -2.49777464285224
O           -0.11350756908219       -0.83703636807013       -3.72593326610602
C            1.13979531663801       -0.23694758750474       -1.80619694610056
O            2.33877541908114       -0.15179140959699       -2.54297380850352
H            5.10518009210943        1.40621096754369       -0.88245930338068
H            3.49762863092572        1.95571581711328       -1.42571197597300
H            4.07019970480561        2.35174576064248        0.22014930129208
H            1.97695645421777        0.10156364749149        3.62958447129209
H            2.87212454382130       -1.00084503424521        2.54902482399838
H            1.08992145854613       -0.90279169868892        2.45254004009144
H           -1.62551025586600       -1.15238582168421        2.19007431443203
H           -3.19391844188953       -0.35679547991811        2.41616052881489
H           -1.72680740361516        0.61463658681730        2.15973193415680
H           -3.49945574379538        0.82984915497322       -1.13613089466104
H           -4.31879186479099        0.80113860002831        0.43284588270819
H           -2.85682036642817        1.78142619401458        0.21285861515713
H           -3.60699123919075       -1.53395105813314       -0.86860819150951
H           -2.60809996231855       -2.37780099183467        0.11769740172645
H           -2.03969513030199       -0.88103588489557       -2.13998895970329
H            2.10397946705425       -0.36563261050062       -3.45874198487831

          :  Hamiltonian                  GFN1-xTB          :
         :: total energy             -58.522073309279 Eh    ::
         :: gradient norm              0.000888653114 Eh/a0 ::
         :: HOMO-LUMO gap              2.155364213561 eV    ::
         :: SCC energy               -59.062807449175 Eh    ::
         :: -> Gsolv                  -0.107090833068 Eh    ::
         :: repulsion energy           0.559483472136 Eh    ::

    * Orbital Energies and Occupations

         #    Occupation            Energy/Eh            Energy/eV
      -------------------------------------------------------------
         1        2.0000           -0.7620306             -20.7359
       ...           ...                  ...                  ...
        36        2.0000           -0.4730044             -12.8711
        37        2.0000           -0.4705359             -12.8039
        38        2.0000           -0.4661321             -12.6841
        39        2.0000           -0.4653454             -12.6627
        40        2.0000           -0.4556888             -12.3999
        41        2.0000           -0.4306002             -11.7172
        42        2.0000           -0.4263658             -11.6020
        43        2.0000           -0.4171174             -11.3503
        44        2.0000           -0.3994956             -10.8708
        45        2.0000           -0.3831259             -10.4254
        46        2.0000           -0.3807098             -10.3596
        47        2.0000           -0.3649492              -9.9308
        48        2.0000           -0.2982630              -8.1161 (HOMO)
        49                         -0.2190548              -5.9608 (LUMO)
        50                         -0.1865574              -5.0765
        51                         -0.1180519              -3.2124
        52                         -0.1121453              -3.0516
        53                         -0.1093917              -2.9767
        54                         -0.1054081              -2.8683
        55                         -0.0928742              -2.5272
        56                         -0.0822615              -2.2385
        57                         -0.0633485              -1.7238
        58                         -0.0582732              -1.5857
        59                         -0.0551317              -1.5002
       ...                                ...                  ...
       100                          0.7148808              19.4529
      -------------------------------------------------------------
                  HL-Gap            0.0792082 Eh            2.1554 eV

Wiberg/Mayer (AO) data.
largest (>0.10) Wiberg bond orders for each atom

     #   Z sym  total        # sym  WBO       # sym  WBO       # sym  WBO
 ---------------------------------------------------------------------------
     1   6 C    3.922 --    18 H    0.986    20 H    0.983    19 H    0.981
                             2 O    0.936
     2   8 O    2.010 --     3 C    0.945     1 C    0.936
     3   6 C    3.752 --     6 C    1.529     2 O    0.945     4 O    0.928
     4   8 O    1.998 --     5 C    0.941     3 C    0.928
     5   6 C    3.922 --    21 H    0.986    22 H    0.982    23 H    0.980
                             4 O    0.941
     6   6 C    3.956 --     3 C    1.529    16 C    1.175     7 N    1.070
     7   7 N    3.002 --     8 C    1.622     6 C    1.070    13 N    0.130
     8   6 C    3.943 --     7 N    1.622    13 N    1.188     9 C    0.964
     9   6 C    3.966 --    10 C    0.999    11 C    0.989    12 N    0.977
                             8 C    0.964
    10   6 C    3.997 --     9 C    0.999    25 H    0.987    26 H    0.986
                            24 H    0.985
    11   6 C    3.995 --     9 C    0.989    29 H    0.986    28 H    0.986
                            27 H    0.985
    12   7 N    2.951 --     9 C    0.977    31 H    0.946    30 H    0.945
    13   7 N    3.365 --     8 C    1.188    14 C    0.966    32 H    0.907
                             7 N    0.130
    14   6 C    3.913 --    16 C    1.396    15 O    1.384    13 N    0.966
    15   8 O    1.720 --    14 C    1.384    16 C    0.136
    16   6 C    3.846 --    14 C    1.396     6 C    1.175    17 O    0.956
                            15 O    0.136
    17   8 O    1.938 --    16 C    0.956    33 H    0.857
    18   1 H    1.021 --     1 C    0.986
    19   1 H    1.032 --     1 C    0.981
    20   1 H    1.019 --     1 C    0.983
    21   1 H    1.021 --     5 C    0.986
    22   1 H    1.017 --     5 C    0.982
    23   1 H    1.032 --     5 C    0.980
    24   1 H    1.013 --    10 C    0.985
    25   1 H    1.010 --    10 C    0.987
    26   1 H    1.018 --    10 C    0.986
    27   1 H    1.004 --    11 C    0.985
    28   1 H    1.005 --    11 C    0.986
    29   1 H    1.006 --    11 C    0.986
    30   1 H    0.962 --    12 N    0.945
    31   1 H    0.964 --    12 N    0.946
    32   1 H    0.956 --    13 N    0.907
    33   1 H    0.896 --    17 O    0.857
 ---------------------------------------------------------------------------

           -------------------------------------------------
          | TOTAL ENERGY              -58.522073309279 Eh   |
          | GRADIENT NORM               0.000888653114 Eh/α |
          | HOMO-LUMO GAP               2.155364213561 eV   |
           -------------------------------------------------

 * finished run on 2023/06/20 at 14:57:29.889
