   * xtb version 6.5.1 (579679a) compiled by 'ehlert@majestix' on 2022-07-11
          program call               : /lustre/hpc/kemi/ree/PhD/git/ReactivityQM/dep/xtb-6.5.1/bin/xtb --gfn 1 /lustre/hpc/kemi/ree/PhD/git/ReactivityQM/calculations/R02methylcation/reac01prodN14/conf17/R02methylcation_reac01prodN14_conf17_gfn1.xyz --opt --vfukui --chrg 0 --uhf 0 --alpb DMSO

   ID    Z sym.   atoms
    1    6 C      1, 3, 5, 6, 8, 9, 12-15, 17, 19, 22, 23
    2    8 O      2, 4, 7, 10, 18, 24
    3    7 N      11, 16, 20, 21, 25
    4    1 H      26-42

      * Solvation model:               ALPB
        Solvent                        DMSO
        Solvent mass                       7.8130E+01 g/mol
          :  Hamiltonian                  GFN1-xTB          :
 * total energy  :   -82.8992791 Eh     change       -0.7688072E-11 Eh
 * total energy  :   -82.9154397 Eh     change       -0.1616057E-01 Eh
 * total energy  :   -82.9251739 Eh     change       -0.9734222E-02 Eh
 * total energy  :   -82.9275704 Eh     change       -0.2396516E-02 Eh
 * total energy  :   -82.9299249 Eh     change       -0.2354447E-02 Eh
 * total energy  :   -82.9314222 Eh     change       -0.1497290E-02 Eh
 * total energy  :   -82.9329526 Eh     change       -0.1530407E-02 Eh
 * total energy  :   -82.9342099 Eh     change       -0.1257319E-02 Eh
 * total energy  :   -82.9352541 Eh     change       -0.1044162E-02 Eh
 * total energy  :   -82.9361159 Eh     change       -0.8618000E-03 Eh
 * total energy  :   -82.9745835 Eh     change       -0.9346506E-05 Eh
 * total energy  :   -82.9745857 Eh     change       -0.2173205E-05 Eh
 * total energy  :   -82.9746005 Eh     change       -0.1478325E-04 Eh
 * total energy  :   -82.9746081 Eh     change       -0.7638327E-05 Eh
 * total energy  :   -82.9746194 Eh     change       -0.1124904E-04 Eh
 * total energy  :   -82.9746273 Eh     change       -0.7888337E-05 Eh
 * total energy  :   -82.9746411 Eh     change       -0.1380247E-04 Eh
 * total energy  :   -82.9746478 Eh     change       -0.6776177E-05 Eh
 * total energy  :   -82.9746528 Eh     change       -0.4983397E-05 Eh
   *** GEOMETRY OPTIMIZATION CONVERGED AFTER 75 ITERATIONS ***

 final structure:
================
42
 xtb: 6.5.1 (579679a)
C           -5.06968352321063        1.10253403064729       -2.95958082809130
O           -4.02363359881097        0.88316723108183       -2.00670610027746
C           -4.38579904134072        0.33188316399969       -0.85351667606479
O           -5.51684116626935        0.00057652842849       -0.58429965457123
C           -3.22613353964991        0.16846288995021        0.06493760940640
C           -3.41935624111880       -0.28016672730289        1.28907757690714
O           -3.64859885951351       -0.66990702333579        2.35373722415588
C           -0.80550041935742       -1.68046514959926        1.48841851870756
C           -1.39350863423601       -2.45201298344546        0.34043691692628
O           -0.40602289817941       -2.21542461182791        2.50094265188496
N           -0.73620350451194       -0.30150659600388        1.38400656513852
C           -0.88621679294101        0.44386529189563        0.19989218392338
C            0.33663298073586        1.20298377198920       -0.28612574111361
C            0.31810754755029        1.32345989805508       -1.81359841490079
C            0.32516400101139        2.59136939797856        0.36453640505909
N            1.55026854256814        0.51969763068301        0.15421911876467
C            1.83434383709303       -0.75078504721142       -0.20206680563807
O            1.08472643259767       -1.48198815301463       -0.82992215740591
C            3.16480631866240       -1.19643974119746        0.27573666207157
N            3.70640304599310       -2.36774407263820        0.15010509777955
N            4.93045714261798       -2.30092608436066        0.74440715253708
C            5.06141390314229       -1.09263203252426        1.19664106484268
C            6.21413103281389       -0.51121351795930        1.91735825686776
O            3.97859277375452       -0.34257518803970        0.93427664589581
N           -1.98408421591914        0.63533849719199       -0.40958960177023
H           -5.84699716302234        1.73381963107317       -2.52340062095918
H           -5.50488549238732        0.14833704580274       -3.26510103812335
H           -4.61082712016223        1.60024260156196       -3.81100608774405
H           -1.43190902744597       -1.86871123198877       -0.57373693940916
H           -2.39660678092102       -2.77794132559440        0.61282045504954
H           -0.78042093610475       -3.33770328482970        0.18352062798757
H           -0.08353564957695        0.09771487315854        2.04485697232540
H            1.20289538684274        1.86101538799849       -2.14817173498018
H            0.30250712508274        0.33554736223580       -2.27140038310740
H           -0.57361672806677        1.86842786096353       -2.11874462106810
H           -0.58414261888459        3.11958759566661        0.08215331104841
H            1.18743713833527        3.16437347204154        0.02918757011146
H            0.36019731186567        2.50063453874708        1.44849768244052
H            2.26015321820799        1.07104828822593        0.60470171714087
H            6.99056862050230       -1.26291659242813        2.03742542064057
H            6.60874243392768        0.33765462152254        1.35944879819930
H            5.89697615832708       -0.15068024759665        2.89562519941792

          :  Hamiltonian                  GFN1-xTB          :
         :: total energy             -82.974652827648 Eh    ::
         :: gradient norm              0.000637130037 Eh/a0 ::
         :: HOMO-LUMO gap              2.781550146737 eV    ::
         :: SCC energy               -83.805918574229 Eh    ::
         :: -> Gsolv                  -0.059194759620 Eh    ::
         :: repulsion energy           0.858992394738 Eh    ::

    * Orbital Energies and Occupations

         #    Occupation            Energy/Eh            Energy/eV
      -------------------------------------------------------------
         1        2.0000           -0.8724043             -23.7393
       ...           ...                  ...                  ...
        55        2.0000           -0.5057996             -13.7635
        56        2.0000           -0.5039053             -13.7120
        57        2.0000           -0.5007895             -13.6272
        58        2.0000           -0.4887506             -13.2996
        59        2.0000           -0.4816393             -13.1061
        60        2.0000           -0.4744948             -12.9117
        61        2.0000           -0.4673214             -12.7165
        62        2.0000           -0.4664666             -12.6932
        63        2.0000           -0.4630663             -12.6007
        64        2.0000           -0.4564644             -12.4210
        65        2.0000           -0.4531171             -12.3299
        66        2.0000           -0.4495418             -12.2327
        67        2.0000           -0.4315569             -11.7433 (HOMO)
        68                         -0.3293369              -8.9617 (LUMO)
        69                         -0.3130460              -8.5184
        70                         -0.3054373              -8.3114
        71                         -0.2840737              -7.7300
        72                         -0.2571549              -6.9975
        73                         -0.2558607              -6.9623
        74                         -0.2006968              -5.4612
        75                         -0.1787738              -4.8647
        76                         -0.1417640              -3.8576
        77                         -0.1400675              -3.8114
        78                         -0.1353490              -3.6830
       ...                                ...                  ...
       134                          1.2016224              32.6978
      -------------------------------------------------------------
                  HL-Gap            0.1022201 Eh            2.7816 eV

Wiberg/Mayer (AO) data.
largest (>0.10) Wiberg bond orders for each atom

     #   Z sym  total        # sym  WBO       # sym  WBO       # sym  WBO
 ---------------------------------------------------------------------------
     1   6 C    3.864 --    28 H    0.985    26 H    0.980    27 H    0.980
                             2 O    0.890
     2   8 O    2.206 --     3 C    1.120     1 C    0.890     4 O    0.130
     3   6 C    3.868 --     4 O    1.641     2 O    1.120     5 C    0.985
     4   8 O    1.916 --     3 C    1.641     2 O    0.130
     5   6 C    3.903 --     6 C    1.576    25 N    1.030     3 C    0.985
                             7 O    0.167
     6   6 C    3.801 --     7 O    1.988     5 C    1.576
     7   8 O    2.288 --     6 C    1.988     5 C    0.167
     8   6 C    3.867 --    10 O    1.662    11 N    1.133     9 C    0.999
     9   6 C    3.991 --     8 C    0.999    29 H    0.981    31 H    0.968
                            30 H    0.959
    10   8 O    1.922 --     8 C    1.662    11 N    0.126
    11   7 N    3.316 --     8 C    1.133    12 C    1.017    32 H    0.888
                            10 O    0.126
    12   6 C    3.933 --    25 N    1.747    11 N    1.017    13 C    0.968
    13   6 C    3.937 --    14 C    0.985    15 C    0.980    12 C    0.968
                            16 N    0.931
    14   6 C    3.987 --    33 H    0.985    13 C    0.985    35 H    0.983
                            34 H    0.981
    15   6 C    3.988 --    38 H    0.984    36 H    0.984    37 H    0.981
                            13 C    0.980
    16   7 N    3.348 --    17 C    1.255    13 C    0.931    39 H    0.891
                            18 O    0.173
    17   6 C    3.916 --    18 O    1.578    16 N    1.255    19 C    0.996
    18   8 O    1.898 --    17 C    1.578    16 N    0.173
    19   6 C    3.873 --    20 N    1.621    24 O    1.047    17 C    0.996
    20   7 N    3.001 --    19 C    1.621    21 N    1.200
    21   7 N    2.981 --    22 C    1.609    20 N    1.200
    22   6 C    3.868 --    21 N    1.609    24 O    1.073    23 C    1.032
    23   6 C    3.986 --    22 C    1.032    40 H    0.982    42 H    0.963
                            41 H    0.962
    24   8 O    2.317 --    22 C    1.073    19 C    1.047
    25   7 N    3.053 --    12 C    1.747     5 C    1.030
    26   1 H    1.006 --     1 C    0.980
    27   1 H    1.006 --     1 C    0.980
    28   1 H    1.009 --     1 C    0.985
    29   1 H    1.013 --     9 C    0.981
    30   1 H    1.002 --     9 C    0.959
    31   1 H    1.006 --     9 C    0.968
    32   1 H    0.942 --    11 N    0.888
    33   1 H    1.000 --    14 C    0.985
    34   1 H    1.010 --    14 C    0.981
    35   1 H    1.010 --    14 C    0.983
    36   1 H    1.002 --    15 C    0.984
    37   1 H    0.996 --    15 C    0.981
    38   1 H    0.997 --    15 C    0.984
    39   1 H    0.933 --    16 N    0.891
    40   1 H    0.998 --    23 C    0.982
    41   1 H    0.996 --    23 C    0.962
    42   1 H    0.996 --    23 C    0.963
 ---------------------------------------------------------------------------

           -------------------------------------------------
          | TOTAL ENERGY              -82.974652827648 Eh   |
          | GRADIENT NORM               0.000637130037 Eh/α |
          | HOMO-LUMO GAP               2.781550146737 eV   |
           -------------------------------------------------

 * finished run on 2023/06/21 at 17:53:38.279
