                         Program Version 5.0.1 -  RELEASE  -
|  1> # ORCA input file
|  2> ! SP r2SCAN-3c CPCM
|  3>
|  4> %maxcore 1875.0
|  5> %pal nprocs 4 end
|  6> %cpcm smd true SMDsolvent "DMSO" end
|  7>
|  8> *xyz 1 1
|  9> C       3.900459    0.405857    0.165308
| 10> O       2.588917    0.734936   -0.334427
| 11> C       1.584083    0.036595    0.126243
| 12> O       1.633953   -0.856418    0.929827
| 13> C       0.298693    0.498956   -0.489250
| 14> N       0.073412    1.442022   -1.323155
| 15> N      -1.261582    1.480500   -1.593697
| 16> C      -1.851859    0.561990   -0.926550
| 17> C      -3.277266    0.206461   -0.890953
| 18> O      -0.905045   -0.135492   -0.169506
| 19> C      -1.097522   -1.249476    0.763325
| 20> H       3.915412    0.520626    1.249989
| 21> H       4.587217    1.102058   -0.310341
| 22> H       4.141792   -0.624229   -0.100880
| 23> H      -3.673100    0.316665    0.119250
| 24> H      -3.418315   -0.829481   -1.200450
| 25> H      -3.818084    0.865581   -1.568059
| 26> H      -2.155016   -1.492251    0.741082
| 27> H      -0.781019   -0.908348    1.747076
| 28> H      -0.485129   -2.076553    0.410649
| 29> **                         ****END OF INPUT****

CARTESIAN COORDINATES (ANGSTROEM)
---------------------------------
  C      3.900459    0.405857    0.165308
  O      2.588917    0.734936   -0.334427
  C      1.584083    0.036595    0.126243
  O      1.633953   -0.856418    0.929827
  C      0.298693    0.498956   -0.489250
  N      0.073412    1.442022   -1.323155
  N     -1.261582    1.480500   -1.593697
  C     -1.851859    0.561990   -0.926550
  C     -3.277266    0.206461   -0.890953
  O     -0.905045   -0.135492   -0.169506
  C     -1.097522   -1.249476    0.763325
  H      3.915412    0.520626    1.249989
  H      4.587217    1.102058   -0.310341
  H      4.141792   -0.624229   -0.100880
  H     -3.673100    0.316665    0.119250
  H     -3.418315   -0.829481   -1.200450
  H     -3.818084    0.865581   -1.568059
  H     -2.155016   -1.492251    0.741082
  H     -0.781019   -0.908348    1.747076
  H     -0.485129   -2.076553    0.410649

 Total Charge           Charge          ....    1
 Multiplicity           Mult            ....    1
 Number of Electrons    NEL             ....   82
 Basis Dimension        Dim             ....  279

ORBITAL ENERGIES
----------------

  NO   OCC          E(Eh)            E(eV)
   0   2.0000     -19.189965      -522.1855
   1   2.0000     -19.039998      -518.1047
   2   2.0000     -18.983683      -516.5723
   3   2.0000     -14.258070      -387.9818
   4   2.0000     -14.245510      -387.6400
   5   2.0000     -10.218747      -278.0663
   6   2.0000     -10.207077      -277.7487
   7   2.0000     -10.206210      -277.7251
   8   2.0000     -10.141225      -275.9568
   9   2.0000     -10.095020      -274.6995
  10   2.0000     -10.071349      -274.0553
  11   2.0000      -1.239290       -33.7228
  12   2.0000      -1.121735       -30.5240
  13   2.0000      -1.051119       -28.6024
  14   2.0000      -1.033425       -28.1209
  15   2.0000      -0.890822       -24.2405
  16   2.0000      -0.793674       -21.5970
  17   2.0000      -0.761055       -20.7094
  18   2.0000      -0.740686       -20.1551
  19   2.0000      -0.708066       -19.2674
  20   2.0000      -0.638951       -17.3867
  21   2.0000      -0.603622       -16.4254
  22   2.0000      -0.574584       -15.6352
  23   2.0000      -0.564187       -15.3523
  24   2.0000      -0.540215       -14.7000
  25   2.0000      -0.485436       -13.2094
  26   2.0000      -0.480864       -13.0850
  27   2.0000      -0.465899       -12.6778
  28   2.0000      -0.450011       -12.2454
  29   2.0000      -0.431894       -11.7524
  30   2.0000      -0.419410       -11.4127
  31   2.0000      -0.419055       -11.4031
  32   2.0000      -0.406421       -11.0593
  33   2.0000      -0.397192       -10.8081
  34   2.0000      -0.380466       -10.3530
  35   2.0000      -0.370658       -10.0861
  36   2.0000      -0.352796        -9.6001
  37   2.0000      -0.314474        -8.5573
  38   2.0000      -0.307388        -8.3644
  39   2.0000      -0.304326        -8.2811
  40   2.0000      -0.295008        -8.0276
  41   0.0000      -0.139972        -3.8088
  42   0.0000      -0.064589        -1.7575
  43   0.0000      -0.025278        -0.6879
  44   0.0000       0.008132         0.2213
  45   0.0000       0.029319         0.7978

MULLIKEN ATOMIC CHARGES
-----------------------
   0 C :   -0.299156
   1 O :   -0.160362
   2 C :    0.145912
   3 O :   -0.404395
   4 C :    0.378226
   5 N :   -0.096682
   6 N :   -0.182236
   7 C :    0.458028
   8 C :   -0.670873
   9 O :    0.104768
  10 C :   -0.237252
  11 H :    0.190657
  12 H :    0.192807
  13 H :    0.190781
  14 H :    0.234868
  15 H :    0.233427
  16 H :    0.229005
  17 H :    0.227682
  18 H :    0.233223
  19 H :    0.231573
Sum of atomic charges:    1.0000000

LOEWDIN ATOMIC CHARGES
----------------------
   0 C :   -0.014690
   1 O :   -0.532382
   2 C :    0.412065
   3 O :   -0.381705
   4 C :    0.480244
   5 N :   -0.253640
   6 N :   -0.278734
   7 C :    0.451572
   8 C :   -0.296900
   9 O :   -0.545688
  10 C :    0.083291
  11 H :    0.191915
  12 H :    0.196503
  13 H :    0.191682
  14 H :    0.209143
  15 H :    0.208787
  16 H :    0.211154
  17 H :    0.221685
  18 H :    0.222526
  19 H :    0.223174

  Mayer bond orders larger than 0.100000
B(  0-C ,  1-O ) :   0.8142 B(  0-C , 11-H ) :   0.9476 B(  0-C , 12-H ) :   0.9548
B(  0-C , 13-H ) :   0.9467 B(  1-O ,  2-C ) :   1.1963 B(  2-C ,  3-O ) :   1.7827
B(  2-C ,  4-C ) :   0.9389 B(  4-C ,  5-N ) :   1.7565 B(  4-C ,  9-O ) :   0.9799
B(  5-N ,  6-N ) :   1.1152 B(  6-N ,  7-C ) :   1.6717 B(  7-C ,  8-C ) :   0.8474
B(  7-C ,  9-O ) :   0.9214 B(  8-C , 14-H ) :   0.9245 B(  8-C , 15-H ) :   0.9261
B(  8-C , 16-H ) :   0.9405 B(  9-O , 10-C ) :   0.7916 B( 10-C , 17-H ) :   0.9138
B( 10-C , 18-H ) :   0.9126 B( 10-C , 19-H ) :   0.9126

Dispersion correction           -0.006216498
FINAL SINGLE POINT ENERGY      -568.848500637858

DIPOLE MOMENT
-------------
                                X             Y             Z
Electronic contribution:      0.84703       3.14478      -2.42957
Nuclear contribution   :     -3.13022      -5.04058       3.60623
                        -----------------------------------------
Total Dipole Moment    :     -2.28319      -1.89579       1.17666
                        -----------------------------------------
Magnitude (a.u.)       :      3.19242
Magnitude (Debye)      :      8.11448

Rotational constants in cm-1:     0.089000     0.023934     0.019069
Rotational constants in MHz :  2668.161243   717.519010   571.666714

                             ****ORCA TERMINATED NORMALLY****
TOTAL RUN TIME: 0 days 0 hours 0 minutes 37 seconds 764 msec
