   * xtb version 6.5.1 (579679a) compiled by 'ehlert@majestix' on 2022-07-11
          program call               : /lustre/hpc/kemi/ree/PhD/git/ReactivityQM/dep/xtb-6.5.1/bin/xtb --gfn 1 /lustre/hpc/kemi/ree/PhD/git/ReactivityQM/calculations/R01/reac01prodN01/conf06/R01_reac01prodN01_conf06_gfn1.xyz --opt --vfukui --chrg 1 --uhf 0 --alpb DMSO

   ID    Z sym.   atoms
    1    6 C      1, 3, 5, 8, 9, 11
    2    8 O      2, 4, 10
    3    7 N      6, 7
    4    1 H      12-20

      * Solvation model:               ALPB
        Solvent                        DMSO
        Solvent mass                       7.8130E+01 g/mol
          :  Hamiltonian                  GFN1-xTB          :
 * total energy  :   -37.5505030 Eh     change       -0.1228528E-10 Eh
 * total energy  :   -37.5662914 Eh     change       -0.1578832E-01 Eh
 * total energy  :   -37.5736233 Eh     change       -0.7331943E-02 Eh
 * total energy  :   -37.5757300 Eh     change       -0.2106727E-02 Eh
 * total energy  :   -37.5771071 Eh     change       -0.1377045E-02 Eh
 * total energy  :   -37.5776636 Eh     change       -0.5565781E-03 Eh
 * total energy  :   -37.5780353 Eh     change       -0.3716664E-03 Eh
 * total energy  :   -37.5782816 Eh     change       -0.2462898E-03 Eh
 * total energy  :   -37.5784262 Eh     change       -0.1446232E-03 Eh
 * total energy  :   -37.5785241 Eh     change       -0.9783241E-04 Eh
 * total energy  :   -37.5794139 Eh     change       -0.3211455E-04 Eh
 * total energy  :   -37.5794812 Eh     change       -0.6723241E-04 Eh
 * total energy  :   -37.5795088 Eh     change       -0.2761108E-04 Eh
 * total energy  :   -37.5795274 Eh     change       -0.1862740E-04 Eh
 * total energy  :   -37.5795361 Eh     change       -0.8655128E-05 Eh
 * total energy  :   -37.5795479 Eh     change       -0.1183291E-04 Eh
 * total energy  :   -37.5795575 Eh     change       -0.9564898E-05 Eh
 * total energy  :   -37.5795644 Eh     change       -0.6883006E-05 Eh
 * total energy  :   -37.5795688 Eh     change       -0.4409633E-05 Eh
   *** GEOMETRY OPTIMIZATION CONVERGED AFTER 35 ITERATIONS ***

 final structure:
================
20
 xtb: 6.5.1 (579679a)
C            3.90045851088027        0.40585713850700        0.16530799122714
O            2.58891670220526        0.73493578406403       -0.33442678593886
C            1.58408265545698        0.03659494937510        0.12624347076554
O            1.63395271790468       -0.85641842021375        0.92982663165623
C            0.29869307447516        0.49895615480614       -0.48924970839901
N            0.07341195547105        1.44202171864054       -1.32315513946916
N           -1.26158249905902        1.48050043086464       -1.59369684707528
C           -1.85185871325531        0.56198967714904       -0.92655027464640
C           -3.27726629426167        0.20646139529237       -0.89095289227494
O           -0.90504452135419       -0.13549181027440       -0.16950574682601
C           -1.09752188954041       -1.24947636039236        0.76332494124140
H            3.91541224777292        0.52062616492618        1.24998936421399
H            4.58721654157259        1.10205846391126       -0.31034137194025
H            4.14179213322631       -0.62422942507702       -0.10088002313557
H           -3.67310032137407        0.31666511707718        0.11925035327574
H           -3.41831501713488       -0.82948094400377       -1.20045038191700
H           -3.81808443549996        0.86558148385681       -1.56805939865859
H           -2.15501610282632       -1.49225102683046        0.74108245485342
H           -0.78101851097987       -0.90834817622109        1.74707592790868
H           -0.48512923367946       -2.07655331545742        0.41064943513877

          :  Hamiltonian                  GFN1-xTB          :
         :: total energy             -37.579568766352 Eh    ::
         :: gradient norm              0.000858579784 Eh/a0 ::
         :: HOMO-LUMO gap              3.704441320843 eV    ::
         :: SCC energy               -37.928972451485 Eh    ::
         :: -> Gsolv                  -0.089894899530 Eh    ::
         :: repulsion energy           0.358126121386 Eh    ::

    * Orbital Energies and Occupations

         #    Occupation            Energy/Eh            Energy/eV
      -------------------------------------------------------------
         1        2.0000           -0.9754684             -26.5438
       ...           ...                  ...                  ...
        18        2.0000           -0.6071270             -16.5208
        19        2.0000           -0.6031901             -16.4136
        20        2.0000           -0.5993906             -16.3102
        21        2.0000           -0.5934448             -16.1485
        22        2.0000           -0.5857847             -15.9400
        23        2.0000           -0.5723319             -15.5739
        24        2.0000           -0.5624218             -15.3043
        25        2.0000           -0.5501838             -14.9713
        26        2.0000           -0.5416909             -14.7402
        27        2.0000           -0.5294283             -14.4065
        28        2.0000           -0.5288297             -14.3902
        29        2.0000           -0.5195514             -14.1377
        30        2.0000           -0.5140707             -13.9886 (HOMO)
        31                         -0.3779350             -10.2841 (LUMO)
        32                         -0.3209306              -8.7330
        33                         -0.2591658              -7.0523
        34                         -0.1946500              -5.2967
        35                         -0.1788739              -4.8674
        36                         -0.1551245              -4.2212
        37                         -0.1276453              -3.4734
        38                         -0.1187778              -3.2321
        39                         -0.1175024              -3.1974
        40                         -0.1042053              -2.8356
        41                         -0.0901327              -2.4526
       ...                                ...                  ...
        62                          0.7185283              19.5521
      -------------------------------------------------------------
                  HL-Gap            0.1361357 Eh            3.7044 eV

Wiberg/Mayer (AO) data.
largest (>0.10) Wiberg bond orders for each atom

     #   Z sym  total        # sym  WBO       # sym  WBO       # sym  WBO
 ---------------------------------------------------------------------------
     1   6 C    3.832 --    13 H    0.984    12 H    0.976    14 H    0.976
                             2 O    0.861
     2   8 O    2.245 --     3 C    1.178     1 C    0.861     4 O    0.154
     3   6 C    3.879 --     4 O    1.670     2 O    1.178     5 C    0.962
     4   8 O    1.975 --     3 C    1.670     2 O    0.154
     5   6 C    3.810 --     6 N    1.707     3 C    0.962    10 O    0.883
     6   7 N    3.040 --     5 C    1.707     7 N    1.159
     7   7 N    3.024 --     8 C    1.683     6 N    1.159
     8   6 C    3.800 --     7 N    1.683     9 C    1.046    10 O    0.881
     9   6 C    3.967 --     8 C    1.046    17 H    0.968    16 H    0.948
                            15 H    0.948
    10   8 O    2.654 --     5 C    0.883     8 C    0.881    11 C    0.742
    11   6 C    3.717 --    18 H    0.973    19 H    0.967    20 H    0.967
                            10 O    0.742
    12   1 H    0.999 --     1 C    0.976
    13   1 H    1.005 --     1 C    0.984
    14   1 H    0.999 --     1 C    0.976
    15   1 H    0.987 --     9 C    0.948
    16   1 H    0.987 --     9 C    0.948
    17   1 H    0.988 --     9 C    0.968
    18   1 H    0.989 --    11 C    0.973
    19   1 H    0.995 --    11 C    0.967
    20   1 H    0.996 --    11 C    0.967
 ---------------------------------------------------------------------------

           -------------------------------------------------
          | TOTAL ENERGY              -37.579568766352 Eh   |
          | GRADIENT NORM               0.000858579784 Eh/α |
          | HOMO-LUMO GAP               3.704441320843 eV   |
           -------------------------------------------------

 * finished run on 2023/06/20 at 14:54:44.691
