   * xtb version 6.5.1 (579679a) compiled by 'ehlert@majestix' on 2022-07-11
          program call               : /lustre/hpc/kemi/ree/PhD/git/ReactivityQM/dep/xtb-6.5.1/bin/xtb --gfn 1 /lustre/hpc/kemi/ree/PhD/git/ReactivityQM/calculations/R02/reac01prodE12/conf01/R02_reac01prodE12_conf01_gfn1.xyz --opt --vfukui --chrg -1 --uhf 0 --alpb DMSO

   ID    Z sym.   atoms
    1    6 C      1, 3, 5, 6, 8, 9, 12-15, 17, 19, 22, 23
    2    8 O      2, 4, 7, 10, 18, 24
    3    7 N      11, 16, 20, 21, 25
    4    1 H      26-43

      * Solvation model:               ALPB
        Solvent                        DMSO
        Solvent mass                       7.8130E+01 g/mol
          :  Hamiltonian                  GFN1-xTB          :
 * total energy  :   -83.8497024 Eh     change       -0.4249046E-11 Eh
 * total energy  :   -83.8619016 Eh     change       -0.1219915E-01 Eh
 * total energy  :   -83.8670782 Eh     change       -0.5176586E-02 Eh
 * total energy  :   -83.8681044 Eh     change       -0.1026219E-02 Eh
 * total energy  :   -83.8686897 Eh     change       -0.5853434E-03 Eh
 * total energy  :   -83.8689426 Eh     change       -0.2528985E-03 Eh
 * total energy  :   -83.8691205 Eh     change       -0.1778839E-03 Eh
 * total energy  :   -83.8692391 Eh     change       -0.1185417E-03 Eh
 * total energy  :   -83.8693477 Eh     change       -0.1086167E-03 Eh
 * total energy  :   -83.8694654 Eh     change       -0.1176844E-03 Eh
 * total energy  :   -83.8710243 Eh     change       -0.9727925E-05 Eh
 * total energy  :   -83.8710362 Eh     change       -0.1192964E-04 Eh
 * total energy  :   -83.8710483 Eh     change       -0.1205910E-04 Eh
 * total energy  :   -83.8710566 Eh     change       -0.8327028E-05 Eh
 * total energy  :   -83.8710639 Eh     change       -0.7269778E-05 Eh
 * total energy  :   -83.8710722 Eh     change       -0.8372536E-05 Eh
 * total energy  :   -83.8710807 Eh     change       -0.8435880E-05 Eh
 * total energy  :   -83.8710867 Eh     change       -0.6023918E-05 Eh
 * total energy  :   -83.8710908 Eh     change       -0.4091979E-05 Eh
   *** GEOMETRY OPTIMIZATION CONVERGED AFTER 56 ITERATIONS ***

 final structure:
================
43
 xtb: 6.5.1 (579679a)
C            5.16582438010153        2.97036596072102        0.93642921854779
O            4.02210700335213        2.13369435021463        0.79776119450164
C            3.99101580452046        1.34863387438305       -0.29797432744755
O            4.90758598134404        1.36761969291509       -1.11910506581364
C            2.82056451645476        0.49747774989460       -0.40038701014871
C            2.64143285036759       -0.34727449769068       -1.45843131951449
O            3.50936266377858       -0.44858211667136       -2.47226589054983
C            1.34111981470631       -1.20446099147517       -1.57670947135602
C            1.72294190495548       -2.59480057801416       -2.16106236789331
O            0.34110100997231       -0.60445472941992       -2.14365220642637
N            1.04136016182029       -1.47830022242862       -0.07342110054225
C            0.96034563723893       -0.32563906424362        0.65880035039296
C           -0.28307200391171       -0.14139822383610        1.51470306664740
C           -0.24232795187923        1.20709703867330        2.23834295431343
C           -0.46132571508880       -1.28997276973476        2.51342497637650
N           -1.37398842870404       -0.14975677299670        0.52580120766809
C           -2.66593829490440       -0.01316242500390        0.83920300965700
O           -3.11936327089577        0.13310978436506        1.96734777292588
C           -3.53632247613314       -0.04771287404849       -0.37200802365413
N           -3.15321171017200       -0.12739360004033       -1.60859895215807
N           -4.28279517245830       -0.11668526414197       -2.37401008361876
C           -5.28287763930786       -0.03005244281106       -1.55378001466675
C           -6.72395891054365        0.01643164207422       -1.88782614207814
O           -4.88037383128843        0.01954952372975       -0.27512977220054
N            1.81783560224382        0.62895206047249        0.58339635969368
H            6.07715713636638        2.36763581811062        0.98538527517460
H            5.24152088660076        3.66055311149869        0.09123098805583
H            5.03947830078401        3.52896183172444        1.86253570217735
H            4.27741307953571        0.15182635798657       -2.32888241251678
H            0.84006076008216       -3.23084992571419       -2.15783597541897
H            2.51120865904807       -3.06177914800124       -1.57349734830851
H            2.06119874631729       -2.46352150020206       -3.18761192132078
H            0.21634639823896       -2.06085086923385       -0.00204338904465
H            0.63860444023656        1.24216984176972        2.87788470543886
H           -0.17877776107609        2.01894775582453        1.51399493252723
H           -1.13238042610861        1.34053085614238        2.85044222715472
H           -0.56293600496481       -2.23943779505832        1.99098136614798
H           -1.34969558381904       -1.12982724325272        3.12210284892784
H            0.40909955966210       -1.33797031537194        3.16623594200865
H           -1.10550875811347       -0.27629449011348       -0.45357539578130
H           -6.85184352359085       -0.04570488630217       -2.96538639479851
H           -7.24579885510085       -0.81224620367895       -1.41031390481697
H           -7.16218997966920        0.94457069898335       -1.52207960825805

          :  Hamiltonian                  GFN1-xTB          :
         :: total energy             -83.871090781650 Eh    ::
         :: gradient norm              0.000347773937 Eh/a0 ::
         :: HOMO-LUMO gap              1.654135777005 eV    ::
         :: SCC energy               -84.627241040021 Eh    ::
         :: -> Gsolv                  -0.114252222660 Eh    ::
         :: repulsion energy           0.782716730697 Eh    ::

    * Orbital Energies and Occupations

         #    Occupation            Energy/Eh            Energy/eV
      -------------------------------------------------------------
         1        2.0000           -0.8521406             -23.1879
       ...           ...                  ...                  ...
        56        2.0000           -0.4702573             -12.7964
        57        2.0000           -0.4624731             -12.5845
        58        2.0000           -0.4582872             -12.4706
        59        2.0000           -0.4495192             -12.2320
        60        2.0000           -0.4473435             -12.1728
        61        2.0000           -0.4424774             -12.0404
        62        2.0000           -0.4358254             -11.8594
        63        2.0000           -0.4281089             -11.6494
        64        2.0000           -0.4206717             -11.4471
        65        2.0000           -0.3956091             -10.7651
        66        2.0000           -0.3778542             -10.2819
        67        2.0000           -0.3575815              -9.7303
        68        2.0000           -0.3545432              -9.6476 (HOMO)
        69                         -0.2937548              -7.9935 (LUMO)
        70                         -0.2690968              -7.3225
        71                         -0.2465327              -6.7085
        72                         -0.2296761              -6.2498
        73                         -0.1824384              -4.9644
        74                         -0.1402806              -3.8172
        75                         -0.1385118              -3.7691
        76                         -0.1274460              -3.4680
        77                         -0.1107040              -3.0124
        78                         -0.1050751              -2.8592
        79                         -0.0922619              -2.5106
       ...                                ...                  ...
       136                          0.7275278              19.7970
      -------------------------------------------------------------
                  HL-Gap            0.0607884 Eh            1.6541 eV

Wiberg/Mayer (AO) data.
largest (>0.10) Wiberg bond orders for each atom

     #   Z sym  total        # sym  WBO       # sym  WBO       # sym  WBO
 ---------------------------------------------------------------------------
     1   6 C    3.889 --    28 H    0.987    26 H    0.980    27 H    0.980
                             2 O    0.915
     2   8 O    2.173 --     3 C    1.072     1 C    0.915     4 O    0.108
     3   6 C    3.842 --     4 O    1.548     5 C    1.103     2 O    1.072
     4   8 O    1.899 --     3 C    1.548     2 O    0.108
     5   6 C    3.942 --     6 C    1.544     3 C    1.103    25 N    1.061
     6   6 C    3.862 --     5 C    1.544     7 O    1.116     8 C    0.898
     7   8 O    2.087 --     6 C    1.116    29 H    0.789
     8   6 C    3.924 --    10 O    1.231     9 C    0.946     6 C    0.898
                            11 N    0.775
     9   6 C    3.994 --    31 H    0.991    30 H    0.987    32 H    0.985
                             8 C    0.946
    10   8 O    1.573 --     8 C    1.231
    11   7 N    3.195 --    12 C    1.183    33 H    0.930     8 C    0.775
                            25 N    0.140
    12   6 C    3.953 --    25 N    1.644    11 N    1.183    13 C    0.966
    13   6 C    3.931 --    14 C    0.995    15 C    0.989    12 C    0.966
                            16 N    0.912
    14   6 C    3.994 --    13 C    0.995    34 H    0.985    35 H    0.985
                            36 H    0.984
    15   6 C    3.993 --    13 C    0.989    39 H    0.986    37 H    0.983
                            38 H    0.982
    16   7 N    3.383 --    17 C    1.300    13 C    0.912    40 H    0.874
                            18 O    0.186
    17   6 C    3.924 --    18 O    1.560    16 N    1.300    19 C    0.981
    18   8 O    1.882 --    17 C    1.560    16 N    0.186
    19   6 C    3.869 --    20 N    1.623    24 O    1.056    17 C    0.981
    20   7 N    3.012 --    19 C    1.623    21 N    1.192
    21   7 N    2.980 --    22 C    1.615    20 N    1.192
    22   6 C    3.875 --    21 N    1.615    24 O    1.082    23 C    1.030
    23   6 C    3.988 --    22 C    1.030    41 H    0.983    42 H    0.965
                            43 H    0.965
    24   8 O    2.321 --    22 C    1.082    19 C    1.056
    25   7 N    2.995 --    12 C    1.644     5 C    1.061    11 N    0.140
    26   1 H    1.012 --     1 C    0.980
    27   1 H    1.012 --     1 C    0.980
    28   1 H    1.014 --     1 C    0.987
    29   1 H    0.872 --     7 O    0.789
    30   1 H    1.012 --     9 C    0.987
    31   1 H    1.012 --     9 C    0.991
    32   1 H    1.015 --     9 C    0.985
    33   1 H    0.972 --    11 N    0.930
    34   1 H    1.013 --    14 C    0.985
    35   1 H    1.016 --    14 C    0.985
    36   1 H    1.012 --    14 C    0.984
    37   1 H    1.005 --    15 C    0.983
    38   1 H    1.012 --    15 C    0.982
    39   1 H    1.004 --    15 C    0.986
    40   1 H    0.977 --    16 N    0.874
    41   1 H    1.000 --    23 C    0.983
    42   1 H    0.998 --    23 C    0.965
    43   1 H    0.998 --    23 C    0.965
 ---------------------------------------------------------------------------

           -------------------------------------------------
          | TOTAL ENERGY              -83.871090781650 Eh   |
          | GRADIENT NORM               0.000347773937 Eh/α |
          | HOMO-LUMO GAP               1.654135777005 eV   |
           -------------------------------------------------

 * finished run on 2023/06/20 at 15:13:36.414
