                         Program Version 5.0.1 -  RELEASE  -
|  1> # ORCA input file
|  2> ! SP r2SCAN-3c CPCM
|  3>
|  4> %maxcore 1875.0
|  5> %pal nprocs 4 end
|  6> %cpcm smd true SMDsolvent "DMSO" end
|  7>
|  8> *xyz 1 1
|  9> C      -1.967799   -0.436696   -3.841699
| 10> O      -1.839579   -0.420475   -2.412475
| 11> C      -2.961235   -0.524959   -1.717425
| 12> O      -4.061688   -0.628750   -2.226186
| 13> C      -2.759248   -0.505801   -0.249966
| 14> N      -1.466858   -0.387867    0.203936
| 15> C      -1.250180   -0.367569    1.475537
| 16> C       0.179257   -0.157201    1.931278
| 17> C       0.434459    1.352033    2.010775
| 18> C       0.533221   -0.854537    3.237037
| 19> N       1.000323   -0.700621    0.775139
| 20> C       1.047720   -2.183832    0.695572
| 21> C       2.413043   -0.181752    0.756847
| 22> O       3.181592   -0.514826    1.601175
| 23> C       2.604156    0.661165   -0.394422
| 24> N       1.678547    0.968335   -1.271809
| 25> N       2.252769    1.754503   -2.186762
| 26> C       3.510977    1.896937   -1.833946
| 27> C       4.555388    2.670281   -2.528915
| 28> O       3.779553    1.230744   -0.713226
| 29> N      -2.245521   -0.442033    2.393035
| 30> C      -3.592494   -0.572148    2.067354
| 31> O      -4.436340   -0.647801    2.934365
| 32> C      -3.822433   -0.597622    0.614690
| 33> O      -5.086590   -0.713520    0.228302
| 34> H      -0.956256   -0.416299   -4.241338
| 35> H      -2.528215    0.440557   -4.173224
| 36> H      -2.486932   -1.344253   -4.157820
| 37> H       1.445304    1.551363    2.361317
| 38> H       0.291320    1.808050    1.031914
| 39> H      -0.273488    1.791241    2.711766
| 40> H       0.181163   -1.883801    3.244725
| 41> H       0.067071   -0.318081    4.062153
| 42> H       1.611225   -0.840189    3.387287
| 43> H       0.502030   -0.363734   -0.072401
| 44> H       0.028534   -2.554581    0.754513
| 45> H       1.492913   -2.443274   -0.261835
| 46> H       1.655579   -2.563782    1.511192
| 47> H       4.150838    3.099485   -3.442322
| 48> H       5.398987    2.020638   -2.764171
| 49> H       4.919590    3.465196   -1.876881
| 50> H      -2.031564   -0.418703    3.378695
| 51> H      -5.149136   -0.725821   -0.755970
| 52> **                         ****END OF INPUT****

CARTESIAN COORDINATES (ANGSTROEM)
---------------------------------
  C     -1.967799   -0.436696   -3.841699
  O     -1.839579   -0.420475   -2.412475
  C     -2.961235   -0.524959   -1.717425
  O     -4.061688   -0.628750   -2.226186
  C     -2.759248   -0.505801   -0.249966
  N     -1.466858   -0.387867    0.203936
  C     -1.250180   -0.367569    1.475537
  C      0.179257   -0.157201    1.931278
  C      0.434459    1.352033    2.010775
  C      0.533221   -0.854537    3.237037
  N      1.000323   -0.700621    0.775139
  C      1.047720   -2.183832    0.695572
  C      2.413043   -0.181752    0.756847
  O      3.181592   -0.514826    1.601175
  C      2.604156    0.661165   -0.394422
  N      1.678547    0.968335   -1.271809
  N      2.252769    1.754503   -2.186762
  C      3.510977    1.896937   -1.833946
  C      4.555388    2.670281   -2.528915
  O      3.779553    1.230744   -0.713226
  N     -2.245521   -0.442033    2.393035
  C     -3.592494   -0.572148    2.067354
  O     -4.436340   -0.647801    2.934365
  C     -3.822433   -0.597622    0.614690
  O     -5.086590   -0.713520    0.228302
  H     -0.956256   -0.416299   -4.241338
  H     -2.528215    0.440557   -4.173224
  H     -2.486932   -1.344253   -4.157820
  H      1.445304    1.551363    2.361317
  H      0.291320    1.808050    1.031914
  H     -0.273488    1.791241    2.711766
  H      0.181163   -1.883801    3.244725
  H      0.067071   -0.318081    4.062153
  H      1.611225   -0.840189    3.387287
  H      0.502030   -0.363734   -0.072401
  H      0.028534   -2.554581    0.754513
  H      1.492913   -2.443274   -0.261835
  H      1.655579   -2.563782    1.511192
  H      4.150838    3.099485   -3.442322
  H      5.398987    2.020638   -2.764171
  H      4.919590    3.465196   -1.876881
  H     -2.031564   -0.418703    3.378695
  H     -5.149136   -0.725821   -0.755970

 Total Charge           Charge          ....    1
 Multiplicity           Mult            ....    1
 Number of Electrons    NEL             ....  184
 Basis Dimension        Dim             ....  620

ORBITAL ENERGIES
----------------

  NO   OCC          E(Eh)            E(eV)
   0   2.0000     -19.093352      -519.5565
   1   2.0000     -19.016839      -517.4745
   2   2.0000     -19.013759      -517.3907
   3   2.0000     -19.006614      -517.1963
   4   2.0000     -18.963346      -516.0189
   5   2.0000     -18.944536      -515.5070
   6   2.0000     -14.296996      -389.0410
   7   2.0000     -14.244000      -387.5989
   8   2.0000     -14.242198      -387.5499
   9   2.0000     -14.224028      -387.0555
  10   2.0000     -14.187321      -386.0566
  11   2.0000     -10.218155      -278.0501
  12   2.0000     -10.181648      -277.0567
  13   2.0000     -10.176825      -276.9255
  14   2.0000     -10.175847      -276.8989
  15   2.0000     -10.164049      -276.5778
  16   2.0000     -10.146729      -276.1065
  17   2.0000     -10.137938      -275.8673
  18   2.0000     -10.137387      -275.8523
  19   2.0000     -10.104924      -274.9690
  20   2.0000     -10.087454      -274.4936
  21   2.0000     -10.084014      -274.4000
  22   2.0000     -10.055976      -273.6370
  23   2.0000     -10.046100      -273.3683
  24   2.0000     -10.042493      -273.2701
  25   2.0000      -1.186868       -32.2963
  26   2.0000      -1.100295       -29.9405
  27   2.0000      -1.096388       -29.8342
  28   2.0000      -1.064493       -28.9663
  29   2.0000      -1.035048       -28.1651
  30   2.0000      -1.013320       -27.5738
  31   2.0000      -1.005374       -27.3576
  32   2.0000      -1.001131       -27.2422
  33   2.0000      -0.974800       -26.5256
  34   2.0000      -0.897503       -24.4223
  35   2.0000      -0.861532       -23.4435
  36   2.0000      -0.813708       -22.1421
  37   2.0000      -0.766702       -20.8630
  38   2.0000      -0.749889       -20.4055
  39   2.0000      -0.721622       -19.6363
  40   2.0000      -0.712935       -19.4000
  41   2.0000      -0.696183       -18.9441
  42   2.0000      -0.675519       -18.3818
  43   2.0000      -0.671825       -18.2813
  44   2.0000      -0.654603       -17.8126
  45   2.0000      -0.643668       -17.5151
  46   2.0000      -0.615861       -16.7584
  47   2.0000      -0.587043       -15.9743
  48   2.0000      -0.580676       -15.8010
  49   2.0000      -0.572747       -15.5852
  50   2.0000      -0.557830       -15.1793
  51   2.0000      -0.542291       -14.7565
  52   2.0000      -0.527310       -14.3488
  53   2.0000      -0.512614       -13.9489
  54   2.0000      -0.507323       -13.8050
  55   2.0000      -0.494534       -13.4570
  56   2.0000      -0.488057       -13.2807
  57   2.0000      -0.474871       -12.9219
  58   2.0000      -0.471072       -12.8185
  59   2.0000      -0.466627       -12.6976
  60   2.0000      -0.461842       -12.5674
  61   2.0000      -0.452693       -12.3184
  62   2.0000      -0.443616       -12.0714
  63   2.0000      -0.430887       -11.7250
  64   2.0000      -0.423741       -11.5306
  65   2.0000      -0.419396       -11.4123
  66   2.0000      -0.410600       -11.1730
  67   2.0000      -0.401549       -10.9267
  68   2.0000      -0.398615       -10.8469
  69   2.0000      -0.396998       -10.8029
  70   2.0000      -0.392700       -10.6859
  71   2.0000      -0.390239       -10.6190
  72   2.0000      -0.388912       -10.5828
  73   2.0000      -0.380285       -10.3481
  74   2.0000      -0.377905       -10.2833
  75   2.0000      -0.374144       -10.1810
  76   2.0000      -0.372739       -10.1427
  77   2.0000      -0.369702       -10.0601
  78   2.0000      -0.363169        -9.8823
  79   2.0000      -0.355515        -9.6741
  80   2.0000      -0.348803        -9.4914
  81   2.0000      -0.338579        -9.2132
  82   2.0000      -0.334472        -9.1015
  83   2.0000      -0.307834        -8.3766
  84   2.0000      -0.298970        -8.1354
  85   2.0000      -0.294852        -8.0233
  86   2.0000      -0.290525        -7.9056
  87   2.0000      -0.289660        -7.8820
  88   2.0000      -0.286127        -7.7859
  89   2.0000      -0.265793        -7.2326
  90   2.0000      -0.255586        -6.9548
  91   2.0000      -0.224269        -6.1027
  92   0.0000      -0.151321        -4.1177
  93   0.0000      -0.105595        -2.8734
  94   0.0000      -0.059059        -1.6071
  95   0.0000      -0.045680        -1.2430
  96   0.0000      -0.002927        -0.0797

MULLIKEN ATOMIC CHARGES
-----------------------
   0 C :   -0.310897
   1 O :   -0.186782
   2 C :    0.230673
   3 O :   -0.476578
   4 C :    0.138550
   5 N :   -0.178966
   6 C :    0.265227
   7 C :    0.028827
   8 C :   -0.606389
   9 C :   -0.548180
  10 N :   -0.186308
  11 C :   -0.323251
  12 C :   -0.113374
  13 O :   -0.292600
  14 C :    0.400667
  15 N :   -0.036554
  16 N :   -0.322160
  17 C :    0.449175
  18 C :   -0.629840
  19 O :   -0.002757
  20 N :   -0.008256
  21 C :    0.095818
  22 O :   -0.381365
  23 C :    0.068276
  24 O :   -0.351563
  25 H :    0.182401
  26 H :    0.182896
  27 H :    0.181261
  28 H :    0.221348
  29 H :    0.223868
  30 H :    0.212421
  31 H :    0.213419
  32 H :    0.211409
  33 H :    0.216909
  34 H :    0.433068
  35 H :    0.214752
  36 H :    0.216051
  37 H :    0.220359
  38 H :    0.213714
  39 H :    0.212534
  40 H :    0.214295
  41 H :    0.330310
  42 H :    0.377588
Sum of atomic charges:    1.0000000

LOEWDIN ATOMIC CHARGES
----------------------
   0 C :   -0.029296
   1 O :   -0.555770
   2 C :    0.408768
   3 O :   -0.456412
   4 C :    0.207115
   5 N :   -0.563935
   6 C :    0.356378
   7 C :    0.114201
   8 C :   -0.321062
   9 C :   -0.341448
  10 N :   -0.721683
  11 C :   -0.061107
  12 C :    0.428936
  13 O :   -0.308798
  14 C :    0.399812
  15 N :   -0.323896
  16 N :   -0.311242
  17 C :    0.415736
  18 C :   -0.306895
  19 O :   -0.333414
  20 N :   -0.422510
  21 C :    0.378242
  22 O :   -0.417156
  23 C :    0.290484
  24 O :   -0.428508
  25 H :    0.189385
  26 H :    0.185610
  27 H :    0.186394
  28 H :    0.185250
  29 H :    0.187923
  30 H :    0.190705
  31 H :    0.185011
  32 H :    0.187744
  33 H :    0.193324
  34 H :    0.345454
  35 H :    0.214339
  36 H :    0.211782
  37 H :    0.210626
  38 H :    0.196970
  39 H :    0.200735
  40 H :    0.201681
  41 H :    0.312872
  42 H :    0.317653

  Mayer bond orders larger than 0.100000
B(  0-C ,  1-O ) :   0.8181 B(  0-C , 25-H ) :   0.9605 B(  0-C , 26-H ) :   0.9518
B(  0-C , 27-H ) :   0.9533 B(  1-O ,  2-C ) :   1.2045 B(  2-C ,  3-O ) :   1.7275
B(  2-C ,  4-C ) :   1.0641 B(  4-C ,  5-N ) :   1.0232 B(  4-C , 23-C ) :   1.2913
B(  5-N ,  6-C ) :   1.6229 B(  5-N , 20-N ) :   0.1063 B(  6-C ,  7-C ) :   0.8761
B(  6-C , 20-N ) :   1.1810 B(  6-C , 23-C ) :   0.1035 B(  7-C ,  8-C ) :   0.9336
B(  7-C ,  9-C ) :   0.9782 B(  7-C , 10-N ) :   0.9070 B(  8-C , 28-H ) :   0.9324
B(  8-C , 29-H ) :   0.9444 B(  8-C , 30-H ) :   0.9273 B(  9-C , 31-H ) :   0.9398
B(  9-C , 32-H ) :   0.9369 B(  9-C , 33-H ) :   0.9455 B( 10-N , 11-C ) :   0.8899
B( 10-N , 12-C ) :   0.6440 B( 10-N , 14-C ) :   0.1128 B( 10-N , 34-H ) :   0.7267
B( 11-C , 35-H ) :   0.9226 B( 11-C , 36-H ) :   0.9269 B( 11-C , 37-H ) :   0.9238
B( 12-C , 13-O ) :   2.1380 B( 12-C , 14-C ) :   0.8411 B( 13-O , 14-C ) :  -0.1209
B( 14-C , 15-N ) :   1.5185 B( 14-C , 16-N ) :   0.1072 B( 14-C , 17-C ) :   0.1012
B( 14-C , 19-O ) :   1.1200 B( 15-N , 16-N ) :   1.2206 B( 16-N , 17-C ) :   1.4573
B( 17-C , 18-C ) :   0.8522 B( 17-C , 19-O ) :   1.0971 B( 18-C , 38-H ) :   0.9796
B( 18-C , 39-H ) :   0.9356 B( 18-C , 40-H ) :   0.9287 B( 20-N , 21-C ) :   0.9777
B( 20-N , 41-H ) :   0.8803 B( 21-C , 22-O ) :   2.0722 B( 21-C , 23-C ) :   0.9841
B( 23-C , 24-O ) :   1.1688 B( 24-O , 42-H ) :   0.7676

Dispersion correction           -0.020324210
FINAL SINGLE POINT ENERGY     -1269.081409799785

DIPOLE MOMENT
-------------
                                X             Y             Z
Electronic contribution:     -8.10632      -0.50084       0.27249
Nuclear contribution   :     13.61502       0.63945      -0.16456
                        -----------------------------------------
Total Dipole Moment    :      5.50870       0.13861       0.10793
                        -----------------------------------------
Magnitude (a.u.)       :      5.51150
Magnitude (Debye)      :     14.00912

Rotational constants in cm-1:     0.011045     0.005026     0.003800
Rotational constants in MHz :   331.115785   150.671579   113.924947

                             ****ORCA TERMINATED NORMALLY****
TOTAL RUN TIME: 0 days 0 hours 2 minutes 44 seconds 438 msec
