   * xtb version 6.5.1 (579679a) compiled by 'ehlert@majestix' on 2022-07-11
          program call               : /lustre/hpc/kemi/ree/PhD/git/ReactivityQM/dep/xtb-6.5.1/bin/xtb --gfn 1 /lustre/hpc/kemi/ree/PhD/git/ReactivityQM/calculations/R02/reac01prodN17/conf14/R02_reac01prodN17_conf14_gfn1.xyz --opt --vfukui --chrg 1 --uhf 0 --alpb DMSO

   ID    Z sym.   atoms
    1    6 C      1, 3, 5, 7-10, 12, 13, 15, 18, 19, 22, 24
    2    8 O      2, 4, 14, 20, 23, 25
    3    7 N      6, 11, 16, 17, 21
    4    1 H      26-43

      * Solvation model:               ALPB
        Solvent                        DMSO
        Solvent mass                       7.8130E+01 g/mol
          :  Hamiltonian                  GFN1-xTB          :
 * total energy  :   -83.1293844 Eh     change       -0.3197442E-10 Eh
 * total energy  :   -83.1435484 Eh     change       -0.1416401E-01 Eh
 * total energy  :   -83.1490876 Eh     change       -0.5539139E-02 Eh
 * total energy  :   -83.1502102 Eh     change       -0.1122578E-02 Eh
 * total energy  :   -83.1507358 Eh     change       -0.5256689E-03 Eh
 * total energy  :   -83.1509825 Eh     change       -0.2466642E-03 Eh
 * total energy  :   -83.1512117 Eh     change       -0.2291718E-03 Eh
 * total energy  :   -83.1514484 Eh     change       -0.2367646E-03 Eh
 * total energy  :   -83.1516927 Eh     change       -0.2442794E-03 Eh
 * total energy  :   -83.1519501 Eh     change       -0.2574366E-03 Eh
 * total energy  :   -83.1550141 Eh     change       -0.2998451E-04 Eh
 * total energy  :   -83.1550277 Eh     change       -0.1359209E-04 Eh
 * total energy  :   -83.1550413 Eh     change       -0.1361041E-04 Eh
 * total energy  :   -83.1550529 Eh     change       -0.1161860E-04 Eh
 * total energy  :   -83.1550628 Eh     change       -0.9859847E-05 Eh
 * total energy  :   -83.1550720 Eh     change       -0.9251309E-05 Eh
 * total energy  :   -83.1550804 Eh     change       -0.8371120E-05 Eh
 * total energy  :   -83.1550868 Eh     change       -0.6381242E-05 Eh
 * total energy  :   -83.1550913 Eh     change       -0.4528246E-05 Eh
   *** GEOMETRY OPTIMIZATION CONVERGED AFTER 55 ITERATIONS ***

 final structure:
================
43
 xtb: 6.5.1 (579679a)
C           -1.96779912762153       -0.43669581256670       -3.84169921968105
O           -1.83957880824566       -0.42047529236889       -2.41247537287516
C           -2.96123527072651       -0.52495892525898       -1.71742463080960
O           -4.06168767163328       -0.62875007386101       -2.22618639324314
C           -2.75924848724750       -0.50580138432639       -0.24996593056177
N           -1.46685791792405       -0.38786698484735        0.20393574707670
C           -1.25018046584076       -0.36756876692973        1.47553691866874
C            0.17925687776069       -0.15720106676272        1.93127822198650
C            0.43445925419279        1.35203339736483        2.01077465092335
C            0.53322100242317       -0.85453669175101        3.23703726846674
N            1.00032254341379       -0.70062096714192        0.77513931993372
C            1.04771955417880       -2.18383186677367        0.69557203292025
C            2.41304335060937       -0.18175248350166        0.75684675729953
O            3.18159166394173       -0.51482620340994        1.60117474856139
C            2.60415591704956        0.66116478379849       -0.39442158993004
N            1.67854657423929        0.96833532851592       -1.27180924910399
N            2.25276855363477        1.75450307125638       -2.18676199850663
C            3.51097735307488        1.89693704564239       -1.83394558326442
C            4.55538775202784        2.67028125423457       -2.52891489937914
O            3.77955347120389        1.23074373156344       -0.71322600648744
N           -2.24552146680125       -0.44203307367765        2.39303509320952
C           -3.59249430517445       -0.57214812646695        2.06735361072232
O           -4.43634033282110       -0.64780065615057        2.93436508396297
C           -3.82243342710867       -0.59762207939628        0.61469046273188
O           -5.08658974342264       -0.71352024928095        0.22830220522288
H           -0.95625576441358       -0.41629859058168       -4.24133822992949
H           -2.52821530340960        0.44055690417758       -4.17322440056688
H           -2.48693238221943       -1.34425304947093       -4.15782016371195
H            1.44530377297468        1.55136275217857        2.36131745780196
H            0.29132024669408        1.80804980347046        1.03191370869022
H           -0.27348823593866        1.79124131017234        2.71176560158120
H            0.18116308706697       -1.88380089912518        3.24472502304880
H            0.06707111387922       -0.31808117034108        4.06215327514707
H            1.61122521627569       -0.84018856087459        3.38728663196728
H            0.50202952091275       -0.36373426788418       -0.07240126481755
H            0.02853356837710       -2.55458132474577        0.75451325307506
H            1.49291327800502       -2.44327436012492       -0.26183458298197
H            1.65557879026676       -2.56378170814491        1.51119203620600
H            4.15083802190382        3.09948482979952       -3.44232176461202
H            5.39898692042229        2.02063770794930       -2.76417100193747
H            4.91959031319363        3.46519565690726       -1.87688126834827
H           -2.03156391854839       -0.41870325300061        3.37869486521797
H           -5.14913608863609       -0.72582068831804       -0.75597042370143

          :  Hamiltonian                  GFN1-xTB          :
         :: total energy             -83.155091298338 Eh    ::
         :: gradient norm              0.000455052716 Eh/a0 ::
         :: HOMO-LUMO gap              1.696864690361 eV    ::
         :: SCC energy               -83.947629506916 Eh    ::
         :: -> Gsolv                  -0.115630461664 Eh    ::
         :: repulsion energy           0.821265808945 Eh    ::

    * Orbital Energies and Occupations

         #    Occupation            Energy/Eh            Energy/eV
      -------------------------------------------------------------
         1        2.0000           -0.9062247             -24.6596
       ...           ...                  ...                  ...
        55        2.0000           -0.5414078             -14.7325
        56        2.0000           -0.5339691             -14.5300
        57        2.0000           -0.5267924             -14.3348
        58        2.0000           -0.5250960             -14.2886
        59        2.0000           -0.5209384             -14.1755
        60        2.0000           -0.5120143             -13.9326
        61        2.0000           -0.5060314             -13.7698
        62        2.0000           -0.5053363             -13.7509
        63        2.0000           -0.4955311             -13.4841
        64        2.0000           -0.4933257             -13.4241
        65        2.0000           -0.4847397             -13.1904
        66        2.0000           -0.4680459             -12.7362
        67        2.0000           -0.4493421             -12.2272 (HOMO)
        68                         -0.3869835             -10.5304 (LUMO)
        69                         -0.3420270              -9.3070
        70                         -0.3098691              -8.4320
        71                         -0.2948066              -8.0221
        72                         -0.2615368              -7.1168
        73                         -0.2575085              -7.0072
        74                         -0.1779237              -4.8416
        75                         -0.1741404              -4.7386
        76                         -0.1623811              -4.4186
        77                         -0.1577385              -4.2923
        78                         -0.1486404              -4.0447
       ...                                ...                  ...
       136                          0.7243232              19.7098
      -------------------------------------------------------------
                  HL-Gap            0.0623586 Eh            1.6969 eV

Wiberg/Mayer (AO) data.
largest (>0.10) Wiberg bond orders for each atom

     #   Z sym  total        # sym  WBO       # sym  WBO       # sym  WBO
 ---------------------------------------------------------------------------
     1   6 C    3.860 --    26 H    0.986    28 H    0.979    27 H    0.979
                             2 O    0.886
     2   8 O    2.216 --     3 C    1.139     1 C    0.886     4 O    0.132
     3   6 C    3.853 --     4 O    1.614     2 O    1.139     5 C    1.017
     4   8 O    1.952 --     3 C    1.614     2 O    0.132
     5   6 C    3.957 --    24 C    1.487     6 N    1.161     3 C    1.017
     6   7 N    3.064 --     7 C    1.578     5 C    1.161
     7   6 C    3.943 --     6 N    1.578    21 N    1.194     8 C    0.979
     8   6 C    3.892 --    10 C    1.002     9 C    0.982     7 C    0.979
                            11 N    0.856
     9   6 C    3.980 --     8 C    0.982    30 H    0.982    31 H    0.978
                            29 H    0.977
    10   6 C    3.980 --     8 C    1.002    32 H    0.981    33 H    0.974
                            34 H    0.974
    11   7 N    3.596 --    12 C    0.897    13 C    0.860     8 C    0.856
                            35 H    0.848
    12   6 C    3.884 --    38 H    0.980    37 H    0.980    36 H    0.979
                            11 N    0.897
    13   6 C    3.881 --    14 O    1.792    15 C    1.086    11 N    0.860
    14   8 O    2.069 --    13 C    1.792
    15   6 C    3.890 --    16 N    1.510    13 C    1.086    20 O    1.059
    16   7 N    3.051 --    15 C    1.510    17 N    1.291
    17   7 N    2.991 --    18 C    1.506    16 N    1.291
    18   6 C    3.850 --    17 N    1.506    20 O    1.116    19 C    1.042
    19   6 C    3.976 --    18 C    1.042    39 H    0.979    40 H    0.953
                            41 H    0.950
    20   8 O    2.359 --    18 C    1.116    15 C    1.059
    21   7 N    3.461 --     7 C    1.194    22 C    1.095    42 H    0.878
                            23 O    0.132
    22   6 C    3.903 --    23 O    1.633    21 N    1.095    24 C    1.046
    23   8 O    1.930 --    22 C    1.633    21 N    0.132
    24   6 C    3.922 --     5 C    1.487    25 O    1.145    22 C    1.046
    25   8 O    2.111 --    24 C    1.145    43 H    0.770
    26   1 H    1.010 --     1 C    0.986
    27   1 H    1.004 --     1 C    0.979
    28   1 H    1.005 --     1 C    0.979
    29   1 H    0.993 --     9 C    0.977
    30   1 H    1.000 --     9 C    0.982
    31   1 H    0.994 --     9 C    0.978
    32   1 H    0.995 --    10 C    0.981
    33   1 H    0.993 --    10 C    0.974
    34   1 H    0.999 --    10 C    0.974
    35   1 H    0.975 --    11 N    0.848
    36   1 H    0.996 --    12 C    0.979
    37   1 H    0.989 --    12 C    0.980
    38   1 H    0.994 --    12 C    0.980
    39   1 H    0.994 --    19 C    0.979
    40   1 H    0.990 --    19 C    0.953
    41   1 H    0.990 --    19 C    0.950
    42   1 H    0.920 --    21 N    0.878
    43   1 H    0.845 --    25 O    0.770
 ---------------------------------------------------------------------------

           -------------------------------------------------
          | TOTAL ENERGY              -83.155091298338 Eh   |
          | GRADIENT NORM               0.000455052716 Eh/α |
          | HOMO-LUMO GAP               1.696864690361 eV   |
           -------------------------------------------------

 * finished run on 2023/06/20 at 15:43:31.782
