   * xtb version 6.5.1 (579679a) compiled by 'ehlert@majestix' on 2022-07-11
          program call               : /lustre/hpc/kemi/ree/PhD/git/ReactivityQM/dep/xtb-6.5.1/bin/xtb --gfn 1 /lustre/hpc/kemi/ree/PhD/git/ReactivityQM/calculations/R02oxygendeprot/reac01/conf01/R02oxygendeprot_reac01_conf01_gfn1.xyz --opt --vfukui --chrg -1 --uhf 0 --alpb DMSO

   ID    Z sym.   atoms
    1    6 C      1, 3, 5, 7-10, 12, 14, 17, 18, 21, 23
    2    8 O      2, 4, 13, 19, 22, 24
    3    7 N      6, 11, 15, 16, 20
    4    1 H      25-38

      * Solvation model:               ALPB
        Solvent                        DMSO
        Solvent mass                       7.8130E+01 g/mol
          :  Hamiltonian                  GFN1-xTB          :
 * total energy  :   -79.6042759 Eh     change       -0.3721823E-10 Eh
 * total energy  :   -79.6163072 Eh     change       -0.1203131E-01 Eh
 * total energy  :   -79.6205062 Eh     change       -0.4199002E-02 Eh
 * total energy  :   -79.6211208 Eh     change       -0.6145471E-03 Eh
 * total energy  :   -79.6215668 Eh     change       -0.4460655E-03 Eh
 * total energy  :   -79.6218021 Eh     change       -0.2352945E-03 Eh
 * total energy  :   -79.6220166 Eh     change       -0.2144503E-03 Eh
 * total energy  :   -79.6221718 Eh     change       -0.1552464E-03 Eh
 * total energy  :   -79.6222744 Eh     change       -0.1025663E-03 Eh
 * total energy  :   -79.6223427 Eh     change       -0.6833095E-04 Eh
 * total energy  :   -79.6226865 Eh     change       -0.6240886E-05 Eh
 * total energy  :   -79.6226957 Eh     change       -0.9183441E-05 Eh
 * total energy  :   -79.6227079 Eh     change       -0.1223258E-04 Eh
 * total energy  :   -79.6227199 Eh     change       -0.1197271E-04 Eh
 * total energy  :   -79.6227302 Eh     change       -0.1028764E-04 Eh
 * total energy  :   -79.6227378 Eh     change       -0.7607513E-05 Eh
 * total energy  :   -79.6227442 Eh     change       -0.6375685E-05 Eh
 * total energy  :   -79.6227494 Eh     change       -0.5222492E-05 Eh
 * total energy  :   -79.6227543 Eh     change       -0.4877358E-05 Eh
   *** GEOMETRY OPTIMIZATION CONVERGED AFTER 32 ITERATIONS ***

 final structure:
================
38
 xtb: 6.5.1 (579679a)
C           -6.39209994738099       -1.05999581176477        0.26731797717495
O           -5.15604196562178       -0.87450723829452       -0.40701824987509
C           -4.15781870413036       -0.32209267836249        0.32802658228192
O           -4.34561603119454       -0.01048583902525        1.49877880938998
C           -2.90258799748022       -0.14642783847256       -0.38691421116513
N           -1.91488540523182        0.41935024780772        0.39878569753890
C           -0.74925711204659        0.64569475421683       -0.07737887844585
C            0.31070424546593        1.32468673687445        0.76475205978918
C            0.48209285815226        2.76980996758902        0.27144868653705
C           -0.09764888379888        1.28945161087447        2.24060681700325
N            1.57233506769659        0.58760990512484        0.58175399949825
C            2.73199392221397        0.95181700080773        1.15617028140452
O            2.90112773881816        1.93153401926142        1.86634031794545
C            3.85102980102345        0.02481547423331        0.83645708830312
N            5.08116529018396        0.10607329933964        1.24007088112696
N            5.74387380425024       -0.95687330711484        0.70072394105381
C            4.87719326071729       -1.62109643247985        0.00188847719982
C            5.09978700352526       -2.85824938664482       -0.77765010428423
O            3.66012081440456       -1.05395007486948        0.04602962513095
N           -0.42583303970141        0.35391847072160       -1.38943827961656
C           -1.30605635809981       -0.20583032573871       -2.28150897502993
O           -0.94494397463571       -0.43024503579242       -3.43371172156536
C           -2.69110244115931       -0.49797903556319       -1.74605565509372
O           -3.52714645419029       -1.00675819327635       -2.51471783952678
H           -7.07792785515433       -1.52005075264622       -0.44308688905339
H           -6.26570024752306       -1.71391615504163        1.13593049999241
H           -6.79749002407697       -0.10085948189083        0.60492731623165
H            1.19461685591503        3.30688083113916        0.89417385287169
H           -0.47966380650785        3.27934723565108        0.31464848330346
H            0.83856735610945        2.77235889395588       -0.75716021641838
H           -0.16339623715027        0.25715871453513        2.58193111160900
H           -1.07428098859416        1.75881700823726        2.35385382434481
H            0.62965917652415        1.82338302524655        2.84868344050918
H            1.54859920269186       -0.27455740898966        0.06168006344375
H            4.79457270977563       -2.70673092276439       -1.81256612418238
H            4.50238052768786       -3.67118692827575       -0.36491705378399
H            6.15239467593811       -3.12762487897766       -0.74150156108109
H            0.49727916257978        0.55671053037338       -1.73348907455474

          :  Hamiltonian                  GFN1-xTB          :
         :: total energy             -79.622754264125 Eh    ::
         :: gradient norm              0.000425262582 Eh/a0 ::
         :: HOMO-LUMO gap              1.656510363653 eV    ::
         :: SCC energy               -80.349819660057 Eh    ::
         :: -> Gsolv                  -0.121224224639 Eh    ::
         :: repulsion energy           0.749833868764 Eh    ::

    * Orbital Energies and Occupations

         #    Occupation            Energy/Eh            Energy/eV
      -------------------------------------------------------------
         1        2.0000           -0.8608155             -23.4240
       ...           ...                  ...                  ...
        52        2.0000           -0.4835943             -13.1593
        53        2.0000           -0.4746510             -12.9159
        54        2.0000           -0.4635898             -12.6149
        55        2.0000           -0.4581567             -12.4671
        56        2.0000           -0.4545211             -12.3681
        57        2.0000           -0.4541266             -12.3574
        58        2.0000           -0.4460302             -12.1371
        59        2.0000           -0.4395934             -11.9619
        60        2.0000           -0.4385476             -11.9335
        61        2.0000           -0.4348558             -11.8330
        62        2.0000           -0.4154182             -11.3041
        63        2.0000           -0.3775896             -10.2747
        64        2.0000           -0.3647965              -9.9266 (HOMO)
        65                         -0.3039209              -8.2701 (LUMO)
        66                         -0.2688881              -7.3168
        67                         -0.2526822              -6.8758
        68                         -0.2384251              -6.4879
        69                         -0.1957986              -5.3280
        70                         -0.1919974              -5.2245
        71                         -0.1397475              -3.8027
        72                         -0.1204845              -3.2786
        73                         -0.1157599              -3.1500
        74                         -0.1118521              -3.0436
        75                         -0.1072748              -2.9191
       ...                                ...                  ...
       124                          0.7573131              20.6075
      -------------------------------------------------------------
                  HL-Gap            0.0608756 Eh            1.6565 eV

Wiberg/Mayer (AO) data.
largest (>0.10) Wiberg bond orders for each atom

     #   Z sym  total        # sym  WBO       # sym  WBO       # sym  WBO
 ---------------------------------------------------------------------------
     1   6 C    3.899 --    25 H    0.987    27 H    0.980    26 H    0.980
                             2 O    0.925
     2   8 O    2.161 --     3 C    1.048     1 C    0.925     4 O    0.110
     3   6 C    3.850 --     4 O    1.575     5 C    1.114     2 O    1.048
     4   8 O    1.850 --     3 C    1.575     2 O    0.110
     5   6 C    3.915 --    23 C    1.271     6 N    1.153     3 C    1.114
                            24 O    0.130
     6   7 N    3.032 --     7 C    1.638     5 C    1.153
     7   6 C    3.933 --     6 N    1.638    20 N    1.088     8 C    0.979
     8   6 C    3.929 --    10 C    0.993     9 C    0.982     7 C    0.979
                            11 N    0.911
     9   6 C    3.989 --    29 H    0.986    30 H    0.985     8 C    0.982
                            28 H    0.980
    10   6 C    3.991 --     8 C    0.993    31 H    0.986    33 H    0.984
                            32 H    0.983
    11   7 N    3.359 --    12 C    1.275     8 C    0.911    34 H    0.895
                            13 O    0.180
    12   6 C    3.919 --    13 O    1.575    11 N    1.275    14 C    0.988
    13   8 O    1.894 --    12 C    1.575    11 N    0.180
    14   6 C    3.870 --    15 N    1.625    19 O    1.048    12 C    0.988
    15   7 N    2.997 --    14 C    1.625    16 N    1.195
    16   7 N    2.981 --    17 C    1.614    15 N    1.195
    17   6 C    3.870 --    16 N    1.614    19 O    1.072    18 C    1.031
    18   6 C    3.987 --    17 C    1.031    37 H    0.983    35 H    0.965
                            36 H    0.962
    19   8 O    2.316 --    17 C    1.072    14 C    1.048
    20   7 N    3.422 --    21 C    1.158     7 C    1.088    38 H    0.897
                            22 O    0.135
    21   6 C    3.877 --    22 O    1.582    20 N    1.158    23 C    0.967
    22   8 O    1.862 --    21 C    1.582    20 N    0.135
    23   6 C    3.943 --    24 O    1.521     5 C    1.271    21 C    0.967
    24   8 O    1.827 --    23 C    1.521     5 C    0.130
    25   1 H    1.016 --     1 C    0.987
    26   1 H    1.014 --     1 C    0.980
    27   1 H    1.014 --     1 C    0.980
    28   1 H    1.011 --     9 C    0.980
    29   1 H    1.004 --     9 C    0.986
    30   1 H    1.003 --     9 C    0.985
    31   1 H    1.008 --    10 C    0.986
    32   1 H    1.015 --    10 C    0.983
    33   1 H    1.010 --    10 C    0.984
    34   1 H    0.942 --    11 N    0.895
    35   1 H    0.997 --    18 C    0.965
    36   1 H    0.997 --    18 C    0.962
    37   1 H    0.999 --    18 C    0.983
    38   1 H    0.944 --    20 N    0.897
 ---------------------------------------------------------------------------

           -------------------------------------------------
          | TOTAL ENERGY              -79.622754264125 Eh   |
          | GRADIENT NORM               0.000425262582 Eh/α |
          | HOMO-LUMO GAP               1.656510363653 eV   |
           -------------------------------------------------

 * finished run on 2023/06/21 at 17:00:47.929
