   * xtb version 6.5.1 (579679a) compiled by 'ehlert@majestix' on 2022-07-11
          program call               : /lustre/hpc/kemi/ree/PhD/git/ReactivityQM/dep/xtb-6.5.1/bin/xtb --gfn 1 /lustre/hpc/kemi/ree/PhD/git/ReactivityQM/calculations/R01/reac02prodN07/conf12/R01_reac02prodN07_conf12_gfn1.xyz --opt --vfukui --chrg 1 --uhf 0 --alpb DMSO

   ID    Z sym.   atoms
    1    6 C      1, 3, 5, 6, 8, 11-15
    2    8 O      2, 4, 7, 9
    3    7 N      10, 16, 17
    4    1 H      18-33

      * Solvation model:               ALPB
        Solvent                        DMSO
        Solvent mass                       7.8130E+01 g/mol
          :  Hamiltonian                  GFN1-xTB          :
 * total energy  :   -57.7931023 Eh     change       -0.5979217E-10 Eh
 * total energy  :   -57.8081694 Eh     change       -0.1506717E-01 Eh
 * total energy  :   -57.8140594 Eh     change       -0.5889988E-02 Eh
 * total energy  :   -57.8153791 Eh     change       -0.1319670E-02 Eh
 * total energy  :   -57.8169255 Eh     change       -0.1546388E-02 Eh
 * total energy  :   -57.8179738 Eh     change       -0.1048308E-02 Eh
 * total energy  :   -57.8192255 Eh     change       -0.1251688E-02 Eh
 * total energy  :   -57.8204616 Eh     change       -0.1236129E-02 Eh
 * total energy  :   -57.8209745 Eh     change       -0.5128750E-03 Eh
 * total energy  :   -57.8224556 Eh     change       -0.1481092E-02 Eh
 * total energy  :   -57.8707007 Eh     change       -0.5895444E-04 Eh
 * total energy  :   -57.8707202 Eh     change       -0.1952987E-04 Eh
 * total energy  :   -57.8707428 Eh     change       -0.2258101E-04 Eh
 * total energy  :   -57.8707589 Eh     change       -0.1605686E-04 Eh
 * total energy  :   -57.8707548 Eh     change        0.4031100E-05 Eh
 * total energy  :   -57.8707634 Eh     change       -0.8555713E-05 Eh
 * total energy  :   -57.8707688 Eh     change       -0.5402910E-05 Eh
 * total energy  :   -57.8707680 Eh     change        0.8234484E-06 Eh
 * total energy  :   -57.8707719 Eh     change       -0.3914186E-05 Eh
   *** GEOMETRY OPTIMIZATION CONVERGED AFTER 115 ITERATIONS ***

 final structure:
================
33
 xtb: 6.5.1 (579679a)
C            2.28920301191725        2.48812574519485       -0.39231785133339
O            1.55777353042247        1.25775603215953       -0.26903083330742
C            2.20638544414319        0.16189739588400       -0.65798270832609
O            3.33824591043013        0.19593740553840       -1.10503034335361
C            1.44288557842833       -1.09357860486273       -0.50049033329365
C            1.99878695469935       -2.29434184442354       -0.87308685893285
O            3.21762956744484       -2.42766026792854       -1.39089254461979
C            1.23490384981578       -3.53817359709320       -0.70775219393804
O            1.60654998971655       -4.65833164494971       -1.00046492498735
N           -0.01565386494669       -3.31923791034505       -0.15734585729957
C           -0.50552604417271       -2.09793696015565        0.18922562668361
C           -1.87877772885440       -2.06121118856331        0.76848675892789
C           -1.88549086005398        1.87367097707591        0.54696758796976
C           -1.47367714962219        1.67501853204656       -0.85468046695837
C           -0.89234685126402        1.69208469164514        1.62243389289232
N           -3.10545581422615        2.18450284177002        0.83095823734749
N            0.17485992498754       -1.00997054212597        0.03190155612267
H            3.19068163763998        2.44515136040809        0.22311811065056
H            1.62616504322085        3.27581308220657       -0.04281114154301
H            2.56243445909126        2.65350696590015       -1.43673755096687
H            3.65729913350053       -1.54909146223010       -1.46672036698881
H           -0.59448446079089       -4.13344464969578       -0.02060654891723
H           -1.91337499020767       -2.63531347513178        1.69453737280069
H           -2.59600881812264       -2.49590736142007        0.07273774226672
H           -2.15958465898545       -1.03243603712395        0.97569487929684
H           -2.31021707829128        1.73916590497880       -1.54617890762038
H           -0.72089192117256        2.41994468468197       -1.11745291732383
H           -0.98367217445847        0.70000826833152       -0.93440019179751
H           -1.35180328539310        1.67300761631434        2.60783639752287
H           -0.33489439409952        0.76929054352919        1.43732444075515
H           -0.16855004498188        2.50834465337577        1.57730288009474
H           -3.80193497512295        2.31227582300372        0.11496806586802
H           -3.41145692083326        2.32113402198830        1.78049199237972

          :  Hamiltonian                  GFN1-xTB          :
         :: total energy             -57.870771885335 Eh    ::
         :: gradient norm              0.000596755361 Eh/a0 ::
         :: HOMO-LUMO gap              2.260123905685 eV    ::
         :: SCC energy               -58.482063313281 Eh    ::
         :: -> Gsolv                  -0.124516553580 Eh    ::
         :: repulsion energy           0.630125298202 Eh    ::

    * Orbital Energies and Occupations

         #    Occupation            Energy/Eh            Energy/eV
      -------------------------------------------------------------
         1        2.0000           -0.8693508             -23.6562
       ...           ...                  ...                  ...
        35        2.0000           -0.5565647             -15.1449
        36        2.0000           -0.5471728             -14.8893
        37        2.0000           -0.5457254             -14.8499
        38        2.0000           -0.5443407             -14.8123
        39        2.0000           -0.5394897             -14.6803
        40        2.0000           -0.5279256             -14.3656
        41        2.0000           -0.5256607             -14.3040
        42        2.0000           -0.5096654             -13.8687
        43        2.0000           -0.4985790             -13.5670
        44        2.0000           -0.4945804             -13.4582
        45        2.0000           -0.4704699             -12.8021
        46        2.0000           -0.4576702             -12.4538
        47        2.0000           -0.4372737             -11.8988 (HOMO)
        48                         -0.3542157              -9.6387 (LUMO)
        49                         -0.3339544              -9.0874
        50                         -0.2905279              -7.9057
        51                         -0.2505322              -6.8173
        52                         -0.1731403              -4.7114
        53                         -0.1673470              -4.5537
        54                         -0.1652360              -4.4963
        55                         -0.1610712              -4.3830
        56                         -0.1519686              -4.1353
        57                         -0.1425149              -3.8780
        58                         -0.1179267              -3.2089
       ...                                ...                  ...
       100                          0.7184258              19.5494
      -------------------------------------------------------------
                  HL-Gap            0.0830580 Eh            2.2601 eV

Wiberg/Mayer (AO) data.
largest (>0.10) Wiberg bond orders for each atom

     #   Z sym  total        # sym  WBO       # sym  WBO       # sym  WBO
 ---------------------------------------------------------------------------
     1   6 C    3.860 --    19 H    0.986    20 H    0.978    18 H    0.978
                             2 O    0.885
     2   8 O    2.212 --     3 C    1.116     1 C    0.885     4 O    0.125
     3   6 C    3.847 --     4 O    1.615     2 O    1.116     5 C    1.028
     4   8 O    1.954 --     3 C    1.615     2 O    0.125
     5   6 C    3.962 --     6 C    1.488    17 N    1.163     3 C    1.028
     6   6 C    3.922 --     5 C    1.488     7 O    1.134     8 C    1.049
     7   8 O    2.100 --     6 C    1.134    21 H    0.772
     8   6 C    3.907 --     9 O    1.613    10 N    1.117     6 C    1.049
     9   8 O    1.910 --     8 C    1.613    10 N    0.134
    10   7 N    3.458 --    11 C    1.179     8 C    1.117    22 H    0.880
                             9 O    0.134
    11   6 C    3.930 --    17 N    1.568    10 N    1.179    12 C    1.026
    12   6 C    3.989 --    11 C    1.026    25 H    0.984    24 H    0.965
                            23 H    0.963
    13   6 C    3.857 --    16 N    1.628    14 C    1.071    15 C    1.069
    14   6 C    3.981 --    13 C    1.071    26 H    0.978    27 H    0.936
                            28 H    0.931
    15   6 C    3.980 --    13 C    1.069    29 H    0.977    30 H    0.937
                            31 H    0.931
    16   7 N    3.506 --    13 C    1.628    33 H    0.874    32 H    0.873
    17   7 N    3.060 --    11 C    1.568     5 C    1.163
    18   1 H    1.005 --     1 C    0.978
    19   1 H    1.011 --     1 C    0.986
    20   1 H    1.005 --     1 C    0.978
    21   1 H    0.848 --     7 O    0.772
    22   1 H    0.919 --    10 N    0.880
    23   1 H    0.994 --    12 C    0.963
    24   1 H    0.994 --    12 C    0.965
    25   1 H    1.004 --    12 C    0.984
    26   1 H    0.991 --    14 C    0.978
    27   1 H    0.995 --    14 C    0.936
    28   1 H    1.018 --    14 C    0.931
    29   1 H    0.991 --    15 C    0.977
    30   1 H    1.022 --    15 C    0.937
    31   1 H    0.994 --    15 C    0.931
    32   1 H    0.904 --    16 N    0.873
    33   1 H    0.904 --    16 N    0.874
 ---------------------------------------------------------------------------

           -------------------------------------------------
          | TOTAL ENERGY              -57.870771885335 Eh   |
          | GRADIENT NORM               0.000596755361 Eh/α |
          | HOMO-LUMO GAP               2.260123905685 eV   |
           -------------------------------------------------

 * finished run on 2023/06/20 at 15:08:16.668
