   * xtb version 6.5.1 (579679a) compiled by 'ehlert@majestix' on 2022-07-11
          program call               : /lustre/hpc/kemi/ree/PhD/git/ReactivityQM/dep/xtb-6.5.1/bin/xtb --gfn 1 /lustre/hpc/kemi/ree/PhD/git/ReactivityQM/calculations/R02deprot/reac01prodN10/conf08/R02deprot_reac01prodN10_conf08_gfn1.xyz --opt --vfukui --chrg 0 --uhf 0 --alpb DMSO

   ID    Z sym.   atoms
    1    6 C      1, 3, 5, 6, 8-11, 13, 15, 18, 19, 22, 24
    2    8 O      2, 4, 14, 20, 23, 25
    3    7 N      7, 12, 16, 17, 21
    4    1 H      26-42

      * Solvation model:               ALPB
        Solvent                        DMSO
        Solvent mass                       7.8130E+01 g/mol
          :  Hamiltonian                  GFN1-xTB          :
 * total energy  :   -82.9313114 Eh     change       -0.1467981E-10 Eh
 * total energy  :   -82.9453829 Eh     change       -0.1407150E-01 Eh
 * total energy  :   -82.9511612 Eh     change       -0.5778291E-02 Eh
 * total energy  :   -82.9524258 Eh     change       -0.1264649E-02 Eh
 * total energy  :   -82.9531223 Eh     change       -0.6964750E-03 Eh
 * total energy  :   -82.9534105 Eh     change       -0.2881648E-03 Eh
 * total energy  :   -82.9536077 Eh     change       -0.1972781E-03 Eh
 * total energy  :   -82.9537359 Eh     change       -0.1281945E-03 Eh
 * total energy  :   -82.9538414 Eh     change       -0.1054263E-03 Eh
 * total energy  :   -82.9539484 Eh     change       -0.1070530E-03 Eh
 * total energy  :   -82.9546679 Eh     change       -0.7232139E-05 Eh
 * total energy  :   -82.9546679 Eh     change        0.1034260E-07 Eh
 * total energy  :   -82.9546735 Eh     change       -0.5563502E-05 Eh
 * total energy  :   -82.9546796 Eh     change       -0.6148787E-05 Eh
 * total energy  :   -82.9546850 Eh     change       -0.5340611E-05 Eh
 * total energy  :   -82.9546909 Eh     change       -0.5937764E-05 Eh
 * total energy  :   -82.9546970 Eh     change       -0.6094049E-05 Eh
 * total energy  :   -82.9547029 Eh     change       -0.5905012E-05 Eh
 * total energy  :   -82.9547053 Eh     change       -0.2365332E-05 Eh
   *** GEOMETRY OPTIMIZATION CONVERGED AFTER 44 ITERATIONS ***

 final structure:
================
42
 xtb: 6.5.1 (579679a)
C           -3.89790719515193        2.75226076444186       -1.87206703382512
O           -3.46892970990858        2.11131277470307       -0.65493583466020
C           -2.68775480152801        1.07080846506948       -0.76663321275199
O           -2.28148626396850        0.57880086818019       -1.77507419116234
C           -2.31961752931389        0.50072638785431        0.67906427718098
C           -2.30340135983051        1.64162224363919        1.69929798735192
N           -1.03277267522223       -0.08989087679781        0.53523384469542
C           -0.93853200318796       -1.36027473261143        0.29425779757033
C            0.44192266160693       -1.94105260397692        0.03922720293207
C            0.46345036918966       -2.54390445018758       -1.37315334875624
C            0.74315615946957       -3.00810174939229        1.10060088254523
N            1.40783763280322       -0.85155255281075        0.13299357414676
C            2.72980468163602       -0.99418149576524       -0.05006311535973
O            3.30762558478233       -2.03830862440066       -0.30674177669434
C            3.42906352767459        0.31251259888812        0.09484081857303
N            2.87086789788209        1.45625103116644        0.35635505590377
N            3.86999776569899        2.38368076641799        0.38811302680872
C            4.97374865778031        1.74569475218210        0.14272323579966
C            6.34181374241061        2.30448240151272        0.06940605524960
O            4.76137444313873        0.43532561946391       -0.05101456290776
N           -1.92988213278074       -2.28353165061754        0.24207647062309
C           -3.17763207929236       -1.92127649828554        0.53704651992489
O           -4.18343157262902       -2.63264900814100        0.61153817598811
C           -3.39176734503463       -0.47576886176861        0.84090208456999
O           -4.59527216288867       -0.14823942896172        1.14334457045758
H           -4.56457367041775        2.08367162665198       -2.41826073163204
H           -3.02983180829284        2.99583837317861       -2.48606846425910
H           -4.42253236423855        3.65428265553090       -1.56809325498763
H           -1.95557332135518        1.25006747678259        2.65279722850227
H           -1.62442119896265        2.42138298632708        1.36346462809166
H           -3.30327989339281        2.05110236436504        1.81808389269493
H            1.42225686237081       -3.02255600657133       -1.56440683597284
H            0.30061942340027       -1.76033613698666       -2.11223344508446
H           -0.33091622525842       -3.28426046127748       -1.45738873416105
H            1.69142874416987       -3.49749296263732        0.88510267673778
H            0.79502776602425       -2.54674660475466        2.08571632103511
H           -0.05379433109135       -3.75048195608368        1.09637207595373
H            1.03066279413263        0.06376019028669        0.35109370128965
H            6.96863546373888        1.85762602161283        0.84109059171448
H            6.78600099554901        2.07775960674383       -0.89943864709740
H            6.30398717863298        3.38166472784624        0.21127961083331
H           -5.14597270834889       -0.98002504081447        1.11015888214530

          :  Hamiltonian                  GFN1-xTB          :
         :: total energy             -82.954705269355 Eh    ::
         :: gradient norm              0.000328649656 Eh/a0 ::
         :: HOMO-LUMO gap              1.246882927871 eV    ::
         :: SCC energy               -83.726174049036 Eh    ::
         :: -> Gsolv                  -0.053179357630 Eh    ::
         :: repulsion energy           0.797857094221 Eh    ::

    * Orbital Energies and Occupations

         #    Occupation            Energy/Eh            Energy/eV
      -------------------------------------------------------------
         1        2.0000           -0.8771512             -23.8685
       ...           ...                  ...                  ...
        55        2.0000           -0.5037561             -13.7079
        56        2.0000           -0.5000319             -13.6066
        57        2.0000           -0.4972714             -13.5314
        58        2.0000           -0.4872791             -13.2595
        59        2.0000           -0.4856011             -13.2139
        60        2.0000           -0.4804597             -13.0740
        61        2.0000           -0.4631136             -12.6020
        62        2.0000           -0.4571810             -12.4405
        63        2.0000           -0.4545823             -12.3698
        64        2.0000           -0.4481444             -12.1946
        65        2.0000           -0.4410976             -12.0029
        66        2.0000           -0.4335813             -11.7983
        67        2.0000           -0.4260418             -11.5932 (HOMO)
        68                         -0.3802197             -10.3463 (LUMO)
        69                         -0.3061500              -8.3308
        70                         -0.2954327              -8.0391
        71                         -0.2722270              -7.4077
        72                         -0.2554852              -6.9521
        73                         -0.1992881              -5.4229
        74                         -0.1941200              -5.2823
        75                         -0.1537321              -4.1833
        76                         -0.1421880              -3.8691
        77                         -0.1359865              -3.7004
        78                         -0.1196327              -3.2554
       ...                                ...                  ...
       134                          0.7319018              19.9161
      -------------------------------------------------------------
                  HL-Gap            0.0458221 Eh            1.2469 eV

Wiberg/Mayer (AO) data.
largest (>0.10) Wiberg bond orders for each atom

     #   Z sym  total        # sym  WBO       # sym  WBO       # sym  WBO
 ---------------------------------------------------------------------------
     1   6 C    3.839 --    28 H    0.983    27 H    0.980    26 H    0.979
                             2 O    0.860
     2   8 O    2.241 --     3 C    1.178     1 C    0.860     4 O    0.142
     3   6 C    3.851 --     4 O    1.727     2 O    1.178     5 C    0.769
     4   8 O    2.022 --     3 C    1.727     2 O    0.142
     5   6 C    3.968 --    24 C    1.057     7 N    1.024     6 C    0.956
                             3 C    0.769
     6   6 C    3.978 --    30 H    0.984    31 H    0.983    29 H    0.981
                             5 C    0.956
     7   7 N    3.020 --     8 C    1.593     5 C    1.024
     8   6 C    3.943 --     7 N    1.593    21 N    1.243     9 C    0.980
     9   6 C    3.936 --     8 C    0.980    11 C    0.979    10 C    0.978
                            12 N    0.930
    10   6 C    3.991 --    33 H    0.986    34 H    0.984    32 H    0.981
                             9 C    0.978
    11   6 C    3.990 --    36 H    0.986    37 H    0.983    35 H    0.981
                             9 C    0.979
    12   7 N    3.366 --    13 C    1.276     9 C    0.930    38 H    0.879
                            14 O    0.183
    13   6 C    3.921 --    14 O    1.579    12 N    1.276    15 C    0.984
    14   8 O    1.898 --    13 C    1.579    12 N    0.183
    15   6 C    3.873 --    16 N    1.614    20 O    1.063    13 C    0.984
    16   7 N    3.012 --    15 C    1.614    17 N    1.196
    17   7 N    2.980 --    18 C    1.609    16 N    1.196
    18   6 C    3.872 --    17 N    1.609    20 O    1.082    19 C    1.031
    19   6 C    3.987 --    18 C    1.031    41 H    0.983    40 H    0.965
                            39 H    0.963
    20   8 O    2.328 --    18 C    1.082    15 C    1.063
    21   7 N    3.010 --    22 C    1.314     8 C    1.243    23 O    0.163
                            24 C    0.113
    22   6 C    3.935 --    23 O    1.510    21 N    1.314    24 C    0.987
    23   8 O    1.885 --    22 C    1.510    21 N    0.163
    24   6 C    3.784 --    25 O    1.331     5 C    1.057    22 C    0.987
                            21 N    0.113
    25   8 O    2.252 --    24 C    1.331    42 H    0.743
    26   1 H    1.001 --     1 C    0.979
    27   1 H    1.002 --     1 C    0.980
    28   1 H    1.005 --     1 C    0.983
    29   1 H    0.999 --     6 C    0.981
    30   1 H    1.001 --     6 C    0.984
    31   1 H    1.003 --     6 C    0.983
    32   1 H    1.010 --    10 C    0.981
    33   1 H    1.003 --    10 C    0.986
    34   1 H    1.010 --    10 C    0.984
    35   1 H    1.010 --    11 C    0.981
    36   1 H    1.003 --    11 C    0.986
    37   1 H    1.010 --    11 C    0.983
    38   1 H    0.972 --    12 N    0.879
    39   1 H    0.997 --    19 C    0.963
    40   1 H    0.997 --    19 C    0.965
    41   1 H    0.999 --    19 C    0.983
    42   1 H    0.822 --    25 O    0.743
 ---------------------------------------------------------------------------

           -------------------------------------------------
          | TOTAL ENERGY              -82.954705269355 Eh   |
          | GRADIENT NORM               0.000328649656 Eh/α |
          | HOMO-LUMO GAP               1.246882927871 eV   |
           -------------------------------------------------

 * finished run on 2023/06/20 at 18:18:08.453
