   * xtb version 6.5.1 (579679a) compiled by 'ehlert@majestix' on 2022-07-11
          program call               : /lustre/hpc/kemi/ree/PhD/git/ReactivityQM/dep/xtb-6.5.1/bin/xtb --gfn 1 /lustre/hpc/kemi/ree/PhD/git/ReactivityQM/calculations/RaltegravirCLI/reac02prodN13/conf14/RaltegravirCLI_reac02prodN13_conf14_gfn1.xyz --opt --vfukui --chrg 1 --uhf 0 --alpb DMSO

   ID    Z sym.   atoms
    1    6 C      1, 3-6, 9, 10, 13-17, 19-21, 23, 24
    2    7 N      2, 7, 8, 12
    3    8 O      11, 22, 25
    4    9 F      18
    5    1 H      26-47

      * Solvation model:               ALPB
        Solvent                        DMSO
        Solvent mass                       7.8130E+01 g/mol
          :  Hamiltonian                  GFN1-xTB          :
 * total energy  :   -79.3979117 Eh     change       -0.8847110E-09 Eh
 * total energy  :   -79.4157386 Eh     change       -0.1782687E-01 Eh
 * total energy  :   -79.4286121 Eh     change       -0.1287348E-01 Eh
 * total energy  :   -79.4326682 Eh     change       -0.4056135E-02 Eh
 * total energy  :   -79.4363986 Eh     change       -0.3730368E-02 Eh
 * total energy  :   -79.4381830 Eh     change       -0.1784469E-02 Eh
 * total energy  :   -79.4395442 Eh     change       -0.1361156E-02 Eh
 * total energy  :   -79.4406071 Eh     change       -0.1062899E-02 Eh
 * total energy  :   -79.4417130 Eh     change       -0.1105952E-02 Eh
 * total energy  :   -79.4428790 Eh     change       -0.1165923E-02 Eh
 * total energy  :   -79.4533428 Eh     change       -0.1810936E-04 Eh
 * total energy  :   -79.4533519 Eh     change       -0.9023217E-05 Eh
 * total energy  :   -79.4533578 Eh     change       -0.5950514E-05 Eh
 * total energy  :   -79.4533654 Eh     change       -0.7630819E-05 Eh
 * total energy  :   -79.4533718 Eh     change       -0.6358293E-05 Eh
 * total energy  :   -79.4533772 Eh     change       -0.5397680E-05 Eh
 * total energy  :   -79.4533825 Eh     change       -0.5321082E-05 Eh
 * total energy  :   -79.4533881 Eh     change       -0.5602391E-05 Eh
 * total energy  :   -79.4533925 Eh     change       -0.4401290E-05 Eh
   *** GEOMETRY OPTIMIZATION CONVERGED AFTER 74 ITERATIONS ***

 final structure:
================
47
 xtb: 6.5.1 (579679a)
C           -3.05278811570864        1.37217829050910        2.34308097773115
N           -2.24667584986352        0.26911546034947        1.84256039304185
C           -1.98175408673034        0.05859093755278        0.54983190731325
C           -2.79075563360917        0.61336576161362       -0.60848042512814
C           -2.23891899307516        1.99784534138931       -0.97977275468669
C           -2.64628845425509       -0.34574812563911       -1.80332354815606
N           -4.18922537937321        0.73532664264096       -0.23230636252136
N           -0.85422160748644       -0.54839912086735        0.20599141894260
C           -0.04010555606095       -1.11588178236869        1.08697708000736
C            1.31105651094070       -1.40433051560305        0.63751982295373
O            2.22805068555922       -1.84366721526109        1.44970734699507
N            1.58010148844494       -1.29979646771417       -0.63602738588696
C            2.88197458301936       -1.61400605169524       -1.22942736942240
C            3.69333411623477       -0.34187284400094       -1.34807387809098
C            4.40978964670790        0.12885972639926       -0.24952185516655
C            5.14031490808702        1.30420221132863       -0.34111652964718
C            5.13255823825580        1.99041830837651       -1.54346504734566
F            5.83290910196858        3.12626347228161       -1.63794832445246
C            4.42763300716570        1.55088290140941       -2.65003535435281
C            3.70097183426060        0.37358464399602       -2.54256018771460
C           -0.30639010377533       -1.21356577497446        2.49168416688025
O            0.39142610708698       -1.78148305975387        3.30053816160747
C           -1.67819714699107       -0.54369250795163        2.93822443979441
C           -2.43086332874744       -1.95353038759207        2.79165402772869
O           -1.72752597113915       -0.02563465113356        4.07755439092500
H           -3.62830825651055        1.01063412448484        3.19696629010480
H           -2.37547343242330        2.15660985883302        2.68743283535947
H           -3.70790906854568        1.74336376286314        1.56107174557119
H           -2.38607815871511        2.70012281944888       -0.16061780193843
H           -2.75885179865519        2.36863435466932       -1.86162154474023
H           -1.17522329721349        1.92360607677706       -1.19958178592392
H           -2.97407671465764       -1.34527314152040       -1.52260126294054
H           -1.60969120790200       -0.39306240171075       -2.13172114285792
H           -3.26337627790011        0.01239097700989       -2.62533268854881
H           -4.58476681586948       -0.18436273301533       -0.09139714514278
H           -4.69575879222710        1.18314123823123       -0.98384077866074
H            0.84671686416870       -0.94230532353241       -1.23511464466341
H            2.69072812204471       -2.05386441709516       -2.20936306916533
H            3.37631356464262       -2.34308271821584       -0.58453474938404
H            4.39476877275399       -0.42655294133254        0.68035959881032
H            5.70304135674839        1.68320396932446        0.50224458137010
H            4.44398349982708        2.11756386563062       -3.57179363707740
H            3.13716834964079        0.01099746707418       -3.39304904563072
H            1.86503987007331       -1.99257986150100        2.36394172221578
H           -2.34054404389481       -2.37703687248621        1.79771372763493
H           -3.47088627839753       -1.71752840566942        3.00303924823431
H           -2.03322325790367       -2.62364089155108        3.54850943601822

          :  Hamiltonian                  GFN1-xTB          :
         :: total energy             -79.453392529685 Eh    ::
         :: gradient norm              0.000824689524 Eh/a0 ::
         :: HOMO-LUMO gap              0.485437397438 eV    ::
         :: SCC energy               -80.342859909264 Eh    ::
         :: -> Gsolv                  -0.109311245947 Eh    ::
         :: repulsion energy           0.920624271221 Eh    ::

    * Orbital Energies and Occupations

         #    Occupation            Energy/Eh            Energy/eV
      -------------------------------------------------------------
         1        2.0000           -0.8802952             -23.9541
       ...           ...                  ...                  ...
        55        2.0000           -0.5254706             -14.2988
        56        2.0000           -0.5176323             -14.0855
        57        2.0000           -0.5151133             -14.0169
        58        2.0000           -0.5113162             -13.9136
        59        2.0000           -0.5016217             -13.6498
        60        2.0000           -0.4933871             -13.4257
        61        2.0000           -0.4887711             -13.3001
        62        2.0000           -0.4845108             -13.1842
        63        2.0000           -0.4697223             -12.7818
        64        2.0000           -0.4673042             -12.7160
        65        2.0000           -0.4551802             -12.3861
        66        2.0000           -0.4459314             -12.1344
        67        1.9998           -0.4296802             -11.6922 (HOMO)
        68        0.0002           -0.4118407             -11.2068 (LUMO)
        69                         -0.3354450              -9.1279
        70                         -0.3193232              -8.6892
        71                         -0.2890786              -7.8662
        72                         -0.2851787              -7.7601
        73                         -0.2295168              -6.2455
        74                         -0.1632858              -4.4432
        75                         -0.1515447              -4.1237
        76                         -0.1489094              -4.0520
        77                         -0.1466334              -3.9901
        78                         -0.1421566              -3.8683
       ...                                ...                  ...
       144                          0.6761618              18.3993
      -------------------------------------------------------------
                  HL-Gap            0.0178395 Eh            0.4854 eV

Wiberg/Mayer (AO) data.
largest (>0.10) Wiberg bond orders for each atom

     #   Z sym  total        # sym  WBO       # sym  WBO       # sym  WBO
 ---------------------------------------------------------------------------
     1   6 C    3.901 --    28 H    0.963    26 H    0.962    27 H    0.954
                             2 N    0.933
     2   7 N    3.558 --     3 C    1.326     1 C    0.933    23 C    0.913
                            25 O    0.148
     3   6 C    3.904 --     8 N    1.364     2 N    1.326     4 C    0.977
     4   6 C    3.962 --     7 N    0.993     6 C    0.979     3 C    0.977
                             5 C    0.973
     5   6 C    3.988 --    31 H    0.986    29 H    0.983    30 H    0.981
                             4 C    0.973
     6   6 C    3.990 --    32 H    0.984    34 H    0.982    33 H    0.982
                             4 C    0.979
     7   7 N    3.000 --     4 C    0.993    35 H    0.937    36 H    0.932
     8   7 N    3.108 --     3 C    1.364     9 C    1.361
     9   6 C    3.940 --     8 N    1.361    21 C    1.145    10 C    1.092
    10   6 C    3.886 --    12 N    1.458    11 O    1.205     9 C    1.092
    11   8 O    2.156 --    10 C    1.205    44 H    0.735    12 N    0.105
    12   7 N    3.471 --    10 C    1.458    13 C    0.909    37 H    0.877
                            11 O    0.105
    13   6 C    3.908 --    14 C    0.984    38 H    0.970    39 H    0.969
                            12 N    0.909
    14   6 C    3.978 --    20 C    1.420    15 C    1.415    13 C    0.984
    15   6 C    3.992 --    16 C    1.448    14 C    1.415    40 H    0.970
                            19 C    0.110
    16   6 C    3.991 --    15 C    1.448    17 C    1.395    41 H    0.968
                            20 C    0.109
    17   6 C    3.863 --    19 C    1.399    16 C    1.395    18 F    0.936
    18   9 F    1.068 --    17 C    0.936
    19   6 C    3.990 --    20 C    1.443    17 C    1.399    42 H    0.968
                            15 C    0.110
    20   6 C    3.992 --    19 C    1.443    14 C    1.420    43 H    0.970
                            16 C    0.109
    21   6 C    3.863 --    22 O    1.676     9 C    1.145    23 C    0.741
    22   8 O    2.089 --    21 C    1.676
    23   6 C    3.920 --    25 O    1.371     2 N    0.913    21 C    0.741
                            24 C    0.738
    24   6 C    3.949 --    45 H    0.985    47 H    0.978    46 H    0.962
                            23 C    0.738
    25   8 O    1.836 --    23 C    1.371     2 N    0.148
    26   1 H    1.001 --     1 C    0.962
    27   1 H    0.999 --     1 C    0.954
    28   1 H    1.024 --     1 C    0.963
    29   1 H    1.001 --     5 C    0.983
    30   1 H    0.997 --     5 C    0.981
    31   1 H    1.002 --     5 C    0.986
    32   1 H    1.001 --     6 C    0.984
    33   1 H    1.009 --     6 C    0.982
    34   1 H    0.999 --     6 C    0.982
    35   1 H    0.951 --     7 N    0.937
    36   1 H    0.946 --     7 N    0.932
    37   1 H    0.938 --    12 N    0.877
    38   1 H    0.996 --    13 C    0.970
    39   1 H    0.999 --    13 C    0.969
    40   1 H    1.002 --    15 C    0.970
    41   1 H    0.996 --    16 C    0.968
    42   1 H    0.995 --    19 C    0.968
    43   1 H    0.997 --    20 C    0.970
    44   1 H    0.818 --    11 O    0.735
    45   1 H    0.996 --    24 C    0.985
    46   1 H    0.995 --    24 C    0.962
    47   1 H    0.999 --    24 C    0.978
 ---------------------------------------------------------------------------

           -------------------------------------------------
          | TOTAL ENERGY              -79.453392529685 Eh   |
          | GRADIENT NORM               0.000824689524 Eh/α |
          | HOMO-LUMO GAP               0.485437397438 eV   |
           -------------------------------------------------

 * finished run on 2023/06/20 at 15:35:21.320
