   * xtb version 6.5.1 (579679a) compiled by 'ehlert@majestix' on 2022-07-11
          program call               : /lustre/hpc/kemi/ree/PhD/git/ReactivityQM/dep/xtb-6.5.1/bin/xtb --gfn 1 /lustre/hpc/kemi/ree/PhD/git/ReactivityQM/calculations/R03/reac02prodN17/conf09/R03_reac02prodN17_conf09_gfn1.xyz --opt --vfukui --chrg 1 --uhf 0 --alpb DMSO

   ID    Z sym.   atoms
    1    6 C      1, 3, 5, 7-10, 12, 13, 15, 18, 19, 22, 23, 25
    2    8 O      2, 4, 14, 20, 24, 26
    3    7 N      6, 11, 16, 17, 21
    4    1 H      27-46

      * Solvation model:               ALPB
        Solvent                        DMSO
        Solvent mass                       7.8130E+01 g/mol
          :  Hamiltonian                  GFN1-xTB          :
 * total energy  :   -86.3050586 Eh     change       -0.1948308E-10 Eh
 * total energy  :   -86.3186669 Eh     change       -0.1360825E-01 Eh
 * total energy  :   -86.3240061 Eh     change       -0.5339268E-02 Eh
 * total energy  :   -86.3254124 Eh     change       -0.1406220E-02 Eh
 * total energy  :   -86.3261315 Eh     change       -0.7191511E-03 Eh
 * total energy  :   -86.3265347 Eh     change       -0.4031686E-03 Eh
 * total energy  :   -86.3269331 Eh     change       -0.3984458E-03 Eh
 * total energy  :   -86.3273737 Eh     change       -0.4406058E-03 Eh
 * total energy  :   -86.3278365 Eh     change       -0.4627821E-03 Eh
 * total energy  :   -86.3282784 Eh     change       -0.4418565E-03 Eh
 * total energy  :   -86.3325883 Eh     change       -0.2241452E-04 Eh
 * total energy  :   -86.3326095 Eh     change       -0.2119780E-04 Eh
 * total energy  :   -86.3326083 Eh     change        0.1220144E-05 Eh
 * total energy  :   -86.3326259 Eh     change       -0.1753536E-04 Eh
 * total energy  :   -86.3326311 Eh     change       -0.5262823E-05 Eh
 * total energy  :   -86.3326310 Eh     change        0.9684032E-07 Eh
 * total energy  :   -86.3326373 Eh     change       -0.6242844E-05 Eh
 * total energy  :   -86.3326428 Eh     change       -0.5513777E-05 Eh
 * total energy  :   -86.3326470 Eh     change       -0.4265143E-05 Eh
   *** GEOMETRY OPTIMIZATION CONVERGED AFTER 65 ITERATIONS ***

 final structure:
================
46
 xtb: 6.5.1 (579679a)
C           -2.18411311241706        3.83441154203668        0.19357148954517
O           -1.96960714271669        2.42353588774233        0.05869050544463
C           -2.93097449751336        1.73704914226389       -0.56338221726120
O           -3.92733434786278        2.24483755457401       -1.01570716930911
C           -2.61833884013460        0.27932118077830       -0.61065887902804
N           -1.39333827266959       -0.08418018263961       -0.12005214376438
C           -1.00790615910665       -1.31892054063344       -0.06646978176393
C            0.41832448032304       -1.50652369842441        0.45549677458580
C            0.65627185989987       -2.65009381700276        1.43585996470537
C            1.36652208834398       -1.57991629032331       -0.74658894628352
N            0.70332809945838       -0.18693552545632        1.16575700752683
C            0.06618648385302       -0.05232834622376        2.50168476303528
C            2.16896233991048        0.11386207734391        1.29803854555439
O            2.82676728066075       -0.46359589167999        2.10409324855498
C            2.54360952198064        1.15545272844065        0.37531067921731
N            1.74063581355591        1.74201641331144       -0.47966070533206
N            2.47337763014481        2.63260553744916       -1.15623123926419
C            3.69795179041835        2.55649492133928       -0.68643939347391
C            4.87209418928440        3.34196911189170       -1.10678933839919
O            3.79307158912369        1.64185771203413        0.27652440735926
N           -1.78225979650833       -2.34202537102550       -0.53196728944040
C           -1.37938546589846       -3.75019916658593       -0.52442578448231
C           -3.05192668051950       -2.08939641494877       -1.04564970534595
O           -3.78593610025990       -2.97611646709301       -1.45347226839315
C           -3.46181438250820       -0.68825180836354       -1.07679651004842
O           -4.67483555337767       -0.45595235815268       -1.57094234009062
H           -1.31734991921762        4.22843351837030        0.71921155419195
H           -2.27482980419216        4.29605661204853       -0.79277733823269
H           -3.09407223094977        4.01948008343751        0.76954669463281
H           -0.18776995103326       -2.77781730080861        2.11029800485289
H            1.55171121741340       -2.44489161052775        2.02052371689387
H            0.82641698759569       -3.57764574388554        0.89546345802183
H            1.28574120941816       -0.67189120054504       -1.34260467324989
H            1.10038651132456       -2.43130585378434       -1.36925322690839
H            2.39509521607104       -1.70496945083572       -0.41283864891363
H            0.25289592047671        0.52629818817711        0.55215247225766
H           -0.98085522958111       -0.32173519919463        2.40085026453793
H            0.57508336122654       -0.69818011837320        3.21037426355057
H            0.16366355333627        0.98822818462007        2.80189011161062
H            4.60848797221823        3.98121530736785       -1.94604625954674
H            5.22156184668078        3.95358939823536       -0.27367093007291
H            5.68307337099276        2.66995576532727       -1.38893445590730
H           -2.07963360649929       -4.29746255762230       -1.15478778617292
H           -0.37575635905780       -3.85186333228468       -0.92503546214534
H           -1.42781072168404       -4.13977128629849        0.49041243998433
H           -5.08537015997607       -1.30470133407700       -1.82440587326369

          :  Hamiltonian                  GFN1-xTB          :
         :: total energy             -86.332647045864 Eh    ::
         :: gradient norm              0.000447443245 Eh/a0 ::
         :: HOMO-LUMO gap              1.687521564479 eV    ::
         :: SCC energy               -87.161331908039 Eh    ::
         :: -> Gsolv                  -0.112203643453 Eh    ::
         :: repulsion energy           0.860626469013 Eh    ::

    * Orbital Energies and Occupations

         #    Occupation            Energy/Eh            Energy/eV
      -------------------------------------------------------------
         1        2.0000           -0.9058649             -24.6498
       ...           ...                  ...                  ...
        58        2.0000           -0.5386443             -14.6573
        59        2.0000           -0.5319763             -14.4758
        60        2.0000           -0.5251977             -14.2914
        61        2.0000           -0.5241135             -14.2619
        62        2.0000           -0.5201621             -14.1543
        63        2.0000           -0.5068962             -13.7933
        64        2.0000           -0.4993697             -13.5885
        65        2.0000           -0.4952089             -13.4753
        66        2.0000           -0.4948036             -13.4643
        67        2.0000           -0.4931409             -13.4190
        68        2.0000           -0.4837903             -13.1646
        69        2.0000           -0.4683813             -12.7453
        70        2.0000           -0.4484963             -12.2042 (HOMO)
        71                         -0.3864810             -10.5167 (LUMO)
        72                         -0.3397274              -9.2445
        73                         -0.3107184              -8.4551
        74                         -0.2945904              -8.0162
        75                         -0.2616748              -7.1205
        76                         -0.2556252              -6.9559
        77                         -0.1761028              -4.7920
        78                         -0.1725123              -4.6943
        79                         -0.1668960              -4.5415
        80                         -0.1579156              -4.2971
        81                         -0.1503357              -4.0908
       ...                                ...                  ...
       144                          0.7370607              20.0564
      -------------------------------------------------------------
                  HL-Gap            0.0620153 Eh            1.6875 eV

Wiberg/Mayer (AO) data.
largest (>0.10) Wiberg bond orders for each atom

     #   Z sym  total        # sym  WBO       # sym  WBO       # sym  WBO
 ---------------------------------------------------------------------------
     1   6 C    3.866 --    27 H    0.986    28 H    0.979    29 H    0.979
                             2 O    0.892
     2   8 O    2.196 --     3 C    1.109     1 C    0.892     4 O    0.136
     3   6 C    3.855 --     4 O    1.671     2 O    1.109     5 C    0.996
     4   8 O    1.936 --     3 C    1.671     2 O    0.136
     5   6 C    3.956 --    25 C    1.493     6 N    1.172     3 C    0.996
     6   7 N    3.079 --     7 C    1.559     5 C    1.172
     7   6 C    3.941 --     6 N    1.559    21 N    1.193     8 C    0.974
     8   6 C    3.890 --     9 C    1.000    10 C    0.985     7 C    0.974
                            11 N    0.854
     9   6 C    3.980 --     8 C    1.000    30 H    0.981    32 H    0.974
                            31 H    0.972
    10   6 C    3.982 --     8 C    0.985    33 H    0.980    35 H    0.976
                            34 H    0.973
    11   7 N    3.592 --    12 C    0.899    13 C    0.864     8 C    0.854
                            36 H    0.835
    12   6 C    3.886 --    39 H    0.981    38 H    0.980    37 H    0.980
                            11 N    0.899
    13   6 C    3.881 --    14 O    1.790    15 C    1.083    11 N    0.864
    14   8 O    2.067 --    13 C    1.790
    15   6 C    3.890 --    16 N    1.512    13 C    1.083    20 O    1.059
    16   7 N    3.048 --    15 C    1.512    17 N    1.288
    17   7 N    2.991 --    18 C    1.510    16 N    1.288
    18   6 C    3.850 --    17 N    1.510    20 O    1.115    19 C    1.042
    19   6 C    3.976 --    18 C    1.042    40 H    0.979    42 H    0.955
                            41 H    0.950
    20   8 O    2.359 --    18 C    1.115    15 C    1.059
    21   7 N    3.512 --     7 C    1.193    23 C    1.111    22 C    0.921
                            24 O    0.132
    22   6 C    3.910 --    44 H    0.977    45 H    0.975    43 H    0.970
                            21 N    0.921
    23   6 C    3.910 --    24 O    1.585    21 N    1.111    25 C    1.064
    24   8 O    1.931 --    23 C    1.585    21 N    0.132
    25   6 C    3.923 --     5 C    1.493    26 O    1.127    23 C    1.064
    26   8 O    2.103 --    25 C    1.127    46 H    0.799
    27   1 H    1.011 --     1 C    0.986
    28   1 H    1.006 --     1 C    0.979
    29   1 H    1.005 --     1 C    0.979
    30   1 H    0.996 --     9 C    0.981
    31   1 H    0.999 --     9 C    0.972
    32   1 H    0.998 --     9 C    0.974
    33   1 H    1.003 --    10 C    0.980
    34   1 H    0.996 --    10 C    0.973
    35   1 H    0.993 --    10 C    0.976
    36   1 H    0.973 --    11 N    0.835
    37   1 H    0.998 --    12 C    0.980
    38   1 H    0.995 --    12 C    0.980
    39   1 H    0.990 --    12 C    0.981
    40   1 H    0.994 --    19 C    0.979
    41   1 H    0.990 --    19 C    0.950
    42   1 H    0.990 --    19 C    0.955
    43   1 H    1.002 --    22 C    0.970
    44   1 H    1.001 --    22 C    0.977
    45   1 H    0.998 --    22 C    0.975
    46   1 H    0.839 --    26 O    0.799
 ---------------------------------------------------------------------------

           -------------------------------------------------
          | TOTAL ENERGY              -86.332647045864 Eh   |
          | GRADIENT NORM               0.000447443245 Eh/α |
          | HOMO-LUMO GAP               1.687521564479 eV   |
           -------------------------------------------------

 * finished run on 2023/06/20 at 15:54:12.969
