   * xtb version 6.5.1 (579679a) compiled by 'ehlert@majestix' on 2022-07-11
          program call               : /lustre/hpc/kemi/ree/PhD/git/ReactivityQM/dep/xtb-6.5.1/bin/xtb --gfn 1 /lustre/hpc/kemi/ree/PhD/git/ReactivityQM/calculations/R02deprot/reac01prodN10/conf05/R02deprot_reac01prodN10_conf05_gfn1.xyz --opt --vfukui --chrg 0 --uhf 0 --alpb DMSO

   ID    Z sym.   atoms
    1    6 C      1, 3, 5, 6, 8-11, 13, 15, 18, 19, 22, 24
    2    8 O      2, 4, 14, 20, 23, 25
    3    7 N      7, 12, 16, 17, 21
    4    1 H      26-42

      * Solvation model:               ALPB
        Solvent                        DMSO
        Solvent mass                       7.8130E+01 g/mol
          :  Hamiltonian                  GFN1-xTB          :
 * total energy  :   -82.9317419 Eh     change       -0.1566036E-10 Eh
 * total energy  :   -82.9455527 Eh     change       -0.1381082E-01 Eh
 * total energy  :   -82.9511650 Eh     change       -0.5612343E-02 Eh
 * total energy  :   -82.9523466 Eh     change       -0.1181576E-02 Eh
 * total energy  :   -82.9529851 Eh     change       -0.6385084E-03 Eh
 * total energy  :   -82.9532285 Eh     change       -0.2433477E-03 Eh
 * total energy  :   -82.9533926 Eh     change       -0.1641127E-03 Eh
 * total energy  :   -82.9534921 Eh     change       -0.9954815E-04 Eh
 * total energy  :   -82.9535638 Eh     change       -0.7163203E-04 Eh
 * total energy  :   -82.9536382 Eh     change       -0.7439556E-04 Eh
 * total energy  :   -82.9544095 Eh     change       -0.3389575E-04 Eh
 * total energy  :   -82.9544320 Eh     change       -0.2253101E-04 Eh
 * total energy  :   -82.9544572 Eh     change       -0.2517731E-04 Eh
 * total energy  :   -82.9544659 Eh     change       -0.8654695E-05 Eh
 * total energy  :   -82.9544792 Eh     change       -0.1337029E-04 Eh
 * total energy  :   -82.9544878 Eh     change       -0.8588338E-05 Eh
 * total energy  :   -82.9544985 Eh     change       -0.1066945E-04 Eh
 * total energy  :   -82.9545064 Eh     change       -0.7876800E-05 Eh
 * total energy  :   -82.9545111 Eh     change       -0.4765422E-05 Eh
   *** GEOMETRY OPTIMIZATION CONVERGED AFTER 38 ITERATIONS ***

 final structure:
================
42
 xtb: 6.5.1 (579679a)
C           -3.93424804130616        3.05350968926443        1.02185145244040
O           -3.55378633997855        1.66700845906178        1.11472390480520
C           -2.69470462709303        1.21907385573438        0.23794351926684
O           -2.18387032083539        1.83457644250192       -0.64805593668725
C           -2.39136781373993       -0.32375145213222        0.50015482009151
C           -2.55549195216370       -0.63749639177923        1.99067478374824
N           -1.04805595193359       -0.52403738463702        0.07182097760803
C           -0.81809858388864       -1.00739103015587       -1.10872943311436
C            0.62660688169688       -1.12233466590933       -1.56605829420079
C            0.96787842714977       -2.60357503264646       -1.77986256156832
C            0.79559316142627       -0.32616248879751       -2.86803422938723
N            1.47169784251088       -0.55666052471601       -0.51943644313213
C            2.80770475056489       -0.45078088805626       -0.59559583353330
O            3.50486080357865       -0.83677332700897       -1.52023009398906
C            3.35366576403424        0.22386468407004        0.61442656428927
N            2.66322856882714        0.65824204699187        1.62578568917567
N            3.54938873608589        1.22857331243203        2.49111516476638
C            4.72347472474717        1.10756474955810        1.95036193480086
C            6.01885423703189        1.57150493219892        2.49454324822517
O            4.66596580296550        0.48127769655534        0.76540547144206
N           -1.71131924203757       -1.45527613891632       -2.02507256952952
C           -3.00861298017879       -1.47476243423047       -1.72125842946097
O           -3.94662437342174       -1.89890126439016       -2.40196875080466
C           -3.37902257487528       -0.94870192755837       -0.37490149829230
O           -4.62599699287039       -1.01442475312406       -0.07886112108812
H           -4.53779154698158        3.25980009241578        1.90238787419983
H           -4.51379509945989        3.21040957367430        0.11092791091867
H           -3.04115317348547        3.68040716187990        1.00758797381887
H           -1.92444065460382        0.02770569661110        2.57470735024776
H           -3.59426734569629       -0.51204178783477        2.28546126651743
H           -2.25033081935564       -1.66690820199517        2.16541835503712
H            0.27128715370484       -3.02981853597220       -2.50030136997938
H            1.98344345977042       -2.70365416983019       -2.15911026300847
H            0.88258110950414       -3.14480468378192       -0.83887047873397
H            0.59191457488223        0.72855065732144       -2.68714559616280
H            0.09293081953215       -0.70223728267501       -3.61015649078721
H            1.80972778319854       -0.43560007251437       -3.24772693027395
H            0.99335595133439       -0.21360982166852        0.30603723768376
H            5.85673155688507        2.06322079543524        3.45044333129617
H            6.48714597546529        2.26838958156693        1.79968047545710
H            6.69252133095622        0.72533110254993        2.62890097452690
H           -5.09757998194516       -1.41930726949258       -0.85898295662942

          :  Hamiltonian                  GFN1-xTB          :
         :: total energy             -82.954511126395 Eh    ::
         :: gradient norm              0.000514863358 Eh/a0 ::
         :: HOMO-LUMO gap              1.232648824239 eV    ::
         :: SCC energy               -83.725624317166 Eh    ::
         :: -> Gsolv                  -0.053136488917 Eh    ::
         :: repulsion energy           0.797470828746 Eh    ::

    * Orbital Energies and Occupations

         #    Occupation            Energy/Eh            Energy/eV
      -------------------------------------------------------------
         1        2.0000           -0.8768666             -23.8608
       ...           ...                  ...                  ...
        55        2.0000           -0.5037834             -13.7086
        56        2.0000           -0.5002728             -13.6131
        57        2.0000           -0.4973456             -13.5335
        58        2.0000           -0.4875321             -13.2664
        59        2.0000           -0.4853450             -13.2069
        60        2.0000           -0.4805008             -13.0751
        61        2.0000           -0.4631620             -12.6033
        62        2.0000           -0.4572415             -12.4422
        63        2.0000           -0.4545231             -12.3682
        64        2.0000           -0.4481456             -12.1947
        65        2.0000           -0.4410796             -12.0024
        66        2.0000           -0.4336826             -11.8011
        67        2.0000           -0.4260245             -11.5927 (HOMO)
        68                         -0.3807255             -10.3601 (LUMO)
        69                         -0.3062074              -8.3323
        70                         -0.2954395              -8.0393
        71                         -0.2725804              -7.4173
        72                         -0.2555319              -6.9534
        73                         -0.1993884              -5.4256
        74                         -0.1942623              -5.2861
        75                         -0.1535946              -4.1795
        76                         -0.1422137              -3.8698
        77                         -0.1358134              -3.6957
        78                         -0.1200739              -3.2674
       ...                                ...                  ...
       134                          0.7306802              19.8828
      -------------------------------------------------------------
                  HL-Gap            0.0452990 Eh            1.2326 eV

Wiberg/Mayer (AO) data.
largest (>0.10) Wiberg bond orders for each atom

     #   Z sym  total        # sym  WBO       # sym  WBO       # sym  WBO
 ---------------------------------------------------------------------------
     1   6 C    3.840 --    26 H    0.983    28 H    0.980    27 H    0.979
                             2 O    0.861
     2   8 O    2.240 --     3 C    1.177     1 C    0.861     4 O    0.142
     3   6 C    3.851 --     4 O    1.727     2 O    1.177     5 C    0.776
     4   8 O    2.020 --     3 C    1.727     2 O    0.142
     5   6 C    3.968 --    24 C    1.057     7 N    1.022     6 C    0.952
                             3 C    0.776
     6   6 C    3.978 --    29 H    0.984    30 H    0.983    31 H    0.981
                             5 C    0.952
     7   7 N    3.020 --     8 C    1.594     5 C    1.022
     8   6 C    3.943 --     7 N    1.594    21 N    1.243     9 C    0.980
     9   6 C    3.936 --     8 C    0.980    11 C    0.979    10 C    0.978
                            12 N    0.930
    10   6 C    3.990 --    34 H    0.986    32 H    0.984    33 H    0.981
                             9 C    0.978
    11   6 C    3.991 --    35 H    0.986    36 H    0.984    37 H    0.981
                             9 C    0.979
    12   7 N    3.366 --    13 C    1.276     9 C    0.930    38 H    0.879
                            14 O    0.183
    13   6 C    3.921 --    14 O    1.579    12 N    1.276    15 C    0.984
    14   8 O    1.898 --    13 C    1.579    12 N    0.183
    15   6 C    3.873 --    16 N    1.614    20 O    1.064    13 C    0.984
    16   7 N    3.013 --    15 C    1.614    17 N    1.196
    17   7 N    2.980 --    18 C    1.609    16 N    1.196
    18   6 C    3.872 --    17 N    1.609    20 O    1.082    19 C    1.031
    19   6 C    3.987 --    18 C    1.031    39 H    0.983    40 H    0.964
                            41 H    0.964
    20   8 O    2.328 --    18 C    1.082    15 C    1.064
    21   7 N    3.010 --    22 C    1.313     8 C    1.243    23 O    0.163
                            24 C    0.113
    22   6 C    3.935 --    23 O    1.510    21 N    1.313    24 C    0.988
    23   8 O    1.885 --    22 C    1.510    21 N    0.163
    24   6 C    3.783 --    25 O    1.332     5 C    1.057    22 C    0.988
                            21 N    0.113
    25   8 O    2.253 --    24 C    1.332    42 H    0.744
    26   1 H    1.005 --     1 C    0.983
    27   1 H    1.001 --     1 C    0.979
    28   1 H    1.002 --     1 C    0.980
    29   1 H    1.001 --     6 C    0.984
    30   1 H    1.003 --     6 C    0.983
    31   1 H    0.999 --     6 C    0.981
    32   1 H    1.009 --    10 C    0.984
    33   1 H    1.009 --    10 C    0.981
    34   1 H    1.003 --    10 C    0.986
    35   1 H    1.003 --    11 C    0.986
    36   1 H    1.011 --    11 C    0.984
    37   1 H    1.010 --    11 C    0.981
    38   1 H    0.973 --    12 N    0.879
    39   1 H    0.999 --    19 C    0.983
    40   1 H    0.997 --    19 C    0.964
    41   1 H    0.997 --    19 C    0.964
    42   1 H    0.821 --    25 O    0.744
 ---------------------------------------------------------------------------

           -------------------------------------------------
          | TOTAL ENERGY              -82.954511126395 Eh   |
          | GRADIENT NORM               0.000514863358 Eh/α |
          | HOMO-LUMO GAP               1.232648824239 eV   |
           -------------------------------------------------

 * finished run on 2023/06/20 at 18:18:12.745
