                         Program Version 5.0.1 -  RELEASE  -
|  1> # ORCA input file
|  2> ! SP r2SCAN-3c CPCM
|  3>
|  4> %maxcore 1875.0
|  5> %pal nprocs 4 end
|  6> %cpcm smd true SMDsolvent "DMSO" end
|  7>
|  8> *xyz 1 1
|  9> C       3.413560   -0.469931    0.854634
| 10> C       2.402068    0.339584    0.153993
| 11> N       2.592920    1.421160   -0.558746
| 12> N       1.397738    1.816670   -1.004870
| 13> C       0.515289    0.961986   -0.551510
| 14> C      -0.899499    1.079487   -0.800475
| 15> O      -1.446044    1.943312   -1.402119
| 16> O      -1.726136    0.055041   -0.198448
| 17> C      -3.171905    0.210951   -0.380492
| 18> C      -1.245666   -1.290101    0.130189
| 19> O       1.109176    0.004688    0.191109
| 20> H       3.164248   -0.535908    1.913421
| 21> H       3.415715   -1.482635    0.451691
| 22> H       4.396558   -0.021779    0.731145
| 23> H      -3.374917    1.279608   -0.397087
| 24> H      -3.642456   -0.262001    0.476590
| 25> H      -3.461938   -0.263344   -1.316713
| 26> H      -0.550049   -1.609268   -0.641602
| 27> H      -0.769658   -1.242057    1.106990
| 28> H      -2.119004   -1.935461    0.151436
| 29> **                         ****END OF INPUT****

CARTESIAN COORDINATES (ANGSTROEM)
---------------------------------
  C      3.413560   -0.469931    0.854634
  C      2.402068    0.339584    0.153993
  N      2.592920    1.421160   -0.558746
  N      1.397738    1.816670   -1.004870
  C      0.515289    0.961986   -0.551510
  C     -0.899499    1.079487   -0.800475
  O     -1.446044    1.943312   -1.402119
  O     -1.726136    0.055041   -0.198448
  C     -3.171905    0.210951   -0.380492
  C     -1.245666   -1.290101    0.130189
  O      1.109176    0.004688    0.191109
  H      3.164248   -0.535908    1.913421
  H      3.415715   -1.482635    0.451691
  H      4.396558   -0.021779    0.731145
  H     -3.374917    1.279608   -0.397087
  H     -3.642456   -0.262001    0.476590
  H     -3.461938   -0.263344   -1.316713
  H     -0.550049   -1.609268   -0.641602
  H     -0.769658   -1.242057    1.106990
  H     -2.119004   -1.935461    0.151436

 Total Charge           Charge          ....    1
 Multiplicity           Mult            ....    1
 Number of Electrons    NEL             ....   82
 Basis Dimension        Dim             ....  279

ORBITAL ENERGIES
----------------

  NO   OCC          E(Eh)            E(eV)
   0   2.0000     -19.138203      -520.7770
   1   2.0000     -19.095888      -519.6255
   2   2.0000     -19.024507      -517.6832
   3   2.0000     -14.242545      -387.5593
   4   2.0000     -14.224782      -387.0760
   5   2.0000     -10.250478      -278.9297
   6   2.0000     -10.184472      -277.1336
   7   2.0000     -10.177093      -276.9328
   8   2.0000     -10.127383      -275.5801
   9   2.0000     -10.123621      -275.4777
  10   2.0000     -10.056062      -273.6394
  11   2.0000      -1.190482       -32.3947
  12   2.0000      -1.172271       -31.8991
  13   2.0000      -1.090122       -29.6637
  14   2.0000      -1.011743       -27.5309
  15   2.0000      -0.864821       -23.5330
  16   2.0000      -0.773725       -21.0541
  17   2.0000      -0.762036       -20.7360
  18   2.0000      -0.733348       -19.9554
  19   2.0000      -0.687161       -18.6986
  20   2.0000      -0.636019       -17.3070
  21   2.0000      -0.612039       -16.6544
  22   2.0000      -0.577940       -15.7265
  23   2.0000      -0.543601       -14.7921
  24   2.0000      -0.530217       -14.4279
  25   2.0000      -0.516536       -14.0557
  26   2.0000      -0.497044       -13.5253
  27   2.0000      -0.475666       -12.9435
  28   2.0000      -0.441904       -12.0248
  29   2.0000      -0.433526       -11.7968
  30   2.0000      -0.421643       -11.4735
  31   2.0000      -0.417981       -11.3738
  32   2.0000      -0.401624       -10.9288
  33   2.0000      -0.401004       -10.9119
  34   2.0000      -0.392760       -10.6876
  35   2.0000      -0.374172       -10.1817
  36   2.0000      -0.349781        -9.5180
  37   2.0000      -0.342991        -9.3333
  38   2.0000      -0.333904        -9.0860
  39   2.0000      -0.291623        -7.9355
  40   2.0000      -0.286023        -7.7831
  41   0.0000      -0.149385        -4.0650
  42   0.0000      -0.047279        -1.2865
  43   0.0000      -0.026044        -0.7087
  44   0.0000       0.004900         0.1333
  45   0.0000       0.042328         1.1518

MULLIKEN ATOMIC CHARGES
-----------------------
   0 C :   -0.623344
   1 C :    0.419315
   2 N :   -0.222719
   3 N :   -0.118247
   4 C :    0.388831
   5 C :    0.074299
   6 O :   -0.315637
   7 O :   -0.026818
   8 C :   -0.272421
   9 C :   -0.258625
  10 O :   -0.016555
  11 H :    0.212504
  12 H :    0.214001
  13 H :    0.214287
  14 H :    0.220558
  15 H :    0.221451
  16 H :    0.229027
  17 H :    0.219483
  18 H :    0.220490
  19 H :    0.220118
Sum of atomic charges:    1.0000000

LOEWDIN ATOMIC CHARGES
----------------------
   0 C :   -0.306295
   1 C :    0.416289
   2 N :   -0.310912
   3 N :   -0.280335
   4 C :    0.399725
   5 C :    0.487244
   6 O :   -0.282997
   7 O :   -0.703461
   8 C :    0.035727
   9 C :    0.042675
  10 O :   -0.384865
  11 H :    0.200569
  12 H :    0.201372
  13 H :    0.197575
  14 H :    0.221093
  15 H :    0.214304
  16 H :    0.208553
  17 H :    0.213255
  18 H :    0.212557
  19 H :    0.217926

  Mayer bond orders larger than 0.100000
B(  0-C ,  1-C ) :   0.8563 B(  0-C , 11-H ) :   0.9328 B(  0-C , 12-H ) :   0.9288
B(  0-C , 13-H ) :   0.9787 B(  1-C ,  2-N ) :   1.5122 B(  1-C , 10-O ) :   1.0854
B(  2-N ,  3-N ) :   1.3046 B(  3-N ,  4-C ) :   1.5278 B(  4-C ,  5-C ) :   0.9734
B(  4-C , 10-O ) :   1.0802 B(  5-C ,  6-O ) :   1.9857 B(  5-C ,  7-O ) :   0.8003
B(  7-O ,  8-C ) :   0.7838 B(  7-O ,  9-C ) :   0.8175 B(  8-C , 14-H ) :   0.9308
B(  8-C , 15-H ) :   0.9266 B(  8-C , 16-H ) :   0.9213 B(  9-C , 17-H ) :   0.9257
B(  9-C , 18-H ) :   0.9266 B(  9-C , 19-H ) :   0.9176

Dispersion correction           -0.006160066
FINAL SINGLE POINT ENERGY      -568.865909225663

DIPOLE MOMENT
-------------
                                X             Y             Z
Electronic contribution:      1.86282       6.42999      -3.25778
Nuclear contribution   :     -4.50441     -10.04523       4.94804
                        -----------------------------------------
Total Dipole Moment    :     -2.64158      -3.61524       1.69027
                        -----------------------------------------
Magnitude (a.u.)       :      4.78591
Magnitude (Debye)      :     12.16481

Rotational constants in cm-1:     0.080310     0.024772     0.019278
Rotational constants in MHz :  2407.627400   742.632050   577.932686

                             ****ORCA TERMINATED NORMALLY****
TOTAL RUN TIME: 0 days 0 hours 0 minutes 26 seconds 208 msec
