   * xtb version 6.5.1 (579679a) compiled by 'ehlert@majestix' on 2022-07-11
          program call               : /lustre/hpc/kemi/ree/PhD/git/ReactivityQM/dep/xtb-6.5.1/bin/xtb --gfn 1 /lustre/hpc/kemi/ree/PhD/git/ReactivityQM/calculations/R01/reac01prodN08/conf10/R01_reac01prodN08_conf10_gfn1.xyz --opt --vfukui --chrg 1 --uhf 0 --alpb DMSO

   ID    Z sym.   atoms
    1    6 C      1, 2, 5, 6, 9, 10
    2    7 N      3, 4
    3    8 O      7, 8, 11
    4    1 H      12-20

      * Solvation model:               ALPB
        Solvent                        DMSO
        Solvent mass                       7.8130E+01 g/mol
          :  Hamiltonian                  GFN1-xTB          :
 * total energy  :   -37.5753861 Eh     change       -0.8206769E-11 Eh
 * total energy  :   -37.5831039 Eh     change       -0.7717852E-02 Eh
 * total energy  :   -37.5853724 Eh     change       -0.2268483E-02 Eh
 * total energy  :   -37.5857695 Eh     change       -0.3971016E-03 Eh
 * total energy  :   -37.5859918 Eh     change       -0.2222847E-03 Eh
 * total energy  :   -37.5861537 Eh     change       -0.1618928E-03 Eh
 * total energy  :   -37.5862974 Eh     change       -0.1436821E-03 Eh
 * total energy  :   -37.5864257 Eh     change       -0.1283204E-03 Eh
 * total energy  :   -37.5865375 Eh     change       -0.1117802E-03 Eh
 * total energy  :   -37.5866203 Eh     change       -0.8280684E-04 Eh
 * total energy  :   -37.5871911 Eh     change       -0.6081215E-04 Eh
 * total energy  :   -37.5871958 Eh     change       -0.4782337E-05 Eh
 * total energy  :   -37.5872028 Eh     change       -0.6970622E-05 Eh
 * total energy  :   -37.5872113 Eh     change       -0.8487563E-05 Eh
 * total energy  :   -37.5859425 Eh     change        0.1268836E-02 Eh
 * total energy  :   -37.5871629 Eh     change       -0.1220416E-02 Eh
 * total energy  :   -37.5872456 Eh     change       -0.8267661E-04 Eh
 * total energy  :   -37.5872514 Eh     change       -0.5849480E-05 Eh
 * total energy  :   -37.5872539 Eh     change       -0.2454865E-05 Eh
   *** GEOMETRY OPTIMIZATION CONVERGED AFTER 46 ITERATIONS ***

 final structure:
================
20
 xtb: 6.5.1 (579679a)
C            3.41356003128276       -0.46993101490804        0.85463397451509
C            2.40206845116074        0.33958379071834        0.15399267645082
N            2.59291994414188        1.42115996693857       -0.55874578113173
N            1.39773762066693        1.81667020182490       -1.00487038807634
C            0.51528853149926        0.96198600014078       -0.55150999884767
C           -0.89949932797785        1.07948708402541       -0.80047501226799
O           -1.44604381002166        1.94331213860742       -1.40211914797988
O           -1.72613558044925        0.05504073701432       -0.19844832902629
C           -3.17190495535802        0.21095056794857       -0.38049224598252
C           -1.24566612003722       -1.29010061944751        0.13018888976327
O            1.10917618753136        0.00468777165235        0.19110887787985
H            3.16424814517724       -0.53590750679144        1.91342134686794
H            3.41571476655559       -1.48263487903257        0.45169096380276
H            4.39655788319912       -0.02177944753724        0.73114501566617
H           -3.37491655670342        1.27960773516574       -0.39708709757097
H           -3.64245573311107       -0.26200147848841        0.47658981331319
H           -3.46193816829255       -0.26334410938977       -1.31671265338813
H           -0.55004936285689       -1.60926791762881       -0.64160152179273
H           -0.76965845869002       -1.24205715896266        1.10698997334373
H           -2.11900448771682       -1.93546086184980        0.15143564446169

          :  Hamiltonian                  GFN1-xTB          :
         :: total energy             -37.587253858420 Eh    ::
         :: gradient norm              0.000597801600 Eh/a0 ::
         :: HOMO-LUMO gap              2.953954651589 eV    ::
         :: SCC energy               -37.934396356805 Eh    ::
         :: -> Gsolv                  -0.094033590121 Eh    ::
         :: repulsion energy           0.355755350526 Eh    ::

    * Orbital Energies and Occupations

         #    Occupation            Energy/Eh            Energy/eV
      -------------------------------------------------------------
         1        2.0000           -0.9474196             -25.7806
       ...           ...                  ...                  ...
        18        2.0000           -0.6228713             -16.9492
        19        2.0000           -0.5921572             -16.1134
        20        2.0000           -0.5872006             -15.9785
        21        2.0000           -0.5772235             -15.7070
        22        2.0000           -0.5742773             -15.6269
        23        2.0000           -0.5693378             -15.4925
        24        2.0000           -0.5614892             -15.2789
        25        2.0000           -0.5527156             -15.0402
        26        2.0000           -0.5513851             -15.0040
        27        2.0000           -0.5478275             -14.9071
        28        2.0000           -0.5220313             -14.2052
        29        2.0000           -0.4969477             -13.5226
        30        2.0000           -0.4931403             -13.4190 (HOMO)
        31                         -0.3845844             -10.4651 (LUMO)
        32                         -0.2953772              -8.0376
        33                         -0.2604050              -7.0860
        34                         -0.1952226              -5.3123
        35                         -0.1735537              -4.7226
        36                         -0.1581570              -4.3037
        37                         -0.1389030              -3.7797
        38                         -0.1211579              -3.2969
        39                         -0.1107761              -3.0144
        40                         -0.1066442              -2.9019
        41                         -0.0927241              -2.5232
       ...                                ...                  ...
        62                          0.7230120              19.6742
      -------------------------------------------------------------
                  HL-Gap            0.1085558 Eh            2.9540 eV

Wiberg/Mayer (AO) data.
largest (>0.10) Wiberg bond orders for each atom

     #   Z sym  total        # sym  WBO       # sym  WBO       # sym  WBO
 ---------------------------------------------------------------------------
     1   6 C    3.976 --     2 C    1.043    14 H    0.979    12 H    0.953
                            13 H    0.950
     2   6 C    3.847 --     3 N    1.522    11 O    1.095     1 C    1.043
     3   7 N    2.994 --     2 C    1.522     4 N    1.287
     4   7 N    3.020 --     5 C    1.527     3 N    1.287
     5   6 C    3.887 --     4 N    1.527     6 C    1.081    11 O    1.044
     6   6 C    3.825 --     7 O    1.774     5 C    1.081     8 O    0.829
     7   8 O    2.059 --     6 C    1.774
     8   8 O    2.526 --     6 C    0.829     9 C    0.783    10 C    0.779
     9   6 C    3.755 --    17 H    0.978    16 H    0.977    15 H    0.969
                             8 O    0.783
    10   6 C    3.756 --    18 H    0.977    20 H    0.975    19 H    0.974
                             8 O    0.779
    11   8 O    2.341 --     2 C    1.095     5 C    1.044
    12   1 H    0.990 --     1 C    0.953
    13   1 H    0.990 --     1 C    0.950
    14   1 H    0.993 --     1 C    0.979
    15   1 H    0.994 --     9 C    0.969
    16   1 H    0.991 --     9 C    0.977
    17   1 H    0.988 --     9 C    0.978
    18   1 H    0.995 --    10 C    0.977
    19   1 H    0.999 --    10 C    0.974
    20   1 H    0.990 --    10 C    0.975
 ---------------------------------------------------------------------------

           -------------------------------------------------
          | TOTAL ENERGY              -37.587253858420 Eh   |
          | GRADIENT NORM               0.000597801600 Eh/α |
          | HOMO-LUMO GAP               2.953954651589 eV   |
           -------------------------------------------------

 * finished run on 2023/06/20 at 14:56:50.211
