   * xtb version 6.5.1 (579679a) compiled by 'ehlert@majestix' on 2022-07-11
          program call               : /lustre/hpc/kemi/ree/PhD/git/ReactivityQM/dep/xtb-6.5.1/bin/xtb --gfn 1 /lustre/hpc/kemi/ree/PhD/git/ReactivityQM/calculations/R02/reac01prodN11/conf08/R02_reac01prodN11_conf08_gfn1.xyz --opt --vfukui --chrg 1 --uhf 0 --alpb DMSO

   ID    Z sym.   atoms
    1    6 C      1, 3, 5, 7-10, 12, 13, 15, 18, 19, 22, 24
    2    8 O      2, 4, 14, 20, 23, 25
    3    7 N      6, 11, 16, 17, 21
    4    1 H      26-43

      * Solvation model:               ALPB
        Solvent                        DMSO
        Solvent mass                       7.8130E+01 g/mol
          :  Hamiltonian                  GFN1-xTB          :
 * total energy  :   -83.0160634 Eh     change       -0.6785683E-10 Eh
 * total energy  :   -83.0341285 Eh     change       -0.1806507E-01 Eh
 * total energy  :   -83.0425172 Eh     change       -0.8388706E-02 Eh
 * total energy  :   -83.0446884 Eh     change       -0.2171264E-02 Eh
 * total energy  :   -83.0463513 Eh     change       -0.1662832E-02 Eh
 * total energy  :   -83.0473129 Eh     change       -0.9616849E-03 Eh
 * total energy  :   -83.0480155 Eh     change       -0.7025117E-03 Eh
 * total energy  :   -83.0484197 Eh     change       -0.4042568E-03 Eh
 * total energy  :   -83.0486612 Eh     change       -0.2414647E-03 Eh
 * total energy  :   -83.0488626 Eh     change       -0.2014703E-03 Eh
 * total energy  :   -83.1362338 Eh     change       -0.3097816E-04 Eh
 * total energy  :   -83.1362456 Eh     change       -0.1174394E-04 Eh
 * total energy  :   -83.1362703 Eh     change       -0.2475482E-04 Eh
 * total energy  :   -83.1362794 Eh     change       -0.9107584E-05 Eh
 * total energy  :   -83.1362892 Eh     change       -0.9760065E-05 Eh
 * total energy  :   -83.1362957 Eh     change       -0.6524130E-05 Eh
 * total energy  :   -83.1362918 Eh     change        0.3929967E-05 Eh
 * total energy  :   -83.1362975 Eh     change       -0.5756680E-05 Eh
 * total energy  :   -83.1362985 Eh     change       -0.9351201E-06 Eh
   *** GEOMETRY OPTIMIZATION CONVERGED AFTER 77 ITERATIONS ***

 final structure:
================
43
 xtb: 6.5.1 (579679a)
C            5.41288379265499        2.63050375066501        1.32482232094736
O            4.35925566829217        1.78068169382046        0.85244049840119
C            4.54903297929374        0.47710414415316        0.97267086399380
O            5.55635612085164       -0.01266150771514        1.45174955733792
C            3.42331460693437       -0.34518288799890        0.46823897321991
N            2.33419983401243        0.32188103517666       -0.03671772500945
C            1.34229217121570       -0.36013422708642       -0.48999084670420
C            0.15134485441986        0.35553057248864       -1.08670826870804
C            0.13964789781731        0.14108165526341       -2.60400846722770
C            0.18730236590214        1.83918766869867       -0.72193038796587
N           -1.06062342679378       -0.26897203441805       -0.49248329180170
C           -2.27600667432236        0.11575415758890       -0.83665579610075
C           -3.53687347017156       -2.06854050351606       -0.85136958098227
O           -2.63606300053892        0.93619352914647       -1.62737826826440
C           -3.39581824682094       -0.77092645753229       -0.06203352262814
N           -2.97816616466879       -0.87334239775173        1.27230148541208
N           -3.77982535644114       -0.24047692546171        2.02525872050039
C           -4.77996776842117        0.26059343161611        1.23609491856557
C           -5.90851654958704        1.06121321014282        1.70017831601784
O           -4.59332801046540       -0.04679731030425        0.00280026249563
N            1.33408980744900       -1.72560706227025       -0.49785009048178
C            2.36171772816074       -2.51585197101571       -0.00303658158174
O            2.28472020369011       -3.72773908301152       -0.02740649111416
C            3.48135575692608       -1.71778709245793        0.51594857031216
O            4.50670645026731       -2.40375811063660        1.00926266875054
H            5.53147846818065        2.50821974618263        2.40368034436424
H            6.34995192993159        2.37633851471837        0.82439629045274
H            5.11670125228885        3.65008540858836        1.08738435211750
H           -0.68760508991316        0.68478395645727       -3.05563670157101
H            1.07551353479016        0.50728485129288       -3.02347326440318
H            0.03681185428713       -0.91817316029441       -2.83083464995988
H            0.15847618210254        1.95683220463978        0.35989238196424
H            1.11082966954512        2.27525530109986       -1.09972342283017
H           -0.66069422944435        2.35732728804234       -1.16459960517053
H           -0.94223208113231       -0.92514836786894        0.26282293645263
H           -3.84615079343400       -1.83521895350756       -1.86817177583440
H           -4.29059202946048       -2.68963324392887       -0.37107039740531
H           -2.58119732424980       -2.58509677833614       -0.86243215778147
H           -5.89016773582901        1.16313528689557        2.78232677563848
H           -6.84149168388071        0.59621195347879        1.37386614802211
H           -5.86905350206351        2.04623772272677        1.22800361130488
H            0.54420229396827       -2.22084177107772       -0.87922307478438
H            5.20618771465476       -1.78954823669783        1.33859537204581

          :  Hamiltonian                  GFN1-xTB          :
         :: total energy             -83.136298464768 Eh    ::
         :: gradient norm              0.000281842636 Eh/a0 ::
         :: HOMO-LUMO gap              0.378528912792 eV    ::
         :: SCC energy               -83.930715295589 Eh    ::
         :: -> Gsolv                  -0.119316291088 Eh    ::
         :: repulsion energy           0.821169173779 Eh    ::

    * Orbital Energies and Occupations

         #    Occupation            Energy/Eh            Energy/eV
      -------------------------------------------------------------
         1        2.0000           -0.9339407             -25.4138
       ...           ...                  ...                  ...
        55        2.0000           -0.5340288             -14.5317
        56        2.0000           -0.5268400             -14.3360
        57        2.0000           -0.5231872             -14.2366
        58        2.0000           -0.5211202             -14.1804
        59        2.0000           -0.5168207             -14.0634
        60        2.0000           -0.5067097             -13.7883
        61        2.0000           -0.5041870             -13.7196
        62        2.0000           -0.4996665             -13.5966
        63        2.0000           -0.4990196             -13.5790
        64        2.0000           -0.4964541             -13.5092
        65        2.0000           -0.4736477             -12.8886
        66        2.0000           -0.4593016             -12.4982
        67        1.9987           -0.4426129             -12.0441 (HOMO)
        68        0.0013           -0.4287022             -11.6656 (LUMO)
        69                         -0.3363685              -9.1531
        70                         -0.3306982              -8.9988
        71                         -0.3045353              -8.2868
        72                         -0.2988989              -8.1335
        73                         -0.2521813              -6.8622
        74                         -0.1764207              -4.8007
        75                         -0.1711978              -4.6585
        76                         -0.1668397              -4.5399
        77                         -0.1478054              -4.0220
        78                         -0.1417025              -3.8559
       ...                                ...                  ...
       136                          0.7370885              20.0572
      -------------------------------------------------------------
                  HL-Gap            0.0139107 Eh            0.3785 eV

Wiberg/Mayer (AO) data.
largest (>0.10) Wiberg bond orders for each atom

     #   Z sym  total        # sym  WBO       # sym  WBO       # sym  WBO
 ---------------------------------------------------------------------------
     1   6 C    3.862 --    28 H    0.986    27 H    0.979    26 H    0.979
                             2 O    0.888
     2   8 O    2.220 --     3 C    1.141     1 C    0.888     4 O    0.131
     3   6 C    3.851 --     4 O    1.608     2 O    1.141     5 C    1.017
     4   8 O    1.948 --     3 C    1.608     2 O    0.131
     5   6 C    3.957 --    24 C    1.484     6 N    1.171     3 C    1.017
     6   7 N    3.027 --     7 C    1.600     5 C    1.171
     7   6 C    3.934 --     6 N    1.600    21 N    1.165     8 C    0.979
     8   6 C    3.902 --    10 C    0.995     9 C    0.981     7 C    0.979
                            11 N    0.876
     9   6 C    3.983 --    31 H    0.983    30 H    0.981     8 C    0.981
                            29 H    0.977
    10   6 C    3.985 --     8 C    0.995    32 H    0.984    34 H    0.981
                            33 H    0.980
    11   7 N    3.370 --    12 C    1.344    35 H    0.882     8 C    0.876
                            14 O    0.179
    12   6 C    3.909 --    14 O    1.690    11 N    1.344    15 C    0.718
    13   6 C    3.951 --    38 H    0.979    36 H    0.976    37 H    0.971
                            15 C    0.923
    14   8 O    2.087 --    12 C    1.690    11 N    0.179
    15   6 C    3.844 --    16 N    1.116    13 C    0.923    20 O    0.919
                            12 C    0.718
    16   7 N    3.021 --    17 N    1.621    15 C    1.116
    17   7 N    3.015 --    16 N    1.621    18 C    1.215
    18   6 C    3.801 --    20 O    1.284    17 N    1.215    19 C    1.076
    19   6 C    3.966 --    18 C    1.076    39 H    0.975    40 H    0.926
                            41 H    0.920
    20   8 O    2.385 --    18 C    1.284    15 C    0.919
    21   7 N    3.453 --     7 C    1.165    22 C    1.107    42 H    0.885
                            23 O    0.135
    22   6 C    3.904 --    23 O    1.620    21 N    1.107    24 C    1.048
    23   8 O    1.916 --    22 C    1.620    21 N    0.135
    24   6 C    3.917 --     5 C    1.484    25 O    1.141    22 C    1.048
    25   8 O    2.104 --    24 C    1.141    43 H    0.770
    26   1 H    1.005 --     1 C    0.979
    27   1 H    1.006 --     1 C    0.979
    28   1 H    1.010 --     1 C    0.986
    29   1 H    1.000 --     9 C    0.977
    30   1 H    0.997 --     9 C    0.981
    31   1 H    0.998 --     9 C    0.983
    32   1 H    1.003 --    10 C    0.984
    33   1 H    1.006 --    10 C    0.980
    34   1 H    1.002 --    10 C    0.981
    35   1 H    0.936 --    11 N    0.882
    36   1 H    0.989 --    13 C    0.976
    37   1 H    0.989 --    13 C    0.971
    38   1 H    0.993 --    13 C    0.979
    39   1 H    0.989 --    19 C    0.975
    40   1 H    0.981 --    19 C    0.926
    41   1 H    0.980 --    19 C    0.920
    42   1 H    0.927 --    21 N    0.885
    43   1 H    0.847 --    25 O    0.770
 ---------------------------------------------------------------------------

           -------------------------------------------------
          | TOTAL ENERGY              -83.136298464768 Eh   |
          | GRADIENT NORM               0.000281842636 Eh/α |
          | HOMO-LUMO GAP               0.378528912792 eV   |
           -------------------------------------------------

 * finished run on 2023/06/20 at 15:32:55.125
