   * xtb version 6.5.1 (579679a) compiled by 'ehlert@majestix' on 2022-07-11
          program call               : /lustre/hpc/kemi/ree/PhD/git/ReactivityQM/dep/xtb-6.5.1/bin/xtb --gfn 1 /lustre/hpc/kemi/ree/PhD/git/ReactivityQM/calculations/R02oxygendeprot/reac01prodE02/conf02/R02oxygendeprot_reac01prodE02_conf02_gfn1.xyz --opt --vfukui --chrg -2 --uhf 0 --alpb DMSO

   ID    Z sym.   atoms
    1    6 C      1, 3, 4, 6, 8-11, 13, 15, 18, 19, 22, 24
    2    8 O      2, 5, 14, 20, 23, 25
    3    7 N      7, 12, 16, 17, 21
    4    1 H      26-42

      * Solvation model:               ALPB
        Solvent                        DMSO
        Solvent mass                       7.8130E+01 g/mol
          :  Hamiltonian                  GFN1-xTB          :
 * total energy  :   -83.5968133 Eh     change       -0.3246186E-09 Eh
 * total energy  :   -83.6088754 Eh     change       -0.1206210E-01 Eh
 * total energy  :   -83.6139086 Eh     change       -0.5033220E-02 Eh
 * total energy  :   -83.6150964 Eh     change       -0.1187789E-02 Eh
 * total energy  :   -83.6159788 Eh     change       -0.8823452E-03 Eh
 * total energy  :   -83.6163965 Eh     change       -0.4177773E-03 Eh
 * total energy  :   -83.6166649 Eh     change       -0.2683185E-03 Eh
 * total energy  :   -83.6168249 Eh     change       -0.1600041E-03 Eh
 * total energy  :   -83.6169354 Eh     change       -0.1105922E-03 Eh
 * total energy  :   -83.6170358 Eh     change       -0.1003690E-03 Eh
 * total energy  :   -83.6176825 Eh     change       -0.1758866E-04 Eh
 * total energy  :   -83.6176897 Eh     change       -0.7225918E-05 Eh
 * total energy  :   -83.6177133 Eh     change       -0.2359713E-04 Eh
 * total energy  :   -83.6177246 Eh     change       -0.1134476E-04 Eh
 * total energy  :   -83.6177413 Eh     change       -0.1668365E-04 Eh
 * total energy  :   -83.6177502 Eh     change       -0.8820429E-05 Eh
 * total energy  :   -83.6177572 Eh     change       -0.7081735E-05 Eh
 * total energy  :   -83.6177632 Eh     change       -0.5950824E-05 Eh
 * total energy  :   -83.6177675 Eh     change       -0.4319312E-05 Eh
   *** GEOMETRY OPTIMIZATION CONVERGED AFTER 31 ITERATIONS ***

 final structure:
================
42
 xtb: 6.5.1 (579679a)
C           -5.33319186341560        2.53429045878066       -0.21351829144414
O           -4.02576950244754        2.04516886775517       -0.22344424563488
C           -3.91065496264128        0.48440834703244       -0.30386648035575
C           -3.62882750289578        0.26030619823834       -1.83900683992170
O           -4.95950174219608       -0.13648722396889        0.12127990836036
C           -2.58297098360467        0.20784015784487        0.48967637662861
N           -1.60485910550311       -0.40802622699158       -0.23121098445710
C           -0.48031372003251       -0.75162167672795        0.30622413988158
C            0.57108489806121       -1.49815782844815       -0.48702207130199
C            0.24315551903646       -1.42270833829846       -1.98117241744237
C            0.63210753500736       -2.95887922064892       -0.01204021078885
N            1.87723430356824       -0.85236924659196       -0.23632961019688
C            3.03221995539868       -1.27539956819329       -0.76875154457438
O            3.17299234653197       -2.23881237036663       -1.51117772251739
C            4.20003547450930       -0.44076893442318       -0.37136203916870
N            5.43081513932755       -0.58301526942126       -0.75934244920985
N            6.15307825480986        0.39968405153832       -0.14734714783519
C            5.31910602552305        1.07987120559218        0.57529250572665
C            5.61581862096537        2.24941488882546        1.43135310606438
O            4.06712936778382        0.60255530526592        0.47760841005005
N           -0.23438629081099       -0.52153436277421        1.64443375590667
C           -1.13617081195803        0.09513159512201        2.48214996477931
O           -0.81427423767845        0.26654627497001        3.67186011790765
C           -2.44308299184453        0.49532930643759        1.86743214005685
O           -3.30120015076969        1.05242560663659        2.60847009947411
H           -5.36234878197846        3.48112429934230        0.34419746217638
H           -5.71450365067618        2.73744361975302       -1.23179687384732
H           -6.03765795505654        1.83437370196419        0.27114012124701
H           -2.79485965957630        0.86827940878835       -2.18734043073349
H           -3.40890120396720       -0.79252194969418       -2.01340374041757
H           -4.52874028206098        0.52740652400117       -2.39201169936580
H            0.95648198470511       -2.00377555201065       -2.56171281401149
H            0.26922741159518       -0.38602649203394       -2.31544974433317
H           -0.75866861631235       -1.81802006410983       -2.14737058785614
H            1.34935140670485       -3.52899889402445       -0.59901304135598
H            0.92379252590825       -2.99776906722715        1.03618415952122
H           -0.35215620198129       -3.41239324256762       -0.12279423014780
H            1.89664922552866       -0.02692466888527        0.34230930364282
H            5.05714042301679        3.11921996881806        1.08567987337839
H            6.68066190353378        2.46408138307545        1.39334296625992
H            5.32124773686623        2.04503194488702        2.46044593575229
H            0.64370915900613       -0.79572191725893        2.04740587010167

          :  Hamiltonian                  GFN1-xTB          :
         :: total energy             -83.617767503224 Eh    ::
         :: gradient norm              0.000744462454 Eh/a0 ::
         :: HOMO-LUMO gap              0.266531799158 eV    ::
         :: SCC energy               -84.355824439663 Eh    ::
         :: -> Gsolv                  -0.310039529676 Eh    ::
         :: repulsion energy           0.763783917573 Eh    ::

    * Orbital Energies and Occupations

         #    Occupation            Energy/Eh            Energy/eV
      -------------------------------------------------------------
         1        2.0000           -0.8563572             -23.3027
       ...           ...                  ...                  ...
        56        2.0000           -0.4456131             -12.1257
        57        2.0000           -0.4396219             -11.9627
        58        2.0000           -0.4310052             -11.7282
        59        2.0000           -0.4272055             -11.6249
        60        2.0000           -0.4131595             -11.2426
        61        2.0000           -0.4054279             -11.0323
        62        2.0000           -0.4020070             -10.9392
        63        2.0000           -0.3800864             -10.3427
        64        2.0000           -0.3765374             -10.2461
        65        2.0000           -0.3454066              -9.3990
        66        2.0000           -0.3359958              -9.1429
        67        2.0000           -0.3136077              -8.5337
        68        1.9885           -0.3077130              -8.3733 (HOMO)
        69        0.0115           -0.2979182              -8.1068 (LUMO)
        70                         -0.2491324              -6.7792
        71                         -0.2151416              -5.8543
        72                         -0.2005177              -5.4564
        73                         -0.1859800              -5.0608
        74                         -0.1382551              -3.7621
        75                         -0.1073486              -2.9211
        76                         -0.1042914              -2.8379
        77                         -0.0913470              -2.4857
        78                         -0.0881289              -2.3981
        79                         -0.0824075              -2.2424
       ...                                ...                  ...
       134                          0.7518889              20.4599
      -------------------------------------------------------------
                  HL-Gap            0.0097949 Eh            0.2665 eV

Wiberg/Mayer (AO) data.
largest (>0.10) Wiberg bond orders for each atom

     #   Z sym  total        # sym  WBO       # sym  WBO       # sym  WBO
 ---------------------------------------------------------------------------
     1   6 C    3.946 --     2 O    0.997    26 H    0.982    27 H    0.979
                            28 H    0.968
     2   8 O    1.914 --     1 C    0.997     3 C    0.725
     3   6 C    3.889 --     5 O    1.264     4 C    0.932     6 C    0.914
                             2 O    0.725
     4   6 C    3.984 --    29 H    0.990    31 H    0.988    30 H    0.986
                             3 C    0.932
     5   8 O    1.545 --     3 C    1.264
     6   6 C    3.919 --    24 C    1.320     7 N    1.254     3 C    0.914
                            25 O    0.135
     7   7 N    3.040 --     8 C    1.537     6 C    1.254
     8   6 C    3.919 --     7 N    1.537    21 N    1.093     9 C    0.979
     9   6 C    3.923 --    10 C    0.995    11 C    0.983     8 C    0.979
                            12 N    0.901
    10   6 C    3.993 --     9 C    0.995    33 H    0.986    32 H    0.984
                            34 H    0.983
    11   6 C    3.991 --    37 H    0.986    36 H    0.985     9 C    0.983
                            35 H    0.982
    12   7 N    3.368 --    13 C    1.290     9 C    0.901    38 H    0.898
                            14 O    0.183
    13   6 C    3.918 --    14 O    1.561    12 N    1.290    15 C    0.987
    14   8 O    1.881 --    13 C    1.561    12 N    0.183
    15   6 C    3.863 --    16 N    1.622    20 O    1.046    13 C    0.987
    16   7 N    2.989 --    15 C    1.622    17 N    1.193
    17   7 N    2.980 --    18 C    1.616    16 N    1.193
    18   6 C    3.870 --    17 N    1.616    20 O    1.072    19 C    1.031
    19   6 C    3.988 --    18 C    1.031    40 H    0.983    41 H    0.965
                            39 H    0.964
    20   8 O    2.313 --    18 C    1.072    15 C    1.046
    21   7 N    3.415 --    22 C    1.145     8 C    1.093    42 H    0.907
                            23 O    0.127
    22   6 C    3.875 --    23 O    1.502    21 N    1.145    24 C    1.015
    23   8 O    1.793 --    22 C    1.502    21 N    0.127
    24   6 C    3.953 --    25 O    1.432     6 C    1.320    22 C    1.015
    25   8 O    1.739 --    24 C    1.432     6 C    0.135
    26   1 H    1.027 --     1 C    0.982
    27   1 H    1.022 --     1 C    0.979
    28   1 H    1.039 --     1 C    0.968
    29   1 H    1.024 --     4 C    0.990
    30   1 H    1.028 --     4 C    0.986
    31   1 H    1.021 --     4 C    0.988
    32   1 H    1.012 --    10 C    0.984
    33   1 H    1.011 --    10 C    0.986
    34   1 H    1.019 --    10 C    0.983
    35   1 H    1.012 --    11 C    0.982
    36   1 H    1.006 --    11 C    0.985
    37   1 H    1.006 --    11 C    0.986
    38   1 H    0.947 --    12 N    0.898
    39   1 H    0.997 --    19 C    0.964
    40   1 H    1.000 --    19 C    0.983
    41   1 H    0.997 --    19 C    0.965
    42   1 H    0.958 --    21 N    0.907
 ---------------------------------------------------------------------------

           -------------------------------------------------
          | TOTAL ENERGY              -83.617767503224 Eh   |
          | GRADIENT NORM               0.000744462454 Eh/α |
          | HOMO-LUMO GAP               0.266531799158 eV   |
           -------------------------------------------------

 * finished run on 2023/06/21 at 17:02:30.884
