   * xtb version 6.5.1 (579679a) compiled by 'ehlert@majestix' on 2022-07-11
          program call               : /lustre/hpc/kemi/ree/PhD/git/ReactivityQM/dep/xtb-6.5.1/bin/xtb --gfn 1 /lustre/hpc/kemi/ree/PhD/git/ReactivityQM/calculations/RaltegravirCLI/reac02prodN13/conf13/RaltegravirCLI_reac02prodN13_conf13_gfn1.xyz --opt --vfukui --chrg 1 --uhf 0 --alpb DMSO

   ID    Z sym.   atoms
    1    6 C      1, 3-6, 9, 10, 13-17, 19-21, 23, 24
    2    7 N      2, 7, 8, 12
    3    8 O      11, 22, 25
    4    9 F      18
    5    1 H      26-47

      * Solvation model:               ALPB
        Solvent                        DMSO
        Solvent mass                       7.8130E+01 g/mol
          :  Hamiltonian                  GFN1-xTB          :
 * total energy  :   -79.3988507 Eh     change        0.2032152E-11 Eh
 * total energy  :   -79.4183951 Eh     change       -0.1954441E-01 Eh
 * total energy  :   -79.4281761 Eh     change       -0.9780948E-02 Eh
 * total energy  :   -79.4307594 Eh     change       -0.2583313E-02 Eh
 * total energy  :   -79.4326477 Eh     change       -0.1888310E-02 Eh
 * total energy  :   -79.4335068 Eh     change       -0.8591536E-03 Eh
 * total energy  :   -79.4340522 Eh     change       -0.5453200E-03 Eh
 * total energy  :   -79.4344638 Eh     change       -0.4116603E-03 Eh
 * total energy  :   -79.4347257 Eh     change       -0.2618784E-03 Eh
 * total energy  :   -79.4349151 Eh     change       -0.1894216E-03 Eh
 * total energy  :   -79.4915342 Eh     change       -0.8642175E-05 Eh
 * total energy  :   -79.4915429 Eh     change       -0.8661588E-05 Eh
 * total energy  :   -79.4915516 Eh     change       -0.8686268E-05 Eh
 * total energy  :   -79.4915603 Eh     change       -0.8767306E-05 Eh
 * total energy  :   -79.4915684 Eh     change       -0.8044208E-05 Eh
 * total energy  :   -79.4915726 Eh     change       -0.4265888E-05 Eh
 * total energy  :   -79.4915751 Eh     change       -0.2428400E-05 Eh
 * total energy  :   -79.4915804 Eh     change       -0.5373663E-05 Eh
 * total energy  :   -79.4915834 Eh     change       -0.3002062E-05 Eh
   *** GEOMETRY OPTIMIZATION CONVERGED AFTER 120 ITERATIONS ***

 final structure:
================
47
 xtb: 6.5.1 (579679a)
C           -3.81795891192954       -0.32907395048599        1.98661794035201
N           -2.62572593459470       -0.20677671716294        1.14107417105793
C           -2.60364435128209        0.23225725724339       -0.11340708076460
C           -3.82468907473380        0.40409285568430       -0.98672990944352
C           -3.44053861245967        1.07573298172855       -2.31165784813039
C           -4.38220855399739       -1.00630017363687       -1.25316456737392
N           -4.82881491037435        1.18578676780700       -0.28337092384086
N           -1.42697993226820        0.59968248757294       -0.66721969536777
C           -0.27667546120868        0.27724529256255       -0.18412790073938
C            0.94812519826971        0.89256517360232       -0.84226958597540
O            0.99191221834544        0.99658250437629       -2.05337040633896
N            1.89213924926368        1.30072505785406        0.00902919017840
C            3.13522582298875        1.88810048060106       -0.46885579403760
C            4.28508474630121        0.90317294149655       -0.42172023148960
C            4.08913551530360       -0.44562228545718       -0.14102244717325
C            5.16430739301297       -1.32380704286870       -0.11752034483329
C            6.42677163913590       -0.82554098763575       -0.38193913910013
F            7.47020420021436       -1.66818101804315       -0.36313123468617
C            6.65645924599597        0.51036406652377       -0.66301091043289
C            5.57207543057460        1.37455632611199       -0.67965741785465
C           -0.21871468921086       -0.77854237011736        0.86872183304529
O            0.96489322069918       -0.72587884031703        1.59759753938913
C           -1.42700431771146       -0.63928826633973        1.78238739593304
C           -0.38143653328842       -2.17209686273841        0.19143622122392
O           -1.43120562414451       -0.99076684320166        2.92442306032422
H           -3.57812590467124        0.08971857593793        2.96297606305380
H           -4.05720047565300       -1.38586305315239        2.09422464597722
H           -4.64028021358653        0.21052553657220        1.52454388518727
H           -4.33348715287592        1.19100942616844       -2.92282991550491
H           -2.71391035114171        0.46707849193810       -2.84785242571278
H           -3.01059706373144        2.05766471867915       -2.12225316260803
H           -3.62125662867041       -1.63243614431016       -1.71625356820706
H           -4.71120561671779       -1.46965556636758       -0.32589031628036
H           -5.23233887664068       -0.92288745594974       -1.92781587960350
H           -4.55733223196343        2.15870927788223       -0.25984697146593
H           -5.71303988081832        1.10585226955146       -0.76470390873554
H            1.79158359974614        1.13943098366144        0.99656735564276
H            3.36161448079632        2.76039904475003        0.15052116533436
H            2.97111715808901        2.22407402712267       -1.49867549751614
H            3.09462093672341       -0.81921363071323        0.06996389524546
H            5.02367269289712       -2.37376319527799        0.10446885715113
H            7.66013280619877        0.86471003177730       -0.86070454737297
H            5.72846573992928        2.42533977084236       -0.89475272545568
H            0.84946114613444       -1.13924508773749        2.46696998866264
H            0.49496281088412       -2.35105453822303       -0.42790964161656
H           -0.43656361573624       -2.93038228891889        0.96924536090878
H           -1.28103233209869       -2.19899902939644       -0.41827257100304

          :  Hamiltonian                  GFN1-xTB          :
         :: total energy             -79.491583434045 Eh    ::
         :: gradient norm              0.000783019998 Eh/a0 ::
         :: HOMO-LUMO gap              0.715700206842 eV    ::
         :: SCC energy               -80.384602415738 Eh    ::
         :: -> Gsolv                  -0.108715900489 Eh    ::
         :: repulsion energy           0.924428743466 Eh    ::

    * Orbital Energies and Occupations

         #    Occupation            Energy/Eh            Energy/eV
      -------------------------------------------------------------
         1        2.0000           -0.8874803             -24.1496
       ...           ...                  ...                  ...
        55        2.0000           -0.5262313             -14.3195
        56        2.0000           -0.5200589             -14.1515
        57        2.0000           -0.5133203             -13.9682
        58        2.0000           -0.5122017             -13.9377
        59        2.0000           -0.5097994             -13.8723
        60        2.0000           -0.5077769             -13.8173
        61        2.0000           -0.4987108             -13.5706
        62        2.0000           -0.4810142             -13.0891
        63        2.0000           -0.4757457             -12.9457
        64        2.0000           -0.4676887             -12.7265
        65        2.0000           -0.4576210             -12.4525
        66        2.0000           -0.4421479             -12.0315
        67        2.0000           -0.4414949             -12.0137 (HOMO)
        68        0.0000           -0.4151934             -11.2980 (LUMO)
        69                         -0.3392590              -9.2317
        70                         -0.3015904              -8.2067
        71                         -0.2795733              -7.6076
        72                         -0.2717016              -7.3934
        73                         -0.2584025              -7.0315
        74                         -0.1628017              -4.4301
        75                         -0.1579756              -4.2987
        76                         -0.1504978              -4.0953
        77                         -0.1428506              -3.8872
        78                         -0.1356171              -3.6903
       ...                                ...                  ...
       144                          0.6867947              18.6886
      -------------------------------------------------------------
                  HL-Gap            0.0263015 Eh            0.7157 eV

Wiberg/Mayer (AO) data.
largest (>0.10) Wiberg bond orders for each atom

     #   Z sym  total        # sym  WBO       # sym  WBO       # sym  WBO
 ---------------------------------------------------------------------------
     1   6 C    3.879 --    26 H    0.969    27 H    0.966    28 H    0.960
                             2 N    0.900
     2   7 N    3.556 --     3 C    1.384    23 C    1.004     1 C    0.900
     3   6 C    3.870 --     2 N    1.384     8 N    1.245     4 C    0.990
     4   6 C    3.954 --     3 C    0.990     5 C    0.988     7 N    0.983
                             6 C    0.951
     5   6 C    3.989 --     4 C    0.988    29 H    0.983    31 H    0.983
                            30 H    0.981
     6   6 C    3.986 --    32 H    0.984    33 H    0.983    34 H    0.975
                             4 C    0.951
     7   7 N    3.006 --     4 C    0.983    35 H    0.929    36 H    0.924
     8   7 N    3.123 --     9 C    1.643     3 C    1.245
     9   6 C    3.893 --     8 N    1.643    21 C    1.001    10 C    0.940
    10   6 C    3.921 --    11 O    1.597    12 N    1.307     9 C    0.940
    11   8 O    1.923 --    10 C    1.597    12 N    0.199
    12   7 N    3.406 --    10 C    1.307    13 C    0.937    37 H    0.884
                            11 O    0.199
    13   6 C    3.930 --    14 C    0.991    38 H    0.966    39 H    0.961
                            12 N    0.937
    14   6 C    3.984 --    15 C    1.423    20 C    1.409    13 C    0.991
    15   6 C    3.994 --    16 C    1.438    14 C    1.423    40 H    0.968
                            19 C    0.109
    16   6 C    3.992 --    15 C    1.438    17 C    1.404    41 H    0.969
                            20 C    0.111
    17   6 C    3.862 --    16 C    1.404    19 C    1.395    18 F    0.928
    18   9 F    1.057 --    17 C    0.928
    19   6 C    3.991 --    20 C    1.450    17 C    1.395    42 H    0.969
                            15 C    0.109
    20   6 C    3.993 --    19 C    1.450    14 C    1.409    43 H    0.971
                            16 C    0.111
    21   6 C    3.934 --     9 C    1.001    22 O    0.988    23 C    0.932
                            24 C    0.890
    22   8 O    1.931 --    21 C    0.988    44 H    0.811
    23   6 C    3.860 --    25 O    1.778     2 N    1.004    21 C    0.932
    24   6 C    3.969 --    47 H    0.985    46 H    0.977    45 H    0.976
                            21 C    0.890
    25   8 O    2.043 --    23 C    1.778
    26   1 H    0.997 --     1 C    0.969
    27   1 H    0.994 --     1 C    0.966
    28   1 H    1.020 --     1 C    0.960
    29   1 H    0.999 --     5 C    0.983
    30   1 H    1.003 --     5 C    0.981
    31   1 H    1.004 --     5 C    0.983
    32   1 H    0.999 --     6 C    0.984
    33   1 H    0.998 --     6 C    0.983
    34   1 H    0.994 --     6 C    0.975
    35   1 H    0.944 --     7 N    0.929
    36   1 H    0.939 --     7 N    0.924
    37   1 H    0.937 --    12 N    0.884
    38   1 H    1.001 --    13 C    0.966
    39   1 H    1.007 --    13 C    0.961
    40   1 H    1.010 --    15 C    0.968
    41   1 H    0.997 --    16 C    0.969
    42   1 H    0.997 --    19 C    0.969
    43   1 H    0.997 --    20 C    0.971
    44   1 H    0.834 --    22 O    0.811
    45   1 H    0.995 --    24 C    0.976
    46   1 H    0.994 --    24 C    0.977
    47   1 H    0.997 --    24 C    0.985
 ---------------------------------------------------------------------------

           -------------------------------------------------
          | TOTAL ENERGY              -79.491583434045 Eh   |
          | GRADIENT NORM               0.000783019998 Eh/α |
          | HOMO-LUMO GAP               0.715700206842 eV   |
           -------------------------------------------------

 * finished run on 2023/06/20 at 15:34:46.822
