   * xtb version 6.5.1 (579679a) compiled by 'ehlert@majestix' on 2022-07-11
          program call               : /lustre/hpc/kemi/ree/PhD/git/ReactivityQM/dep/xtb-6.5.1/bin/xtb --gfn 1 /lustre/hpc/kemi/ree/PhD/git/ReactivityQM/calculations/R03/reac02prodE13/conf10/R03_reac02prodE13_conf10_gfn1.xyz --opt --vfukui --chrg -1 --uhf 0 --alpb DMSO

   ID    Z sym.   atoms
    1    6 C      1, 3, 5, 6, 8, 10, 12-16, 18, 20, 23, 24
    2    8 O      2, 4, 7, 9, 19, 25
    3    7 N      11, 17, 21, 22, 26
    4    1 H      27-46

      * Solvation model:               ALPB
        Solvent                        DMSO
        Solvent mass                       7.8130E+01 g/mol
          :  Hamiltonian                  GFN1-xTB          :
 * total energy  :   -87.0059628 Eh     change       -0.8541718E-09 Eh
 * total energy  :   -87.0204238 Eh     change       -0.1446094E-01 Eh
 * total energy  :   -87.0257379 Eh     change       -0.5314105E-02 Eh
 * total energy  :   -87.0268628 Eh     change       -0.1124917E-02 Eh
 * total energy  :   -87.0277292 Eh     change       -0.8664607E-03 Eh
 * total energy  :   -87.0281512 Eh     change       -0.4220005E-03 Eh
 * total energy  :   -87.0285106 Eh     change       -0.3593314E-03 Eh
 * total energy  :   -87.0288056 Eh     change       -0.2950543E-03 Eh
 * total energy  :   -87.0289925 Eh     change       -0.1868886E-03 Eh
 * total energy  :   -87.0291057 Eh     change       -0.1132333E-03 Eh
 * total energy  :   -87.0342121 Eh     change       -0.5240588E-05 Eh
 * total energy  :   -87.0342181 Eh     change       -0.5988626E-05 Eh
 * total energy  :   -87.0342252 Eh     change       -0.7102445E-05 Eh
 * total energy  :   -87.0342332 Eh     change       -0.7955626E-05 Eh
 * total energy  :   -87.0342411 Eh     change       -0.7928366E-05 Eh
 * total energy  :   -87.0342480 Eh     change       -0.6941403E-05 Eh
 * total energy  :   -87.0342539 Eh     change       -0.5887216E-05 Eh
 * total energy  :   -87.0342591 Eh     change       -0.5179297E-05 Eh
 * total energy  :   -87.0342640 Eh     change       -0.4875200E-05 Eh
   *** GEOMETRY OPTIMIZATION CONVERGED AFTER 130 ITERATIONS ***

 final structure:
================
46
 xtb: 6.5.1 (579679a)
C           -4.91269140818874        1.67403829651616       -3.26084944771140
O           -3.78678255386125        1.10818637152030       -2.61552978918240
C           -3.87102426088019        1.05140259981403       -1.22784499050810
O           -4.92003962331831        1.45842581314665       -0.66427939564949
C           -2.76031277268965        0.51230308303718       -0.58170660717761
C           -2.68270281505670        0.45655735362052        0.87229953441323
O           -3.71671442064377        0.98362558845299        1.60156341106764
C           -1.57026514575626       -0.01226601304565        1.46482240524863
O           -1.32903557810735       -0.04865528168935        2.83581988579976
C           -1.43168388195500        1.18395912332885        3.53384265621723
N           -0.48568560423181       -0.60340071686160        0.70287286010400
C           -0.39594998751352       -2.05565431602487        0.98325341478029
C           -0.58997424085891       -0.30606369023239       -0.70391926943199
C            0.66027194559678       -0.52426818218325       -1.54851289404637
C            0.55029355377820       -1.84493846274204       -2.32793413366059
C            0.81005145859014        0.64793051616624       -2.53217035887043
N            1.82064623147681       -0.54484664083039       -0.65193497278186
C            3.08270466807905       -0.73627468289615       -1.05444309440130
O            3.44146328096802       -0.99655974738350       -2.19677190811987
C            4.07565886305083       -0.60338478277489        0.04808275288989
N            5.36107512396010       -0.76651298112401       -0.03320210289344
N            5.86872485204788       -0.52558274868058        1.21061791841206
C            4.86286457851993       -0.22936478145897        1.97239110391867
C            4.89446857253735        0.12701802360222        3.40799955893747
O            3.69927494463476       -0.26142346865740        1.30077418187982
N           -1.61359838021824        0.18110494464526       -1.28779655812071
H           -5.07116667588924        2.71164500427256       -2.94287887385224
H           -5.82314092704408        1.10154295027067       -3.04658878848762
H           -4.71528456168544        1.65102622834227       -4.33373258946389
H           -4.40039568918164        1.28220398468507        0.93479055778464
H           -2.47558242165723        1.50998960381184        3.62334240205763
H           -0.85503181350107        1.97439449674620        3.03746819011398
H           -1.02426912061309        1.01817407718862        4.53338800201274
H            0.51819792111869       -2.45357352985134        0.54636135564727
H           -1.26177127268171       -2.59501845478108        0.58349819724252
H           -0.35330180400880       -2.18699700281235        2.06387226432369
H            1.36506388733457       -1.94252141187288       -3.04373037632996
H            0.57728728158894       -2.69548841554334       -1.64960044192223
H           -0.39699032893323       -1.85402643598790       -2.86617338283940
H            1.66942793636915        0.49675170837651       -3.18348105289187
H           -0.09226240782202        0.71948093923653       -3.13877159082029
H            0.93777254667110        1.57916830399401       -1.98151725226836
H            1.64514446749538       -0.29723217003163        0.31424663175824
H            5.91842451254510        0.08449324136753        3.77045343789341
H            4.50117799850985        1.13331902335215        3.55052940072768
H            4.27566307141828       -0.56268435802023        3.98108174819671

          :  Hamiltonian                  GFN1-xTB          :
         :: total energy             -87.034263980056 Eh    ::
         :: gradient norm              0.000170793498 Eh/a0 ::
         :: HOMO-LUMO gap              0.263651659291 eV    ::
         :: SCC energy               -87.823438447341 Eh    ::
         :: -> Gsolv                  -0.104163651101 Eh    ::
         :: repulsion energy           0.817846039530 Eh    ::

    * Orbital Energies and Occupations

         #    Occupation            Energy/Eh            Energy/eV
      -------------------------------------------------------------
         1        2.0000           -0.8574773             -23.3331
       ...           ...                  ...                  ...
        59        2.0000           -0.4667350             -12.7005
        60        2.0000           -0.4557807             -12.4024
        61        2.0000           -0.4522621             -12.3067
        62        2.0000           -0.4498276             -12.2404
        63        2.0000           -0.4431440             -12.0586
        64        2.0000           -0.4413349             -12.0093
        65        2.0000           -0.4360278             -11.8649
        66        2.0000           -0.4304739             -11.7138
        67        2.0000           -0.4080594             -11.1039
        68        2.0000           -0.4067157             -11.0673
        69        2.0000           -0.3786761             -10.3043
        70        2.0000           -0.3780511             -10.2873
        71        1.9879           -0.3085345              -8.3957 (HOMO)
        72        0.0121           -0.2988454              -8.1320 (LUMO)
        73                         -0.2505404              -6.8176
        74                         -0.2270548              -6.1785
        75                         -0.1925501              -5.2396
        76                         -0.1869494              -5.0872
        77                         -0.1399798              -3.8090
        78                         -0.1185202              -3.2251
        79                         -0.1115606              -3.0357
        80                         -0.1111867              -3.0255
        81                         -0.1043799              -2.8403
        82                         -0.1039432              -2.8284
       ...                                ...                  ...
       144                          0.7297164              19.8566
      -------------------------------------------------------------
                  HL-Gap            0.0096890 Eh            0.2637 eV

Wiberg/Mayer (AO) data.
largest (>0.10) Wiberg bond orders for each atom

     #   Z sym  total        # sym  WBO       # sym  WBO       # sym  WBO
 ---------------------------------------------------------------------------
     1   6 C    3.912 --    29 H    0.987    27 H    0.981    28 H    0.981
                             2 O    0.942
     2   8 O    2.086 --     3 C    0.966     1 C    0.942
     3   6 C    3.867 --     4 O    1.397     5 C    1.342     2 O    0.966
     4   8 O    1.814 --     3 C    1.397     5 C    0.106    30 H    0.102
     5   6 C    3.863 --     3 C    1.342    26 N    1.117     6 C    1.084
                             4 O    0.106
     6   6 C    3.911 --     8 C    1.648     5 C    1.084     7 O    1.029
     7   8 O    1.984 --     6 C    1.029    30 H    0.771
     8   6 C    3.828 --     6 C    1.648    11 N    0.955     9 O    0.953
     9   8 O    2.037 --     8 C    0.953    10 C    0.934
    10   6 C    3.914 --    33 H    0.986    32 H    0.983    31 H    0.980
                             9 O    0.934
    11   7 N    3.121 --    13 C    0.981     8 C    0.955    12 C    0.943
    12   6 C    3.968 --    36 H    0.985    34 H    0.985    35 H    0.985
                            11 N    0.943
    13   6 C    3.941 --    26 N    1.717    11 N    0.981    14 C    0.974
    14   6 C    3.925 --    16 C    0.986    15 C    0.983    13 C    0.974
                            17 N    0.916
    15   6 C    3.990 --    39 H    0.986    14 C    0.983    38 H    0.983
                            37 H    0.982
    16   6 C    3.992 --    42 H    0.987    14 C    0.986    40 H    0.984
                            41 H    0.983
    17   7 N    3.382 --    18 C    1.295    14 C    0.916    43 H    0.888
                            19 O    0.183
    18   6 C    3.919 --    19 O    1.556    17 N    1.295    20 C    0.987
    19   8 O    1.875 --    18 C    1.556    17 N    0.183
    20   6 C    3.862 --    21 N    1.622    25 O    1.047    18 C    0.987
    21   7 N    2.988 --    20 C    1.622    22 N    1.192
    22   7 N    2.980 --    23 C    1.617    21 N    1.192
    23   6 C    3.870 --    22 N    1.617    25 O    1.072    24 C    1.030
    24   6 C    3.988 --    23 C    1.030    44 H    0.983    46 H    0.965
                            45 H    0.964
    25   8 O    2.312 --    23 C    1.072    20 C    1.047
    26   7 N    3.052 --    13 C    1.717     5 C    1.117
    27   1 H    1.017 --     1 C    0.981
    28   1 H    1.018 --     1 C    0.981
    29   1 H    1.019 --     1 C    0.987
    30   1 H    0.886 --     7 O    0.771     4 O    0.102
    31   1 H    1.026 --    10 C    0.980
    32   1 H    1.013 --    10 C    0.983
    33   1 H    1.019 --    10 C    0.986
    34   1 H    1.018 --    12 C    0.985
    35   1 H    1.010 --    12 C    0.985
    36   1 H    1.020 --    12 C    0.985
    37   1 H    1.014 --    15 C    0.982
    38   1 H    1.009 --    15 C    0.983
    39   1 H    1.010 --    15 C    0.986
    40   1 H    1.011 --    16 C    0.984
    41   1 H    1.022 --    16 C    0.983
    42   1 H    1.009 --    16 C    0.987
    43   1 H    0.964 --    17 N    0.888
    44   1 H    0.999 --    24 C    0.983
    45   1 H    0.998 --    24 C    0.964
    46   1 H    0.997 --    24 C    0.965
 ---------------------------------------------------------------------------

           -------------------------------------------------
          | TOTAL ENERGY              -87.034263980056 Eh   |
          | GRADIENT NORM               0.000170793498 Eh/α |
          | HOMO-LUMO GAP               0.263651659291 eV   |
           -------------------------------------------------

 * finished run on 2023/06/20 at 15:34:40.939
