   * xtb version 6.5.1 (579679a) compiled by 'ehlert@majestix' on 2022-07-11
          program call               : /lustre/hpc/kemi/ree/PhD/git/ReactivityQM/dep/xtb-6.5.1/bin/xtb --gfn 1 /lustre/hpc/kemi/ree/PhD/git/ReactivityQM/calculations/R02methylcation/reac01prodN07/conf14/R02methylcation_reac01prodN07_conf14_gfn1.xyz --opt --vfukui --chrg 0 --uhf 0 --alpb DMSO

   ID    Z sym.   atoms
    1    6 C      1, 3, 5, 7-10, 12, 14, 17-19, 22, 24
    2    8 O      2, 4, 13, 20, 23, 25
    3    7 N      6, 11, 15, 16, 21
    4    1 H      26-42

      * Solvation model:               ALPB
        Solvent                        DMSO
        Solvent mass                       7.8130E+01 g/mol
          :  Hamiltonian                  GFN1-xTB          :
 * total energy  :   -82.9458116 Eh     change       -0.5229737E-09 Eh
 * total energy  :   -82.9625999 Eh     change       -0.1678838E-01 Eh
 * total energy  :   -82.9696485 Eh     change       -0.7048507E-02 Eh
 * total energy  :   -82.9713943 Eh     change       -0.1745839E-02 Eh
 * total energy  :   -82.9725058 Eh     change       -0.1111466E-02 Eh
 * total energy  :   -82.9729621 Eh     change       -0.4563478E-03 Eh
 * total energy  :   -82.9734597 Eh     change       -0.4976135E-03 Eh
 * total energy  :   -82.9738716 Eh     change       -0.4118743E-03 Eh
 * total energy  :   -82.9741833 Eh     change       -0.3117226E-03 Eh
 * total energy  :   -82.9744610 Eh     change       -0.2776987E-03 Eh
 * total energy  :   -82.9831886 Eh     change       -0.3860410E-04 Eh
 * total energy  :   -82.9832161 Eh     change       -0.2748755E-04 Eh
 * total energy  :   -82.9832503 Eh     change       -0.3423318E-04 Eh
 * total energy  :   -82.9832825 Eh     change       -0.3222705E-04 Eh
 * total energy  :   -82.9833052 Eh     change       -0.2271477E-04 Eh
 * total energy  :   -82.9833232 Eh     change       -0.1791605E-04 Eh
 * total energy  :   -82.9833396 Eh     change       -0.1643964E-04 Eh
 * total energy  :   -82.9833484 Eh     change       -0.8836258E-05 Eh
 * total energy  :   -82.9833529 Eh     change       -0.4475227E-05 Eh
   *** GEOMETRY OPTIMIZATION CONVERGED AFTER 62 ITERATIONS ***

 final structure:
================
42
 xtb: 6.5.1 (579679a)
C           -6.30499616358452        1.33509135193684        0.88360680046483
O           -5.03006035664693        0.83085347899795        0.50906724427631
C           -4.74179998389370        0.88354395479719       -0.82761361566714
O           -5.54958881147961        1.35160560750799       -1.61386771957010
C           -3.43235237353545        0.33258894214189       -1.13708559522275
N           -2.70182058799286       -0.10680153890101       -0.04784421989302
C           -1.54431466489511       -0.62321165313624       -0.21408022592122
C           -0.74255933072356       -1.13180108975386        0.96464907056184
C           -0.80826569577890       -2.66007642430607        1.02440715541857
C           -1.25099578893512       -0.50691029687588        2.26510202074984
N            0.67465591056907       -0.76890544890156        0.76357295358072
C            1.06829380229798        0.48718884518768        0.53043098368772
O            0.36310282890067        1.47115991341678        0.44243016678403
C            2.55839779184466        0.59759712821291        0.34466775549325
N            3.23249028143044        1.66794198558109        0.05245423831623
N            4.51478766319387        1.26056082322431       -0.01818149192171
C            5.55507731626324        2.21707563701417       -0.32924306004804
C            4.59451139774775       -0.02873460121492        0.22767820679142
C            5.77593270325825       -0.90607283352097        0.26065332513926
O            3.37361694225211       -0.47097249347879        0.45869940295719
N           -0.98001569481491       -0.78497430514785       -1.46377618160173
C           -1.57287594131900       -0.36073360433464       -2.62676773666592
O           -0.98915412228075       -0.50936407002886       -3.69686214346115
C           -2.94268797499122        0.26484410089750       -2.47017947580602
O           -3.53373567553154        0.66435918127326       -3.48766030911727
H           -7.10446482296551        0.78033387194945        0.38141651973813
H           -6.39496231886999        2.39577039729941        0.62696578801611
H           -6.39203476573230        1.20939372131599        1.96196444043783
H           -0.41610457430048       -3.08941985070823        0.10427103312117
H           -1.84313647586430       -2.97617606825184        1.14987128455058
H           -0.22182639003719       -3.02938022105878        1.86323315985251
H           -2.29179460887049       -0.79302580049643        2.41259349270598
H           -0.65524310686201       -0.85886133263538        3.10418775723555
H           -1.19012863490062        0.57934666819662        2.21058569235467
H            1.36552838705911       -1.48903874219984        0.86419081640547
H            5.44107033555335        3.07552593363375        0.33026601428554
H            6.51849671287972        1.74147991905783       -0.17532161885351
H            5.44672664260039        2.52760589556451       -1.36785184135485
H            6.51129038600632       -0.51834424678836        0.96625364158942
H            6.24212932446801       -0.94278165891767       -0.72521089854303
H            5.47251498422636       -1.90770120453275        0.55794832843487
H           -0.07370454572717       -1.21057887198471       -1.53884415926681

          :  Hamiltonian                  GFN1-xTB          :
         :: total energy             -82.983352916392 Eh    ::
         :: gradient norm              0.000592683503 Eh/a0 ::
         :: HOMO-LUMO gap              0.430525703431 eV    ::
         :: SCC energy               -83.773817318236 Eh    ::
         :: -> Gsolv                  -0.151009875422 Eh    ::
         :: repulsion energy           0.815907487633 Eh    ::

    * Orbital Energies and Occupations

         #    Occupation            Energy/Eh            Energy/eV
      -------------------------------------------------------------
         1        2.0000           -0.9352861             -25.4504
       ...           ...                  ...                  ...
        55        2.0000           -0.5067886             -13.7904
        56        2.0000           -0.5037986             -13.7091
        57        2.0000           -0.4969800             -13.5235
        58        2.0000           -0.4884491             -13.2914
        59        2.0000           -0.4826057             -13.1324
        60        2.0000           -0.4683750             -12.7451
        61        2.0000           -0.4676670             -12.7259
        62        2.0000           -0.4606315             -12.5344
        63        2.0000           -0.4446101             -12.0985
        64        2.0000           -0.4405741             -11.9886
        65        2.0000           -0.4221140             -11.4863
        66        2.0000           -0.3820698             -10.3966
        67        1.9995           -0.3701643             -10.0727 (HOMO)
        68        0.0005           -0.3543428              -9.6422 (LUMO)
        69                         -0.3410358              -9.2801
        70                         -0.2742450              -7.4626
        71                         -0.2446115              -6.6562
        72                         -0.2355890              -6.4107
        73                         -0.2003628              -5.4521
        74                         -0.1833795              -4.9900
        75                         -0.1713364              -4.6623
        76                         -0.1341883              -3.6514
        77                         -0.1241020              -3.3770
        78                         -0.1227530              -3.3403
       ...                                ...                  ...
       134                          0.7635863              20.7782
      -------------------------------------------------------------
                  HL-Gap            0.0158215 Eh            0.4305 eV

Wiberg/Mayer (AO) data.
largest (>0.10) Wiberg bond orders for each atom

     #   Z sym  total        # sym  WBO       # sym  WBO       # sym  WBO
 ---------------------------------------------------------------------------
     1   6 C    3.898 --    28 H    0.987    27 H    0.981    26 H    0.980
                             2 O    0.926
     2   8 O    2.138 --     3 C    1.027     1 C    0.926     4 O    0.109
     3   6 C    3.850 --     4 O    1.596     5 C    1.115     2 O    1.027
     4   8 O    1.870 --     3 C    1.596     2 O    0.109
     5   6 C    3.912 --    24 C    1.264     6 N    1.155     3 C    1.115
                            25 O    0.129
     6   7 N    3.030 --     7 C    1.636     5 C    1.155
     7   6 C    3.933 --     6 N    1.636    21 N    1.090     8 C    0.972
     8   6 C    3.916 --    10 C    0.991     9 C    0.989     7 C    0.972
                            11 N    0.899
     9   6 C    3.989 --     8 C    0.989    29 H    0.984    31 H    0.983
                            30 H    0.983
    10   6 C    3.989 --     8 C    0.991    33 H    0.987    32 H    0.982
                            34 H    0.982
    11   7 N    3.387 --    12 C    1.300     8 C    0.899    35 H    0.891
                            13 O    0.201
    12   6 C    3.927 --    13 O    1.599    11 N    1.300    14 C    0.954
    13   8 O    1.918 --    12 C    1.599    11 N    0.201
    14   6 C    3.833 --    15 N    1.616    20 O    1.051    12 C    0.954
    15   7 N    2.975 --    14 C    1.616    16 N    1.146
    16   7 N    3.632 --    18 C    1.430    15 N    1.146    17 C    0.912
    17   6 C    3.888 --    37 H    0.981    36 H    0.969    38 H    0.965
                            16 N    0.912
    18   6 C    3.840 --    16 N    1.430    20 O    1.144    19 C    1.040
    19   6 C    3.961 --    18 C    1.040    41 H    0.972    39 H    0.948
                            40 H    0.944
    20   8 O    2.372 --    18 C    1.144    14 C    1.051
    21   7 N    3.421 --    22 C    1.157     7 C    1.090    42 H    0.899
                            23 O    0.135
    22   6 C    3.876 --    23 O    1.582    21 N    1.157    24 C    0.965
    23   8 O    1.860 --    22 C    1.582    21 N    0.135
    24   6 C    3.941 --    25 O    1.529     5 C    1.264    22 C    0.965
    25   8 O    1.831 --    24 C    1.529     5 C    0.129
    26   1 H    1.014 --     1 C    0.980
    27   1 H    1.013 --     1 C    0.981
    28   1 H    1.016 --     1 C    0.987
    29   1 H    0.999 --     9 C    0.984
    30   1 H    1.001 --     9 C    0.983
    31   1 H    0.997 --     9 C    0.983
    32   1 H    1.012 --    10 C    0.982
    33   1 H    1.002 --    10 C    0.987
    34   1 H    1.011 --    10 C    0.982
    35   1 H    0.929 --    11 N    0.891
    36   1 H    0.991 --    17 C    0.969
    37   1 H    0.990 --    17 C    0.981
    38   1 H    0.990 --    17 C    0.965
    39   1 H    0.987 --    19 C    0.948
    40   1 H    0.986 --    19 C    0.944
    41   1 H    0.986 --    19 C    0.972
    42   1 H    0.948 --    21 N    0.899
 ---------------------------------------------------------------------------

           -------------------------------------------------
          | TOTAL ENERGY              -82.983352916392 Eh   |
          | GRADIENT NORM               0.000592683503 Eh/α |
          | HOMO-LUMO GAP               0.430525703431 eV   |
           -------------------------------------------------

 * finished run on 2023/06/21 at 17:38:04.547
