   * xtb version 6.5.1 (579679a) compiled by 'ehlert@majestix' on 2022-07-11
          program call               : /lustre/hpc/kemi/ree/PhD/git/ReactivityQM/dep/xtb-6.5.1/bin/xtb --gfn 1 /lustre/hpc/kemi/ree/PhD/git/ReactivityQM/calculations/R02oxygendeprot/reac01prodN10/conf13/R02oxygendeprot_reac01prodN10_conf13_gfn1.xyz --opt --vfukui --chrg 0 --uhf 0 --alpb DMSO

   ID    Z sym.   atoms
    1    6 C      1, 3, 5, 6, 8, 11-15, 17, 19, 22, 23
    2    8 O      2, 4, 7, 9, 18, 24
    3    7 N      10, 16, 20, 21, 25
    4    1 H      26-42

      * Solvation model:               ALPB
        Solvent                        DMSO
        Solvent mass                       7.8130E+01 g/mol
          :  Hamiltonian                  GFN1-xTB          :
 * total energy  :   -82.9626984 Eh     change       -0.7219114E-11 Eh
 * total energy  :   -82.9752400 Eh     change       -0.1254160E-01 Eh
 * total energy  :   -82.9805294 Eh     change       -0.5289452E-02 Eh
 * total energy  :   -82.9814515 Eh     change       -0.9220462E-03 Eh
 * total energy  :   -82.9818630 Eh     change       -0.4114921E-03 Eh
 * total energy  :   -82.9820377 Eh     change       -0.1747037E-03 Eh
 * total energy  :   -82.9821333 Eh     change       -0.9563203E-04 Eh
 * total energy  :   -82.9821998 Eh     change       -0.6650718E-04 Eh
 * total energy  :   -82.9822667 Eh     change       -0.6690797E-04 Eh
 * total energy  :   -82.9823374 Eh     change       -0.7072065E-04 Eh
 * total energy  :   -82.9827148 Eh     change       -0.1536356E-04 Eh
 * total energy  :   -82.9827266 Eh     change       -0.1180449E-04 Eh
 * total energy  :   -82.9827360 Eh     change       -0.9408696E-05 Eh
 * total energy  :   -82.9827451 Eh     change       -0.9119004E-05 Eh
 * total energy  :   -82.9827550 Eh     change       -0.9896774E-05 Eh
 * total energy  :   -82.9827717 Eh     change       -0.1668921E-04 Eh
 * total energy  :   -82.9827773 Eh     change       -0.5611646E-05 Eh
 * total energy  :   -82.9827855 Eh     change       -0.8164775E-05 Eh
 * total energy  :   -82.9827903 Eh     change       -0.4827728E-05 Eh
   *** GEOMETRY OPTIMIZATION CONVERGED AFTER 33 ITERATIONS ***

 final structure:
================
42
 xtb: 6.5.1 (579679a)
C           -6.70288164487900        0.26425343269790        0.34515044092691
O           -5.37928423281456        0.46327349526705       -0.16873897962349
C           -4.40111769631522       -0.19100453217382        0.42878040991008
O           -4.54148665069679       -0.94071842341762        1.36113504695653
C           -3.05274965391484        0.08791266448496       -0.20772690237875
C           -2.79385374948071        1.35714549593227       -0.94801735589432
O           -3.41221443495362        2.37599298299712       -0.77725592317819
C           -1.63333558721999        1.25145151498601       -1.93932500920336
O           -1.53604274039974        1.95661710416037       -2.92288325417570
N           -0.73555519812745        0.29401073387856       -1.62603482924333
C           -0.83351537803234       -0.67350563251699       -0.54661444566786
C           -0.44015901928324       -2.04394827196183       -1.11198105541646
C            0.07565925641898       -0.23646787308751        0.65931884325019
C           -0.00907580575280       -1.27330292563766        1.78294752111168
C           -0.33583852478489        1.14803239054431        1.16759264341968
N            1.44341978190730       -0.16287171692822        0.14190208140165
C            2.51319425793879        0.12557180964169        0.92012574156041
O            2.49546980771828        0.26680364024949        2.12844784387836
C            3.74374150577326        0.23678036108404        0.09794543454229
N            3.81527404722328        0.13491224801835       -1.19565443921085
N            5.12422590924440        0.30379489061976       -1.53078287358313
C            5.76881479355183        0.49833847804902       -0.41936107916732
C            7.21895962892419        0.73291209203311       -0.24398352243633
O            4.95115636022858        0.46904209494514        0.64309211505425
N           -2.15586638309004       -0.80048759174252       -0.03003153889819
H           -6.76132651361089        0.63594670280046        1.37014643690820
H           -7.37324553844141        0.82394908932457       -0.30312267482202
H           -6.95183656339456       -0.79865640021905        0.32857938470066
H            0.01540973231683        0.16418921429228       -2.28477830139758
H           -1.01593722311061       -2.23267348611495       -2.01585902727732
H            0.61973765845605       -2.06991044768863       -1.35149793412356
H           -0.66663464990526       -2.82016764836149       -0.38500368329531
H            0.49111853094071       -0.89615629066924        2.67329913332843
H           -1.05387014979257       -1.46795470976027        2.02011773050436
H            0.47083143532878       -2.20307980360605        1.48471616600806
H            0.32582574472560        1.44019859999337        1.98127914194820
H           -1.35734879801027        1.12619331873917        1.54284731156878
H           -0.25777647980800        1.88542776471693        0.37044898681992
H            1.58647841538623       -0.14439762071187       -0.85554995962387
H            7.39225455835510        1.75388544242765        0.09819453800515
H            7.61702883174346        0.05226315048513        0.50822952475157
H            7.73235335963921        0.57779066222641       -1.19009468794025

          :  Hamiltonian                  GFN1-xTB          :
         :: total energy             -82.982790309710 Eh    ::
         :: gradient norm              0.000866635274 Eh/a0 ::
         :: HOMO-LUMO gap              1.773235028883 eV    ::
         :: SCC energy               -83.763894427793 Eh    ::
         :: -> Gsolv                  -0.054497202050 Eh    ::
         :: repulsion energy           0.808698115357 Eh    ::

    * Orbital Energies and Occupations

         #    Occupation            Energy/Eh            Energy/eV
      -------------------------------------------------------------
         1        2.0000           -0.8654286             -23.5495
       ...           ...                  ...                  ...
        55        2.0000           -0.5078168             -13.8184
        56        2.0000           -0.5076021             -13.8126
        57        2.0000           -0.5056285             -13.7589
        58        2.0000           -0.5035864             -13.7033
        59        2.0000           -0.4983542             -13.5609
        60        2.0000           -0.4848357             -13.1931
        61        2.0000           -0.4820945             -13.1185
        62        2.0000           -0.4726552             -12.8616
        63        2.0000           -0.4651410             -12.6571
        64        2.0000           -0.4620440             -12.5729
        65        2.0000           -0.4542698             -12.3613
        66        2.0000           -0.4504627             -12.2577
        67        2.0000           -0.4388600             -11.9420 (HOMO)
        68                         -0.3736948             -10.1688 (LUMO)
        69                         -0.3193319              -8.6895
        70                         -0.3140162              -8.5448
        71                         -0.2583679              -7.0305
        72                         -0.2531091              -6.8874
        73                         -0.2081544              -5.6642
        74                         -0.2019055              -5.4941
        75                         -0.1451160              -3.9488
        76                         -0.1431922              -3.8965
        77                         -0.1425450              -3.8788
        78                         -0.1337301              -3.6390
       ...                                ...                  ...
       134                          0.7639553              20.7883
      -------------------------------------------------------------
                  HL-Gap            0.0651652 Eh            1.7732 eV

Wiberg/Mayer (AO) data.
largest (>0.10) Wiberg bond orders for each atom

     #   Z sym  total        # sym  WBO       # sym  WBO       # sym  WBO
 ---------------------------------------------------------------------------
     1   6 C    3.859 --    27 H    0.985    28 H    0.979    26 H    0.978
                             2 O    0.884
     2   8 O    2.225 --     3 C    1.148     1 C    0.884     4 O    0.147
     3   6 C    3.854 --     4 O    1.685     2 O    1.148     5 C    0.944
     4   8 O    1.949 --     3 C    1.685     2 O    0.147
     5   6 C    3.952 --    25 N    1.787     6 C    0.991     3 C    0.944
     6   6 C    3.856 --     7 O    1.804     5 C    0.991     8 C    0.907
     7   8 O    2.009 --     6 C    1.804
     8   6 C    3.904 --     9 O    1.633    10 N    1.247     6 C    0.907
     9   8 O    1.926 --     8 C    1.633    10 N    0.184
    10   7 N    3.359 --     8 C    1.247    11 C    0.937    29 H    0.884
                             9 O    0.184
    11   6 C    3.914 --    25 N    1.009    12 C    0.970    10 N    0.937
                            13 C    0.900
    12   6 C    3.980 --    30 H    0.982    31 H    0.981    32 H    0.980
                            11 C    0.970
    13   6 C    3.928 --    14 C    0.996    15 C    0.995    16 N    0.929
                            11 C    0.900
    14   6 C    3.988 --    13 C    0.996    35 H    0.983    34 H    0.983
                            33 H    0.976
    15   6 C    3.990 --    13 C    0.995    37 H    0.983    38 H    0.982
                            36 H    0.975
    16   7 N    3.332 --    17 C    1.236    13 C    0.929    39 H    0.894
                            18 O    0.174
    17   6 C    3.914 --    18 O    1.602    16 N    1.236    19 C    0.991
    18   8 O    1.919 --    17 C    1.602    16 N    0.174
    19   6 C    3.876 --    20 N    1.608    24 O    1.065    17 C    0.991
    20   7 N    3.019 --    19 C    1.608    21 N    1.202
    21   7 N    2.981 --    22 C    1.602    20 N    1.202
    22   6 C    3.870 --    21 N    1.602    24 O    1.084    23 C    1.032
    23   6 C    3.986 --    22 C    1.032    42 H    0.982    41 H    0.967
                            40 H    0.960
    24   8 O    2.332 --    22 C    1.084    19 C    1.065
    25   7 N    3.054 --     5 C    1.787    11 C    1.009
    26   1 H    1.004 --     1 C    0.978
    27   1 H    1.009 --     1 C    0.985
    28   1 H    1.005 --     1 C    0.979
    29   1 H    0.924 --    10 N    0.884
    30   1 H    0.998 --    12 C    0.982
    31   1 H    0.997 --    12 C    0.981
    32   1 H    1.003 --    12 C    0.980
    33   1 H    1.010 --    14 C    0.976
    34   1 H    1.008 --    14 C    0.983
    35   1 H    1.002 --    14 C    0.983
    36   1 H    1.005 --    15 C    0.975
    37   1 H    1.001 --    15 C    0.983
    38   1 H    1.003 --    15 C    0.982
    39   1 H    0.954 --    16 N    0.894
    40   1 H    0.996 --    23 C    0.960
    41   1 H    0.996 --    23 C    0.967
    42   1 H    0.998 --    23 C    0.982
 ---------------------------------------------------------------------------

           -------------------------------------------------
          | TOTAL ENERGY              -82.982790309710 Eh   |
          | GRADIENT NORM               0.000866635274 Eh/α |
          | HOMO-LUMO GAP               1.773235028883 eV   |
           -------------------------------------------------

 * finished run on 2023/06/21 at 17:25:37.897
