   * xtb version 6.5.1 (579679a) compiled by 'ehlert@majestix' on 2022-07-11
          program call               : /lustre/hpc/kemi/ree/PhD/git/ReactivityQM/dep/xtb-6.5.1/bin/xtb --gfn 1 /lustre/hpc/kemi/ree/PhD/git/ReactivityQM/calculations/R03/reac02prodN10/conf19/R03_reac02prodN10_conf19_gfn1.xyz --opt --vfukui --chrg 1 --uhf 0 --alpb DMSO

   ID    Z sym.   atoms
    1    6 C      1, 3, 5, 6, 8, 11-16, 18, 20, 23, 24
    2    8 O      2, 4, 7, 9, 19, 25
    3    7 N      10, 17, 21, 22, 26
    4    1 H      27-46

      * Solvation model:               ALPB
        Solvent                        DMSO
        Solvent mass                       7.8130E+01 g/mol
          :  Hamiltonian                  GFN1-xTB          :
 * total energy  :   -86.2697696 Eh     change       -0.9464429E-10 Eh
 * total energy  :   -86.2876185 Eh     change       -0.1784887E-01 Eh
 * total energy  :   -86.2952845 Eh     change       -0.7665986E-02 Eh
 * total energy  :   -86.2969006 Eh     change       -0.1616125E-02 Eh
 * total energy  :   -86.2977958 Eh     change       -0.8951796E-03 Eh
 * total energy  :   -86.2980746 Eh     change       -0.2788364E-03 Eh
 * total energy  :   -86.2982436 Eh     change       -0.1689399E-03 Eh
 * total energy  :   -86.2983539 Eh     change       -0.1103594E-03 Eh
 * total energy  :   -86.2984502 Eh     change       -0.9625592E-04 Eh
 * total energy  :   -86.2985646 Eh     change       -0.1143559E-03 Eh
 * total energy  :   -86.2992380 Eh     change       -0.2331416E-04 Eh
 * total energy  :   -86.2992483 Eh     change       -0.1027085E-04 Eh
 * total energy  :   -86.2992614 Eh     change       -0.1311464E-04 Eh
 * total energy  :   -86.2992690 Eh     change       -0.7570646E-05 Eh
 * total energy  :   -86.2992848 Eh     change       -0.1583011E-04 Eh
 * total energy  :   -86.2992901 Eh     change       -0.5275913E-05 Eh
 * total energy  :   -86.2992970 Eh     change       -0.6866454E-05 Eh
 * total energy  :   -86.2993031 Eh     change       -0.6191441E-05 Eh
 * total energy  :   -86.2993070 Eh     change       -0.3854075E-05 Eh
   *** GEOMETRY OPTIMIZATION CONVERGED AFTER 29 ITERATIONS ***

 final structure:
================
46
 xtb: 6.5.1 (579679a)
C           -3.45946965515021       -4.06549638502438       -0.28275511002802
O           -3.34040711477783       -2.63225827982446       -0.23642055326520
C           -2.17449353246761       -2.13589487385201        0.10662634677948
O           -1.19358139054491       -2.76868622386384        0.39096696300232
C           -2.16767211978051       -0.61354677379821        0.10244994732579
C           -3.17100935085296        0.21015227837092       -0.46239700863434
O           -4.22328917756090       -0.23158971566110       -1.04707589240658
C           -3.05154855599462        1.68101251777535       -0.35855567938710
O           -3.95295244338680        2.38730860902023       -0.77390963510517
N           -1.93627100658915        2.14717328653007        0.25903171908753
C           -1.95704548348350        3.59516498607466        0.46705920967794
C           -0.84851238383070        1.29948266816019        0.67768733505665
C           -0.38542775873816        1.62962158874094        2.10593127932056
C            0.40754693653693        1.41991285188845       -0.36415041649540
C           -0.07838882701389        1.07878992924886       -1.77046851635174
C            1.03623926969987        2.80122356909126       -0.33002233444966
N            1.34541177953657        0.41666040065574        0.09928171566285
C            2.60409241390316        0.26542302893190       -0.41247603575361
O            3.17809522132053        1.04815073232149       -1.13868638942780
C            3.18955634885855       -1.00663302967956        0.06149768448652
N            2.59452497505573       -1.89802284126647        0.79777225434190
N            3.48340323002411       -2.90731691705759        0.98401046215637
C            4.56724640020423       -2.57270087799286        0.34553006770921
C            5.82921553176217       -3.33630647386279        0.24188254160539
O            4.44013087693664       -1.38271986181523       -0.25707257639827
N           -1.12129743242295       -0.06699150863148        0.64519066312623
H           -3.39944585840699       -4.46933402524749        0.72948389091035
H           -2.65778795642034       -4.48197003864267       -0.89509237444630
H           -4.43159720221646       -4.27561192199105       -0.72251109840118
H           -4.78928517151921        0.51072755027802       -1.36539957693284
H           -1.97785803347793        4.08302747547599       -0.50793120529726
H           -1.09910457477965        3.91930469153557        1.04141610454413
H           -2.87969862281167        3.83900575304041        0.99610597342711
H           -0.03501514908811        2.65302604259428        2.19009654742894
H            0.42074901247471        0.95154232696049        2.37722456980306
H           -1.22627931558634        1.48077593134599        2.78025907424442
H           -0.49376987227622        0.07460859180306       -1.81360671485225
H            0.78016937933615        1.12880410650987       -2.44102316693274
H           -0.82575285213226        1.79548162891874       -2.10344694111577
H            0.33070611158951        3.55664398578041       -0.66292175224758
H            1.41366967107312        3.05324155919794        0.65787882224258
H            1.87767143811401        2.80552159586425       -1.02491090903382
H            0.93403032871474       -0.42328789656366        0.49476600225998
H            6.63304917667317       -2.79378784295772        0.74036781485471
H            6.10387846502789       -3.45826297806768       -0.80556196854959
H            5.70757027446915       -4.31136722030511        0.70761586645500

          :  Hamiltonian                  GFN1-xTB          :
         :: total energy             -86.299307000603 Eh    ::
         :: gradient norm              0.000691616782 Eh/a0 ::
         :: HOMO-LUMO gap              0.707155087244 eV    ::
         :: SCC energy               -87.124400815930 Eh    ::
         :: -> Gsolv                  -0.108509485094 Eh    ::
         :: repulsion energy           0.856421199249 Eh    ::

    * Orbital Energies and Occupations

         #    Occupation            Energy/Eh            Energy/eV
      -------------------------------------------------------------
         1        2.0000           -0.9032508             -24.5787
       ...           ...                  ...                  ...
        58        2.0000           -0.5295593             -14.4100
        59        2.0000           -0.5271486             -14.3444
        60        2.0000           -0.5258324             -14.3086
        61        2.0000           -0.5210523             -14.1786
        62        2.0000           -0.5179298             -14.0936
        63        2.0000           -0.5155948             -14.0300
        64        2.0000           -0.4977686             -13.5450
        65        2.0000           -0.4969512             -13.5227
        66        2.0000           -0.4912105             -13.3665
        67        2.0000           -0.4837925             -13.1647
        68        2.0000           -0.4780819             -13.0093
        69        2.0000           -0.4650732             -12.6553
        70        2.0000           -0.4634651             -12.6115 (HOMO)
        71        0.0000           -0.4374776             -11.9044 (LUMO)
        72                         -0.3608100              -9.8181
        73                         -0.3293555              -8.9622
        74                         -0.2829093              -7.6984
        75                         -0.2672733              -7.2729
        76                         -0.2297228              -6.2511
        77                         -0.2165862              -5.8936
        78                         -0.1714437              -4.6652
        79                         -0.1606377              -4.3712
        80                         -0.1528227              -4.1585
        81                         -0.1470543              -4.0016
       ...                                ...                  ...
       144                          0.7239421              19.6995
      -------------------------------------------------------------
                  HL-Gap            0.0259875 Eh            0.7072 eV

Wiberg/Mayer (AO) data.
largest (>0.10) Wiberg bond orders for each atom

     #   Z sym  total        # sym  WBO       # sym  WBO       # sym  WBO
 ---------------------------------------------------------------------------
     1   6 C    3.845 --    29 H    0.984    28 H    0.978    27 H    0.977
                             2 O    0.872
     2   8 O    2.232 --     3 C    1.164     1 C    0.872     4 O    0.152
     3   6 C    3.865 --     4 O    1.692     2 O    1.164     5 C    0.937
     4   8 O    1.962 --     3 C    1.692     2 O    0.152
     5   6 C    3.951 --    26 N    1.564     6 C    1.206     3 C    0.937
     6   6 C    3.827 --     7 O    1.323     5 C    1.206     8 C    1.003
     7   8 O    2.246 --     6 C    1.323    30 H    0.750
     8   6 C    3.925 --     9 O    1.587    10 N    1.218     6 C    1.003
     9   8 O    1.939 --     8 C    1.587    10 N    0.189
    10   7 N    3.494 --     8 C    1.218    12 C    0.968    11 C    0.922
                             9 O    0.189
    11   6 C    3.902 --    32 H    0.980    31 H    0.961    33 H    0.958
                            10 N    0.922
    12   6 C    3.904 --    26 N    1.097    10 N    0.968    13 C    0.935
                            14 C    0.766
    13   6 C    3.960 --    35 H    0.978    36 H    0.977    34 H    0.974
                            12 C    0.935
    14   6 C    3.912 --    16 C    1.010    15 C    0.994    17 N    0.963
                            12 C    0.766
    15   6 C    3.986 --    14 C    0.994    39 H    0.982    37 H    0.982
                            38 H    0.964
    16   6 C    3.980 --    14 C    1.010    40 H    0.978    41 H    0.977
                            42 H    0.941
    17   7 N    3.318 --    18 C    1.186    14 C    0.963    43 H    0.877
                            19 O    0.154
    18   6 C    3.904 --    19 O    1.627    17 N    1.186    20 C    0.998
    19   8 O    1.945 --    18 C    1.627    17 N    0.154
    20   6 C    3.875 --    21 N    1.596    25 O    1.065    18 C    0.998
    21   7 N    3.024 --    20 C    1.596    22 N    1.214
    22   7 N    2.979 --    23 C    1.588    21 N    1.214
    23   6 C    3.864 --    22 N    1.588    25 O    1.087    24 C    1.033
    24   6 C    3.984 --    23 C    1.033    46 H    0.982    45 H    0.964
                            44 H    0.959
    25   8 O    2.336 --    23 C    1.087    20 C    1.065
    26   7 N    3.056 --     5 C    1.564    12 C    1.097
    27   1 H    1.001 --     1 C    0.977
    28   1 H    1.002 --     1 C    0.978
    29   1 H    1.006 --     1 C    0.984
    30   1 H    0.800 --     7 O    0.750
    31   1 H    0.996 --    11 C    0.961
    32   1 H    1.000 --    11 C    0.980
    33   1 H    0.994 --    11 C    0.958
    34   1 H    0.999 --    13 C    0.974
    35   1 H    1.000 --    13 C    0.978
    36   1 H    0.993 --    13 C    0.977
    37   1 H    0.999 --    15 C    0.982
    38   1 H    0.995 --    15 C    0.964
    39   1 H    0.997 --    15 C    0.982
    40   1 H    0.998 --    16 C    0.978
    41   1 H    0.997 --    16 C    0.977
    42   1 H    0.995 --    16 C    0.941
    43   1 H    0.963 --    17 N    0.877
    44   1 H    0.995 --    24 C    0.959
    45   1 H    0.995 --    24 C    0.964
    46   1 H    0.997 --    24 C    0.982
 ---------------------------------------------------------------------------

           -------------------------------------------------
          | TOTAL ENERGY              -86.299307000603 Eh   |
          | GRADIENT NORM               0.000691616782 Eh/α |
          | HOMO-LUMO GAP               0.707155087244 eV   |
           -------------------------------------------------

 * finished run on 2023/06/20 at 15:45:00.459
