   * xtb version 6.5.1 (579679a) compiled by 'ehlert@majestix' on 2022-07-11
          program call               : /lustre/hpc/kemi/ree/PhD/git/ReactivityQM/dep/xtb-6.5.1/bin/xtb --gfn 1 /lustre/hpc/kemi/ree/PhD/git/ReactivityQM/calculations/R02deprot/reac01prodE01/conf13/R02deprot_reac01prodE01_conf13_gfn1.xyz --opt --vfukui --chrg -2 --uhf 0 --alpb DMSO

   ID    Z sym.   atoms
    1    6 C      1, 3, 5, 7-10, 12, 13, 15, 18, 19, 22, 24
    2    8 O      2, 4, 14, 20, 23, 25
    3    7 N      6, 11, 16, 17, 21
    4    1 H      26-42

      * Solvation model:               ALPB
        Solvent                        DMSO
        Solvent mass                       7.8130E+01 g/mol
          :  Hamiltonian                  GFN1-xTB          :
 * total energy  :   -83.6076010 Eh     change       -0.5350387E-10 Eh
 * total energy  :   -83.6214407 Eh     change       -0.1383963E-01 Eh
 * total energy  :   -83.6267312 Eh     change       -0.5290580E-02 Eh
 * total energy  :   -83.6279423 Eh     change       -0.1211042E-02 Eh
 * total energy  :   -83.6287367 Eh     change       -0.7943708E-03 Eh
 * total energy  :   -83.6291189 Eh     change       -0.3822768E-03 Eh
 * total energy  :   -83.6293717 Eh     change       -0.2527703E-03 Eh
 * total energy  :   -83.6295056 Eh     change       -0.1338682E-03 Eh
 * total energy  :   -83.6295676 Eh     change       -0.6203464E-04 Eh
 * total energy  :   -83.6296068 Eh     change       -0.3916066E-04 Eh
 * total energy  :   -83.6298974 Eh     change       -0.1509036E-04 Eh
 * total energy  :   -83.6299139 Eh     change       -0.1653461E-04 Eh
 * total energy  :   -83.6299253 Eh     change       -0.1139886E-04 Eh
 * total energy  :   -83.6299424 Eh     change       -0.1713379E-04 Eh
 * total energy  :   -83.6299509 Eh     change       -0.8467309E-05 Eh
 * total energy  :   -83.6299613 Eh     change       -0.1043417E-04 Eh
 * total energy  :   -83.6299735 Eh     change       -0.1218728E-04 Eh
 * total energy  :   -83.6299794 Eh     change       -0.5863486E-05 Eh
 * total energy  :   -83.6299840 Eh     change       -0.4614044E-05 Eh
   *** GEOMETRY OPTIMIZATION CONVERGED AFTER 30 ITERATIONS ***

 final structure:
================
42
 xtb: 6.5.1 (579679a)
C            6.52591171438826       -1.39218871108374        0.73801838363740
O            5.52714712955892       -0.37611898889852        0.81140608096325
C            4.28078093019062       -0.74503850345482        0.42190873167916
O            4.05779515142058       -1.87657656287619        0.03915267090169
C            3.27660405281909        0.33314233074458        0.50793955225622
N            2.03857830253965       -0.05055280929831        0.07841122910871
C            1.06815012023627        0.84664112473607        0.11095145943226
C           -0.29084641944545        0.36313877111661       -0.41373722929001
C           -0.10297835829847        0.10357265939173       -1.92456660559113
C           -0.61768584632736       -0.96253492904232        0.30247820759621
N           -1.30801540884007        1.36168354841904       -0.07333429469547
C           -2.52618066138395        1.48949500724097       -0.98915232994558
C           -3.46037213584892        2.48510750612920       -0.20629893394731
O           -2.27668419381672        1.85222386495545       -2.21362509773869
C           -3.27185881727410        0.11058605377690       -0.89970549408158
N           -3.37512334719486       -0.78583273169123       -1.83211374074698
N           -4.21047412342060       -1.77725405151359       -1.35591086349942
C           -4.56748205197753       -1.40962247281988       -0.17211244963221
C           -5.47600103361384       -2.12300292850032        0.75896754291825
O           -4.01919704142741       -0.23114008552191        0.18211478255848
N            1.18158703008587        2.10472399372246        0.51680835210100
C            2.37267815436114        2.57474000929230        0.96894875914018
O            2.51544539323247        3.74756289486413        1.36543400067350
C            3.48992177277774        1.61644314729528        0.96102096767270
O            4.67493098497355        2.10559249053301        1.41880517806978
H            6.60975544514497       -1.77003207290114       -0.28456183239553
H            6.27539469296450       -2.22033880711586        1.40631893096987
H            7.46466262645702       -0.93710089714064        1.04503578511676
H           -0.99063298669195       -0.35105500067724       -2.36384323638724
H            0.74273461510754       -0.57286177076486       -2.06215017438690
H            0.10392823310797        1.03780885949578       -2.44663457634597
H            0.22900646398749       -1.64518941104805        0.22703879794215
H           -0.81928157344891       -0.76718870830720        1.35597807432349
H           -1.49050166829841       -1.44326707123824       -0.13567292539706
H           -0.85716943604367        2.28211340482251       -0.12065561587081
H           -3.02187240033404        3.48045731009298       -0.25499544619199
H           -4.43699846790837        2.50846146664316       -0.68724276095365
H           -3.57222272792771        2.18637366285145        0.83442399809245
H           -6.41238840863711       -1.57486647975463        0.86595982617237
H           -5.01980186160551       -2.20738341269681        1.74467628015471
H           -5.68933071825670       -3.11598328014754        0.37061546024577
H            5.37808787468114        1.44099658034870        1.40390155536926

          :  Hamiltonian                  GFN1-xTB          :
         :: total energy             -83.629984001855 Eh    ::
         :: gradient norm              0.000632984926 Eh/a0 ::
         :: HOMO-LUMO gap              1.606785284282 eV    ::
         :: SCC energy               -84.355681433814 Eh    ::
         :: -> Gsolv                  -0.282656966029 Eh    ::
         :: repulsion energy           0.752414472780 Eh    ::

    * Orbital Energies and Occupations

         #    Occupation            Energy/Eh            Energy/eV
      -------------------------------------------------------------
         1        2.0000           -0.8153322             -22.1863
       ...           ...                  ...                  ...
        56        2.0000           -0.4375276             -11.9057
        57        2.0000           -0.4309754             -11.7274
        58        2.0000           -0.4294430             -11.6857
        59        2.0000           -0.4134389             -11.2502
        60        2.0000           -0.4090708             -11.1314
        61        2.0000           -0.4029458             -10.9647
        62        2.0000           -0.4020683             -10.9408
        63        2.0000           -0.3811927             -10.3728
        64        2.0000           -0.3585316              -9.7561
        65        2.0000           -0.3535068              -9.6194
        66        2.0000           -0.3530226              -9.6062
        67        2.0000           -0.3325609              -9.0494
        68        2.0000           -0.3273761              -8.9084 (HOMO)
        69                         -0.2683278              -7.3016 (LUMO)
        70                         -0.2234423              -6.0802
        71                         -0.2078765              -5.6566
        72                         -0.2063449              -5.6149
        73                         -0.1779887              -4.8433
        74                         -0.1287349              -3.5031
        75                         -0.1245570              -3.3894
        76                         -0.0911690              -2.4808
        77                         -0.0833288              -2.2675
        78                         -0.0767301              -2.0879
        79                         -0.0704072              -1.9159
       ...                                ...                  ...
       134                          0.7430867              20.2204
      -------------------------------------------------------------
                  HL-Gap            0.0590483 Eh            1.6068 eV

Wiberg/Mayer (AO) data.
largest (>0.10) Wiberg bond orders for each atom

     #   Z sym  total        # sym  WBO       # sym  WBO       # sym  WBO
 ---------------------------------------------------------------------------
     1   6 C    3.883 --    28 H    0.987    27 H    0.981    26 H    0.980
                             2 O    0.906
     2   8 O    2.178 --     3 C    1.048     1 C    0.906     4 O    0.116
     3   6 C    3.828 --     4 O    1.640     2 O    1.048     5 C    1.040
     4   8 O    1.902 --     3 C    1.640     2 O    0.116
     5   6 C    3.963 --    24 C    1.460     6 N    1.215     3 C    1.040
     6   7 N    2.995 --     7 C    1.433     5 C    1.215
     7   6 C    3.946 --     6 N    1.433    21 N    1.384     8 C    0.969
     8   6 C    3.970 --    10 C    0.986    11 N    0.982     9 C    0.975
                             7 C    0.969
     9   6 C    3.996 --    30 H    0.986    31 H    0.984    29 H    0.981
                             8 C    0.975
    10   6 C    3.996 --    33 H    0.987     8 C    0.986    32 H    0.985
                            34 H    0.983
    11   7 N    2.976 --     8 C    0.982    35 H    0.934    12 C    0.861
    12   6 C    3.940 --    14 O    1.217    13 C    0.928    15 C    0.882
                            11 N    0.861
    13   6 C    3.991 --    38 H    0.991    37 H    0.989    36 H    0.987
                            12 C    0.928
    14   8 O    1.516 --    12 C    1.217
    15   6 C    3.795 --    16 N    1.647    20 O    1.037    12 C    0.882
    16   7 N    2.976 --    15 C    1.647    17 N    1.149
    17   7 N    2.975 --    18 C    1.655    16 N    1.149
    18   6 C    3.889 --    17 N    1.655    20 O    1.064    19 C    1.023
    19   6 C    3.993 --    18 C    1.023    41 H    0.985    40 H    0.974
                            39 H    0.968
    20   8 O    2.288 --    18 C    1.064    15 C    1.037
    21   7 N    3.000 --     7 C    1.384    22 C    1.239    23 O    0.124
    22   6 C    3.932 --    23 O    1.481    21 N    1.239    24 C    1.078
    23   8 O    1.767 --    22 C    1.481    21 N    0.124
    24   6 C    3.898 --     5 C    1.460    22 C    1.078    25 O    1.048
    25   8 O    2.035 --    24 C    1.048    42 H    0.829
    26   1 H    1.011 --     1 C    0.980
    27   1 H    1.011 --     1 C    0.981
    28   1 H    1.012 --     1 C    0.987
    29   1 H    1.037 --     9 C    0.981
    30   1 H    1.019 --     9 C    0.986
    31   1 H    1.032 --     9 C    0.984
    32   1 H    1.025 --    10 C    0.985
    33   1 H    1.018 --    10 C    0.987
    34   1 H    1.014 --    10 C    0.983
    35   1 H    1.003 --    11 N    0.934
    36   1 H    1.017 --    13 C    0.987
    37   1 H    1.017 --    13 C    0.989
    38   1 H    1.020 --    13 C    0.991
    39   1 H    1.003 --    19 C    0.968
    40   1 H    1.002 --    19 C    0.974
    41   1 H    1.003 --    19 C    0.985
    42   1 H    0.880 --    25 O    0.829
 ---------------------------------------------------------------------------

           -------------------------------------------------
          | TOTAL ENERGY              -83.629984001855 Eh   |
          | GRADIENT NORM               0.000632984926 Eh/α |
          | HOMO-LUMO GAP               1.606785284282 eV   |
           -------------------------------------------------

 * finished run on 2023/06/20 at 17:32:33.940
