                         Program Version 5.0.1 -  RELEASE  -
|  1> # ORCA input file
|  2> ! SP r2SCAN-3c CPCM
|  3>
|  4> %maxcore 1875.0
|  5> %pal nprocs 4 end
|  6> %cpcm smd true SMDsolvent "DMSO" end
|  7>
|  8> *xyz 0 1
|  9> C      -3.201805    0.724084    2.617467
| 10> O      -2.685966    0.076032    1.439560
| 11> C      -3.537581   -0.226812    0.498154
| 12> O      -4.719444   -0.048571    0.507698
| 13> C      -2.815972   -0.894617   -0.751343
| 14> C      -3.865782   -1.095383   -1.846162
| 15> N      -1.827239    0.057804   -1.137645
| 16> C      -0.593358   -0.123680   -0.776552
| 17> C       0.382419    0.961800   -1.208885
| 18> C       0.621198    0.810821   -2.719519
| 19> C      -0.198882    2.341828   -0.878672
| 20> N       1.630813    0.756750   -0.481189
| 21> C       2.714940    1.534880   -0.615056
| 22> O       2.811319    2.502716   -1.356607
| 23> C       3.839529    1.107546    0.261005
| 24> N       5.024992    1.627455    0.339212
| 25> N       5.706558    0.915163    1.281982
| 26> C       4.894046    0.005657    1.721582
| 27> C       5.155235   -1.017187    2.757781
| 28> O       3.696721    0.071391    1.116504
| 29> N      -0.060329   -1.173999   -0.112830
| 30> C      -0.828782   -2.218531    0.205428
| 31> O      -0.488955   -3.271901    0.748547
| 32> C      -2.263629   -2.120494   -0.186069
| 33> O      -2.986978   -3.151669    0.066317
| 34> H      -3.488873    1.747860    2.373380
| 35> H      -2.394522    0.716310    3.345843
| 36> H      -4.066936    0.174966    2.991715
| 37> H      -3.391799   -1.534415   -2.720709
| 38> H      -4.652198   -1.754590   -1.485586
| 39> H      -4.290318   -0.129788   -2.111041
| 40> H       1.294491    1.589386   -3.074626
| 41> H      -0.331019    0.894993   -3.240578
| 42> H       1.057120   -0.164679   -2.930687
| 43> H      -1.181277    2.433543   -1.338627
| 44> H       0.450309    3.128606   -1.258945
| 45> H      -0.301600    2.451186    0.199938
| 46> H       1.659578   -0.050280    0.130903
| 47> H       4.466303   -0.885499    3.591787
| 48> H       6.178553   -0.924526    3.113288
| 49> H       4.998712   -2.013980    2.346251
| 50> H      -2.409595   -3.830174    0.508529
| 51> **                         ****END OF INPUT****

CARTESIAN COORDINATES (ANGSTROEM)
---------------------------------
  C     -3.201805    0.724084    2.617467
  O     -2.685966    0.076032    1.439560
  C     -3.537581   -0.226812    0.498154
  O     -4.719444   -0.048571    0.507698
  C     -2.815972   -0.894617   -0.751343
  C     -3.865782   -1.095383   -1.846162
  N     -1.827239    0.057804   -1.137645
  C     -0.593358   -0.123680   -0.776552
  C      0.382419    0.961800   -1.208885
  C      0.621198    0.810821   -2.719519
  C     -0.198882    2.341828   -0.878672
  N      1.630813    0.756750   -0.481189
  C      2.714940    1.534880   -0.615056
  O      2.811319    2.502716   -1.356607
  C      3.839529    1.107546    0.261005
  N      5.024992    1.627455    0.339212
  N      5.706558    0.915163    1.281982
  C      4.894046    0.005657    1.721582
  C      5.155235   -1.017187    2.757781
  O      3.696721    0.071391    1.116504
  N     -0.060329   -1.173999   -0.112830
  C     -0.828782   -2.218531    0.205428
  O     -0.488955   -3.271901    0.748547
  C     -2.263629   -2.120494   -0.186069
  O     -2.986978   -3.151669    0.066317
  H     -3.488873    1.747860    2.373380
  H     -2.394522    0.716310    3.345843
  H     -4.066936    0.174966    2.991715
  H     -3.391799   -1.534415   -2.720709
  H     -4.652198   -1.754590   -1.485586
  H     -4.290318   -0.129788   -2.111041
  H      1.294491    1.589386   -3.074626
  H     -0.331019    0.894993   -3.240578
  H      1.057120   -0.164679   -2.930687
  H     -1.181277    2.433543   -1.338627
  H      0.450309    3.128606   -1.258945
  H     -0.301600    2.451186    0.199938
  H      1.659578   -0.050280    0.130903
  H      4.466303   -0.885499    3.591787
  H      6.178553   -0.924526    3.113288
  H      4.998712   -2.013980    2.346251
  H     -2.409595   -3.830174    0.508529

 Total Charge           Charge          ....    0
 Multiplicity           Mult            ....    1
 Number of Electrons    NEL             ....  184
 Basis Dimension        Dim             ....  615

ORBITAL ENERGIES
----------------

  NO   OCC          E(Eh)            E(eV)
   0   2.0000     -19.074392      -519.0406
   1   2.0000     -19.063499      -518.7442
   2   2.0000     -19.034002      -517.9415
   3   2.0000     -18.977506      -516.4042
   4   2.0000     -18.944524      -515.5067
   5   2.0000     -18.928145      -515.0610
   6   2.0000     -14.202684      -386.4747
   7   2.0000     -14.195713      -386.2850
   8   2.0000     -14.193056      -386.2127
   9   2.0000     -14.166687      -385.4952
  10   2.0000     -14.159653      -385.3037
  11   2.0000     -10.200208      -277.5618
  12   2.0000     -10.187819      -277.2247
  13   2.0000     -10.151709      -276.2420
  14   2.0000     -10.149145      -276.1723
  15   2.0000     -10.145294      -276.0675
  16   2.0000     -10.140390      -275.9341
  17   2.0000     -10.128333      -275.6059
  18   2.0000     -10.116816      -275.2926
  19   2.0000     -10.094150      -274.6758
  20   2.0000     -10.090329      -274.5718
  21   2.0000     -10.044607      -273.3277
  22   2.0000     -10.041338      -273.2387
  23   2.0000     -10.019455      -272.6432
  24   2.0000     -10.015556      -272.5371
  25   2.0000      -1.152975       -31.3741
  26   2.0000      -1.132041       -30.8044
  27   2.0000      -1.114134       -30.3171
  28   2.0000      -1.026727       -27.9387
  29   2.0000      -1.019134       -27.7320
  30   2.0000      -1.016493       -27.6602
  31   2.0000      -0.973280       -26.4843
  32   2.0000      -0.955695       -26.0058
  33   2.0000      -0.907712       -24.7001
  34   2.0000      -0.863025       -23.4841
  35   2.0000      -0.829474       -22.5711
  36   2.0000      -0.801620       -21.8132
  37   2.0000      -0.751872       -20.4595
  38   2.0000      -0.720640       -19.6096
  39   2.0000      -0.711849       -19.3704
  40   2.0000      -0.700219       -19.0539
  41   2.0000      -0.665216       -18.1014
  42   2.0000      -0.657308       -17.8863
  43   2.0000      -0.650301       -17.6956
  44   2.0000      -0.621011       -16.8986
  45   2.0000      -0.604772       -16.4567
  46   2.0000      -0.595906       -16.2154
  47   2.0000      -0.573109       -15.5951
  48   2.0000      -0.555588       -15.1183
  49   2.0000      -0.541663       -14.7394
  50   2.0000      -0.536164       -14.5898
  51   2.0000      -0.527786       -14.3618
  52   2.0000      -0.520519       -14.1640
  53   2.0000      -0.492624       -13.4050
  54   2.0000      -0.481840       -13.1115
  55   2.0000      -0.473424       -12.8825
  56   2.0000      -0.466517       -12.6946
  57   2.0000      -0.454002       -12.3540
  58   2.0000      -0.445198       -12.1145
  59   2.0000      -0.431869       -11.7518
  60   2.0000      -0.423835       -11.5331
  61   2.0000      -0.422106       -11.4861
  62   2.0000      -0.414678       -11.2840
  63   2.0000      -0.409192       -11.1347
  64   2.0000      -0.406432       -11.0596
  65   2.0000      -0.405457       -11.0330
  66   2.0000      -0.394878       -10.7452
  67   2.0000      -0.389525       -10.5995
  68   2.0000      -0.384261       -10.4563
  69   2.0000      -0.383710       -10.4413
  70   2.0000      -0.380306       -10.3487
  71   2.0000      -0.376984       -10.2583
  72   2.0000      -0.369783       -10.0623
  73   2.0000      -0.359762        -9.7896
  74   2.0000      -0.351316        -9.5598
  75   2.0000      -0.347597        -9.4586
  76   2.0000      -0.342509        -9.3201
  77   2.0000      -0.340772        -9.2729
  78   2.0000      -0.334084        -9.0909
  79   2.0000      -0.326019        -8.8714
  80   2.0000      -0.314199        -8.5498
  81   2.0000      -0.312271        -8.4973
  82   2.0000      -0.303375        -8.2552
  83   2.0000      -0.296398        -8.0654
  84   2.0000      -0.283506        -7.7146
  85   2.0000      -0.266060        -7.2399
  86   2.0000      -0.260257        -7.0820
  87   2.0000      -0.255971        -6.9653
  88   2.0000      -0.244442        -6.6516
  89   2.0000      -0.239814        -6.5257
  90   2.0000      -0.233291        -6.3482
  91   2.0000      -0.227306        -6.1853
  92   0.0000      -0.162197        -4.4136
  93   0.0000      -0.082234        -2.2377
  94   0.0000      -0.066574        -1.8116
  95   0.0000      -0.018837        -0.5126
  96   0.0000      -0.015714        -0.4276

MULLIKEN ATOMIC CHARGES
-----------------------
   0 C :   -0.304453
   1 O :   -0.115708
   2 C :    0.219605
   3 O :   -0.325659
   4 C :    0.129475
   5 C :   -0.502981
   6 N :   -0.359396
   7 C :    0.564841
   8 C :   -0.170141
   9 C :   -0.642441
  10 C :   -0.645460
  11 N :    0.010667
  12 C :   -0.123789
  13 O :   -0.444929
  14 C :    0.424779
  15 N :   -0.183206
  16 N :   -0.281759
  17 C :    0.399087
  18 C :   -0.637199
  19 O :   -0.056923
  20 N :   -0.258095
  21 C :    0.060575
  22 O :   -0.449077
  23 C :    0.357065
  24 O :   -0.281265
  25 H :    0.190649
  26 H :    0.189580
  27 H :    0.186089
  28 H :    0.200969
  29 H :    0.193129
  30 H :    0.202101
  31 H :    0.197892
  32 H :    0.191080
  33 H :    0.186722
  34 H :    0.190228
  35 H :    0.197113
  36 H :    0.182379
  37 H :    0.307190
  38 H :    0.201024
  39 H :    0.204497
  40 H :    0.200267
  41 H :    0.395476
Sum of atomic charges:    0.0000000

LOEWDIN ATOMIC CHARGES
----------------------
   0 C :   -0.017764
   1 O :   -0.546048
   2 C :    0.420239
   3 O :   -0.353317
   4 C :    0.123050
   5 C :   -0.301544
   6 N :   -0.609663
   7 C :    0.340960
   8 C :    0.108039
   9 C :   -0.342293
  10 C :   -0.345683
  11 N :   -0.580697
  12 C :    0.378602
  13 O :   -0.468644
  14 C :    0.416144
  15 N :   -0.339483
  16 N :   -0.363848
  17 C :    0.376550
  18 C :   -0.317978
  19 O :   -0.392391
  20 N :   -0.529256
  21 C :    0.321305
  22 O :   -0.475285
  23 C :    0.413356
  24 O :   -0.317076
  25 H :    0.189714
  26 H :    0.194462
  27 H :    0.190300
  28 H :    0.180979
  29 H :    0.184066
  30 H :    0.188870
  31 H :    0.178495
  32 H :    0.172890
  33 H :    0.172523
  34 H :    0.177607
  35 H :    0.177018
  36 H :    0.171951
  37 H :    0.307747
  38 H :    0.191574
  39 H :    0.190736
  40 H :    0.191195
  41 H :    0.342596

  Mayer bond orders larger than 0.100000
B(  0-C ,  1-O ) :   0.8090 B(  0-C , 25-H ) :   0.9461 B(  0-C , 26-H ) :   0.9564
B(  0-C , 27-H ) :   0.9503 B(  1-O ,  2-C ) :   1.1252 B(  2-C ,  3-O ) :   1.9055
B(  2-C ,  4-C ) :   0.9208 B(  2-C , 23-C ) :   0.1912 B(  4-C ,  5-C ) :   0.9075
B(  4-C ,  6-N ) :   0.8516 B(  4-C , 23-C ) :   0.9868 B(  5-C , 28-H ) :   0.9692
B(  5-C , 29-H ) :   0.9517 B(  5-C , 30-H ) :   0.9517 B(  6-N ,  7-C ) :   1.5047
B(  7-C ,  8-C ) :   0.7644 B(  7-C , 11-N ) :  -0.1191 B(  7-C , 20-N ) :   1.1286
B(  8-C ,  9-C ) :   0.9167 B(  8-C , 10-C ) :   0.8975 B(  8-C , 11-N ) :   0.9224
B(  8-C , 20-N ) :   0.1279 B(  9-C , 31-H ) :   0.9617 B(  9-C , 32-H ) :   0.9637
B(  9-C , 33-H ) :   0.9669 B( 10-C , 34-H ) :   0.9598 B( 10-C , 35-H ) :   0.9680
B( 10-C , 36-H ) :   0.9697 B( 11-N , 12-C ) :   1.1866 B( 11-N , 37-H ) :   0.8409
B( 12-C , 13-O ) :   1.9111 B( 12-C , 14-C ) :   0.8289 B( 13-O , 14-C ) :  -0.1025
B( 14-C , 15-N ) :   1.7144 B( 14-C , 17-C ) :   0.1029 B( 14-C , 19-O ) :   1.0823
B( 15-N , 16-N ) :   1.2767 B( 16-N , 17-C ) :   1.6382 B( 17-C , 18-C ) :   0.8305
B( 17-C , 19-O ) :   1.0668 B( 18-C , 38-H ) :   0.9411 B( 18-C , 39-H ) :   0.9899
B( 18-C , 40-H ) :   0.9433 B( 20-N , 21-C ) :   1.3574 B( 21-C , 22-O ) :   1.9025
B( 21-C , 23-C ) :   0.8623 B( 23-C , 24-O ) :   1.2711 B( 24-O , 41-H ) :   0.7653

Dispersion correction           -0.019179235
FINAL SINGLE POINT ENERGY     -1268.599630304341

DIPOLE MOMENT
-------------
                                X             Y             Z
Electronic contribution:      5.27571      -5.82665       2.72646
Nuclear contribution   :     -9.39445       3.11812      -0.83866
                        -----------------------------------------
Total Dipole Moment    :     -4.11873      -2.70853       1.88781
                        -----------------------------------------
Magnitude (a.u.)       :      5.27863
Magnitude (Debye)      :     13.41721

Rotational constants in cm-1:     0.013123     0.004062     0.003692
Rotational constants in MHz :   393.411959   121.780161   110.680809

                             ****ORCA TERMINATED NORMALLY****
TOTAL RUN TIME: 0 days 0 hours 2 minutes 25 seconds 445 msec
