   * xtb version 6.5.1 (579679a) compiled by 'ehlert@majestix' on 2022-07-11
          program call               : /lustre/hpc/kemi/ree/PhD/git/ReactivityQM/dep/xtb-6.5.1/bin/xtb --gfn 1 /lustre/hpc/kemi/ree/PhD/git/ReactivityQM/calculations/R02deprot/reac01prodN10/conf02/R02deprot_reac01prodN10_conf02_gfn1.xyz --opt --vfukui --chrg 0 --uhf 0 --alpb DMSO

   ID    Z sym.   atoms
    1    6 C      1, 3, 5, 6, 8-11, 13, 15, 18, 19, 22, 24
    2    8 O      2, 4, 14, 20, 23, 25
    3    7 N      7, 12, 16, 17, 21
    4    1 H      26-42

      * Solvation model:               ALPB
        Solvent                        DMSO
        Solvent mass                       7.8130E+01 g/mol
          :  Hamiltonian                  GFN1-xTB          :
 * total energy  :   -82.9360246 Eh     change       -0.1051603E-10 Eh
 * total energy  :   -82.9483683 Eh     change       -0.1234371E-01 Eh
 * total energy  :   -82.9530329 Eh     change       -0.4664592E-02 Eh
 * total energy  :   -82.9540039 Eh     change       -0.9709215E-03 Eh
 * total energy  :   -82.9547620 Eh     change       -0.7581368E-03 Eh
 * total energy  :   -82.9551929 Eh     change       -0.4308821E-03 Eh
 * total energy  :   -82.9555785 Eh     change       -0.3856519E-03 Eh
 * total energy  :   -82.9559449 Eh     change       -0.3663665E-03 Eh
 * total energy  :   -82.9562046 Eh     change       -0.2596741E-03 Eh
 * total energy  :   -82.9564014 Eh     change       -0.1968391E-03 Eh
 * total energy  :   -82.9574461 Eh     change       -0.1448370E-04 Eh
 * total energy  :   -82.9574666 Eh     change       -0.2042753E-04 Eh
 * total energy  :   -82.9574816 Eh     change       -0.1509381E-04 Eh
 * total energy  :   -82.9574924 Eh     change       -0.1077779E-04 Eh
 * total energy  :   -82.9575009 Eh     change       -0.8447602E-05 Eh
 * total energy  :   -82.9575083 Eh     change       -0.7403108E-05 Eh
 * total energy  :   -82.9575155 Eh     change       -0.7272037E-05 Eh
 * total energy  :   -82.9575215 Eh     change       -0.5931582E-05 Eh
 * total energy  :   -82.9575265 Eh     change       -0.4975545E-05 Eh
   *** GEOMETRY OPTIMIZATION CONVERGED AFTER 39 ITERATIONS ***

 final structure:
================
42
 xtb: 6.5.1 (579679a)
C           -3.20180514302341        0.72408372955848        2.61746686628880
O           -2.68596605756450        0.07603213821731        1.43956004807275
C           -3.53758102472105       -0.22681198049518        0.49815411245722
O           -4.71944434200997       -0.04857054033029        0.50769779762018
C           -2.81597193144198       -0.89461739477506       -0.75134261666790
C           -3.86578168233630       -1.09538270394586       -1.84616205558590
N           -1.82723879597505        0.05780388409989       -1.13764523369840
C           -0.59335818177290       -0.12367991446171       -0.77655156525376
C            0.38241905249205        0.96180014328384       -1.20888536657671
C            0.62119821949107        0.81082113159829       -2.71951891694038
C           -0.19888237128490        2.34182757120198       -0.87867157896161
N            1.63081323683696        0.75674997363342       -0.48118907262775
C            2.71494049027397        1.53487965685444       -0.61505581673540
O            2.81131883229876        2.50271596689768       -1.35660696397995
C            3.83952863345767        1.10754629963559        0.26100464039194
N            5.02499161873752        1.62745452039738        0.33921166701678
N            5.70655800981681        0.91516301070993        1.28198218266538
C            4.89404601470908        0.00565730532157        1.72158233506909
C            5.15523506116341       -1.01718748526864        2.75778063545734
O            3.69672115080710        0.07139113971694        1.11650382424406
N           -0.06032872753302       -1.17399911989364       -0.11282970768626
C           -0.82878155504634       -2.21853087516438        0.20542820613231
O           -0.48895536282825       -3.27190095600286        0.74854654901391
C           -2.26362863305981       -2.12049358159689       -0.18606888205828
O           -2.98697780399542       -3.15166894807158        0.06631723817273
H           -3.48887283742968        1.74786023856559        2.37337969685643
H           -2.39452217050869        0.71630962826331        3.34584260644642
H           -4.06693589706403        0.17496589445612        2.99171468002159
H           -3.39179862998994       -1.53441494892467       -2.72070927983618
H           -4.65219752299942       -1.75458990176223       -1.48558610015767
H           -4.29031827673030       -0.12978839355865       -2.11104135448505
H            1.29449078434221        1.58938631982577       -3.07462631676497
H           -0.33101905229964        0.89499250938394       -3.24057816561147
H            1.05712043283504       -0.16467891085227       -2.93068688210769
H           -1.18127672025919        2.43354298740321       -1.33862745603835
H            0.45030914434708        3.12860637630341       -1.25894491862917
H           -0.30159972588859        2.45118587879868        0.19993753491137
H            1.65957835118942       -0.05028023683825        0.13090324636864
H            4.46630257661326       -0.88549860036465        3.59178703680204
H            6.17855263500266       -0.92452551374066        3.11328767670337
H            4.99871165296738       -2.01398044590192        2.34625080485498
H           -2.40959545161966       -3.83017385215974        0.50852886484243

          :  Hamiltonian                  GFN1-xTB          :
         :: total energy             -82.957526456294 Eh    ::
         :: gradient norm              0.000706003580 Eh/a0 ::
         :: HOMO-LUMO gap              1.288023107151 eV    ::
         :: SCC energy               -83.728488674690 Eh    ::
         :: -> Gsolv                  -0.054162365437 Eh    ::
         :: repulsion energy           0.797650298998 Eh    ::

    * Orbital Energies and Occupations

         #    Occupation            Energy/Eh            Energy/eV
      -------------------------------------------------------------
         1        2.0000           -0.8745888             -23.7988
       ...           ...                  ...                  ...
        55        2.0000           -0.5019076             -13.6576
        56        2.0000           -0.4988420             -13.5742
        57        2.0000           -0.4980630             -13.5530
        58        2.0000           -0.4884981             -13.2927
        59        2.0000           -0.4858819             -13.2215
        60        2.0000           -0.4767134             -12.9720
        61        2.0000           -0.4612343             -12.5508
        62        2.0000           -0.4556493             -12.3988
        63        2.0000           -0.4525637             -12.3149
        64        2.0000           -0.4466058             -12.1528
        65        2.0000           -0.4410666             -12.0020
        66        2.0000           -0.4312759             -11.7356
        67        2.0000           -0.4254943             -11.5783 (HOMO)
        68                         -0.3781604             -10.2903 (LUMO)
        69                         -0.3049017              -8.2968
        70                         -0.2975506              -8.0968
        71                         -0.2704121              -7.3583
        72                         -0.2541471              -6.9157
        73                         -0.1988739              -5.4116
        74                         -0.1930183              -5.2523
        75                         -0.1510005              -4.1089
        76                         -0.1413505              -3.8463
        77                         -0.1330514              -3.6205
        78                         -0.1190724              -3.2401
       ...                                ...                  ...
       134                          0.7297096              19.8564
      -------------------------------------------------------------
                  HL-Gap            0.0473340 Eh            1.2880 eV

Wiberg/Mayer (AO) data.
largest (>0.10) Wiberg bond orders for each atom

     #   Z sym  total        # sym  WBO       # sym  WBO       # sym  WBO
 ---------------------------------------------------------------------------
     1   6 C    3.843 --    27 H    0.983    28 H    0.980    26 H    0.979
                             2 O    0.864
     2   8 O    2.238 --     3 C    1.184     1 C    0.864     4 O    0.141
     3   6 C    3.849 --     4 O    1.717     2 O    1.184     5 C    0.778
     4   8 O    2.027 --     3 C    1.717     2 O    0.141
     5   6 C    3.969 --    24 C    1.061     7 N    1.017     6 C    0.957
                             3 C    0.778
     6   6 C    3.979 --    30 H    0.983    29 H    0.982    31 H    0.982
                             5 C    0.957
     7   7 N    2.997 --     8 C    1.582     5 C    1.017
     8   6 C    3.944 --     7 N    1.582    21 N    1.257     9 C    0.977
     9   6 C    3.937 --    11 C    0.985     8 C    0.977    10 C    0.975
                            12 N    0.931
    10   6 C    3.989 --    34 H    0.986    33 H    0.985    32 H    0.981
                             9 C    0.975
    11   6 C    3.990 --    37 H    0.986     9 C    0.985    35 H    0.984
                            36 H    0.982
    12   7 N    3.371 --    13 C    1.284     9 C    0.931    38 H    0.875
                            14 O    0.182
    13   6 C    3.921 --    14 O    1.568    12 N    1.284    15 C    0.987
    14   8 O    1.888 --    13 C    1.568    12 N    0.182
    15   6 C    3.870 --    16 N    1.626    20 O    1.048    13 C    0.987
    16   7 N    2.997 --    15 C    1.626    17 N    1.194
    17   7 N    2.980 --    18 C    1.614    16 N    1.194
    18   6 C    3.870 --    17 N    1.614    20 O    1.073    19 C    1.031
    19   6 C    3.987 --    18 C    1.031    40 H    0.983    41 H    0.964
                            39 H    0.963
    20   8 O    2.316 --    18 C    1.073    15 C    1.048
    21   7 N    3.032 --    22 C    1.300     8 C    1.257    23 O    0.161
                            24 C    0.109
    22   6 C    3.934 --    23 O    1.517    21 N    1.300    24 C    0.992
    23   8 O    1.883 --    22 C    1.517    21 N    0.161
    24   6 C    3.787 --    25 O    1.326     5 C    1.061    22 C    0.992
                            21 N    0.109
    25   8 O    2.250 --    24 C    1.326    42 H    0.748
    26   1 H    1.001 --     1 C    0.979
    27   1 H    1.006 --     1 C    0.983
    28   1 H    1.002 --     1 C    0.980
    29   1 H    0.998 --     6 C    0.982
    30   1 H    1.001 --     6 C    0.983
    31   1 H    1.003 --     6 C    0.982
    32   1 H    1.009 --    10 C    0.981
    33   1 H    1.006 --    10 C    0.985
    34   1 H    1.003 --    10 C    0.986
    35   1 H    1.013 --    11 C    0.984
    36   1 H    1.010 --    11 C    0.982
    37   1 H    1.004 --    11 C    0.986
    38   1 H    0.959 --    12 N    0.875
    39   1 H    0.997 --    19 C    0.963
    40   1 H    0.999 --    19 C    0.983
    41   1 H    0.997 --    19 C    0.964
    42   1 H    0.820 --    25 O    0.748
 ---------------------------------------------------------------------------

           -------------------------------------------------
          | TOTAL ENERGY              -82.957526456294 Eh   |
          | GRADIENT NORM               0.000706003580 Eh/α |
          | HOMO-LUMO GAP               1.288023107151 eV   |
           -------------------------------------------------

 * finished run on 2023/06/20 at 18:18:14.429
