   * xtb version 6.5.1 (579679a) compiled by 'ehlert@majestix' on 2022-07-11
          program call               : /lustre/hpc/kemi/ree/PhD/git/ReactivityQM/dep/xtb-6.5.1/bin/xtb --gfn 1 /lustre/hpc/kemi/ree/PhD/git/ReactivityQM/calculations/R03/reac01prodE03/conf07/R03_reac01prodE03_conf07_gfn1.xyz --opt --vfukui --chrg -1 --uhf 0 --alpb DMSO

   ID    Z sym.   atoms
    1    6 C      1-5, 7-9
    2    7 N      6
    3    9 F      10
    4    1 H      11-21

      * Solvation model:               ALPB
        Solvent                        DMSO
        Solvent mass                       7.8130E+01 g/mol
          :  Hamiltonian                  GFN1-xTB          :
 * total energy  :   -31.4511700 Eh     change       -0.2980727E-11 Eh
 * total energy  :   -31.4570628 Eh     change       -0.5892723E-02 Eh
 * total energy  :   -31.4583258 Eh     change       -0.1263042E-02 Eh
 * total energy  :   -31.4585111 Eh     change       -0.1852562E-03 Eh
 * total energy  :   -31.4586187 Eh     change       -0.1076884E-03 Eh
 * total energy  :   -31.4586946 Eh     change       -0.7584060E-04 Eh
 * total energy  :   -31.4587862 Eh     change       -0.9161724E-04 Eh
 * total energy  :   -31.4588494 Eh     change       -0.6320459E-04 Eh
 * total energy  :   -31.4588835 Eh     change       -0.3408983E-04 Eh
 * total energy  :   -31.4588937 Eh     change       -0.1022151E-04 Eh
 * total energy  :   -31.4588992 Eh     change       -0.5511096E-05 Eh
 * total energy  :   -31.4589021 Eh     change       -0.2913401E-05 Eh
   *** GEOMETRY OPTIMIZATION CONVERGED AFTER 12 ITERATIONS ***

 final structure:
================
21
 xtb: 6.5.1 (579679a)
C           -2.34024247374845        1.06634843880362        0.88169439990804
C           -1.49952266542368       -0.22877471146950        0.63551168703561
C           -0.01307225282907        0.03553751759174        0.78461450575184
C            0.85479670788721        0.06254768207519       -0.27694519092922
C            2.30719864070390        0.41507760001797       -0.01627447032695
N            3.05846779831541       -0.76659732667222        0.45322387586327
C            0.47086813499791       -0.28965266162270       -1.58694126601291
C           -0.85713795361994       -0.74924805765583       -1.77721834858955
C           -1.72637078746223       -0.76825191710333       -0.74434758398155
F           -3.00392432420008       -1.29307681010134       -0.94389138835360
H           -2.17609876655620        1.43121283988957        1.89622155987304
H           -2.04057732374836        1.84434024063879        0.17852021852045
H           -3.40362750048874        0.86026789900516        0.74868189276643
H           -1.84607351972293       -0.96065230566891        1.39353204844153
H            0.33028380849073        0.27717528779928        1.78694077564777
H            2.78536600093331        0.76473085269739       -0.94013442171428
H            2.38136881662798        1.22673490046137        0.72759650826265
H            4.01841541767969       -0.48807106787974        0.59767340744913
H            2.69487738228318       -1.03404453588629        1.36094463187571
H            1.17480609968197       -0.27836079790893       -2.41124660613355
H           -1.16980023980200       -1.12724206701140       -2.74815523535377

          :  Hamiltonian                  GFN1-xTB          :
         :: total energy             -31.458902139303 Eh    ::
         :: gradient norm              0.000673073534 Eh/a0 ::
         :: HOMO-LUMO gap              2.563357318789 eV    ::
         :: SCC energy               -31.829178797399 Eh    ::
         :: -> Gsolv                  -0.084117389070 Eh    ::
         :: repulsion energy           0.380163321646 Eh    ::

    * Orbital Energies and Occupations

         #    Occupation            Energy/Eh            Energy/eV
      -------------------------------------------------------------
         1        2.0000           -0.7813139             -21.2606
       ...           ...                  ...                  ...
        16        2.0000           -0.4845583             -13.1855
        17        2.0000           -0.4776539             -12.9976
        18        2.0000           -0.4720909             -12.8462
        19        2.0000           -0.4574271             -12.4472
        20        2.0000           -0.4561351             -12.4121
        21        2.0000           -0.4471246             -12.1669
        22        2.0000           -0.4341771             -11.8146
        23        2.0000           -0.4100661             -11.1585
        24        2.0000           -0.4048544             -11.0166
        25        2.0000           -0.4006241             -10.9015
        26        2.0000           -0.3747712             -10.1980
        27        2.0000           -0.3601062              -9.7990
        28        2.0000           -0.2717499              -7.3947 (HOMO)
        29                         -0.1775483              -4.8313 (LUMO)
        30                         -0.1118740              -3.0442
        31                         -0.0837012              -2.2776
        32                         -0.0789488              -2.1483
        33                         -0.0711218              -1.9353
        34                         -0.0535806              -1.4580
        35                         -0.0486180              -1.3230
        36                         -0.0471418              -1.2828
        37                         -0.0341242              -0.9286
        38                         -0.0232422              -0.6325
        39                         -0.0230813              -0.6281
       ...                                ...                  ...
        62                          0.6643538              18.0780
      -------------------------------------------------------------
                  HL-Gap            0.0942016 Eh            2.5634 eV

Wiberg/Mayer (AO) data.
largest (>0.10) Wiberg bond orders for each atom

     #   Z sym  total        # sym  WBO       # sym  WBO       # sym  WBO
 ---------------------------------------------------------------------------
     1   6 C    3.992 --    12 H    0.989    11 H    0.988    13 H    0.988
                             2 C    0.963
     2   6 C    3.993 --     9 C    1.008     3 C    1.002    14 H    0.967
                             1 C    0.963
     3   6 C    3.906 --     4 C    1.580     2 C    1.002    15 H    0.975
                             7 C    0.116
     4   6 C    3.986 --     3 C    1.580     7 C    1.319     5 C    0.995
     5   6 C    3.969 --     4 C    0.995    16 H    0.982    17 H    0.976
                             6 N    0.976
     6   7 N    2.933 --     5 C    0.976    19 H    0.958    18 H    0.958
     7   6 C    3.879 --     4 C    1.319     8 C    1.271    20 H    0.976
                             3 C    0.116     9 C    0.110
     8   6 C    3.988 --     9 C    1.627     7 C    1.271    21 H    0.972
     9   6 C    3.768 --     8 C    1.627     2 C    1.008    10 F    0.832
                             7 C    0.110
    10   9 F    0.940 --     9 C    0.832
    11   1 H    1.015 --     1 C    0.988
    12   1 H    1.025 --     1 C    0.989
    13   1 H    1.014 --     1 C    0.988
    14   1 H    1.024 --     2 C    0.967
    15   1 H    1.002 --     3 C    0.975
    16   1 H    1.020 --     5 C    0.982
    17   1 H    1.011 --     5 C    0.976
    18   1 H    0.972 --     6 N    0.958
    19   1 H    0.979 --     6 N    0.958
    20   1 H    1.003 --     7 C    0.976
    21   1 H    1.008 --     8 C    0.972
 ---------------------------------------------------------------------------

           -------------------------------------------------
          | TOTAL ENERGY              -31.458902139303 Eh   |
          | GRADIENT NORM               0.000673073534 Eh/α |
          | HOMO-LUMO GAP               2.563357318789 eV   |
           -------------------------------------------------

 * finished run on 2023/06/20 at 15:13:23.896
