   * xtb version 6.5.1 (579679a) compiled by 'ehlert@majestix' on 2022-07-11
          program call               : /lustre/hpc/kemi/ree/PhD/git/ReactivityQM/dep/xtb-6.5.1/bin/xtb --gfn 1 /lustre/hpc/kemi/ree/PhD/git/ReactivityQM/calculations/R01/reac01/conf07/R01_reac01_conf07_gfn1.xyz --opt --vfukui --chrg 0 --uhf 0 --alpb DMSO

   ID    Z sym.   atoms
    1    6 C      1, 3, 5, 8, 9
    2    8 O      2, 4, 10
    3    7 N      6, 7
    4    1 H      11-16

      * Solvation model:               ALPB
        Solvent                        DMSO
        Solvent mass                       7.8130E+01 g/mol
          :  Hamiltonian                  GFN1-xTB          :
 * total energy  :   -34.2856981 Eh     change       -0.1953993E-11 Eh
 * total energy  :   -34.2929741 Eh     change       -0.7276033E-02 Eh
 * total energy  :   -34.2955634 Eh     change       -0.2589242E-02 Eh
 * total energy  :   -34.2958773 Eh     change       -0.3138903E-03 Eh
 * total energy  :   -34.2959935 Eh     change       -0.1161980E-03 Eh
 * total energy  :   -34.2960091 Eh     change       -0.1564348E-04 Eh
 * total energy  :   -34.2960198 Eh     change       -0.1070389E-04 Eh
 * total energy  :   -34.2960281 Eh     change       -0.8319904E-05 Eh
 * total energy  :   -34.2960462 Eh     change       -0.1803925E-04 Eh
 * total energy  :   -34.2960571 Eh     change       -0.1093738E-04 Eh
 * total energy  :   -34.2960365 Eh     change        0.7586685E-04 Eh
 * total energy  :   -34.2961429 Eh     change       -0.1063789E-03 Eh
 * total energy  :   -34.2961541 Eh     change       -0.1120817E-04 Eh
 * total energy  :   -34.2961793 Eh     change       -0.2519636E-04 Eh
 * total energy  :   -34.2962055 Eh     change       -0.2615361E-04 Eh
 * total energy  :   -34.2962117 Eh     change       -0.6232479E-05 Eh
 * total energy  :   -34.2962193 Eh     change       -0.7576929E-05 Eh
 * total energy  :   -34.2962252 Eh     change       -0.5900434E-05 Eh
 * total energy  :   -34.2962287 Eh     change       -0.3495082E-05 Eh
   *** GEOMETRY OPTIMIZATION CONVERGED AFTER 22 ITERATIONS ***

 final structure:
================
16
 xtb: 6.5.1 (579679a)
C           -3.61707392686562       -0.03277298181743       -0.07276580082803
O           -2.26613122011812       -0.31184860924860       -0.46160242954331
C           -1.31168816397705        0.24810880894315        0.27279265031176
O           -1.50824680713066        0.95472028892485        1.22975745840899
C            0.03210919933088       -0.10978681698300       -0.24243550810209
N            0.32775725689149       -0.84684200044220       -1.27174882520704
N            1.68251672880902       -0.87869049367313       -1.35393626683614
C            2.13442411950065       -0.15825105345720       -0.36990924801955
C            3.54557104251277        0.11843417895754       -0.02684817984921
O            1.14174366492571        0.35366963305957        0.36712867725670
H           -3.82296188897606        1.03321109973005       -0.18824410237253
H           -3.77314713616109       -0.32268933209108        0.96824847670085
H           -4.25508443327330       -0.61687154270588       -0.73200204921750
H            3.70948152699390        1.19374581014383        0.03311077646988
H            4.19754367200622       -0.31140815982860       -0.78281900008372
H            3.78318736553134       -0.31272882951178        0.94558937091093

          :  Hamiltonian                  GFN1-xTB          :
         :: total energy             -34.296228681929 Eh    ::
         :: gradient norm              0.000389843110 Eh/a0 ::
         :: HOMO-LUMO gap              3.716896197058 eV    ::
         :: SCC energy               -34.589463187677 Eh    ::
         :: -> Gsolv                  -0.020254977886 Eh    ::
         :: repulsion energy           0.299186794450 Eh    ::

    * Orbital Energies and Occupations

         #    Occupation            Energy/Eh            Energy/eV
      -------------------------------------------------------------
         1        2.0000           -0.8706803             -23.6924
       ...           ...                  ...                  ...
        15        2.0000           -0.5967253             -16.2377
        16        2.0000           -0.5710896             -15.5401
        17        2.0000           -0.5653481             -15.3839
        18        2.0000           -0.5493200             -14.9478
        19        2.0000           -0.5478805             -14.9086
        20        2.0000           -0.5374500             -14.6248
        21        2.0000           -0.5214298             -14.1888
        22        2.0000           -0.5125140             -13.9462
        23        2.0000           -0.5042609             -13.7216
        24        2.0000           -0.4963890             -13.5074
        25        2.0000           -0.4827302             -13.1358
        26        2.0000           -0.4619650             -12.5707
        27        2.0000           -0.4600876             -12.5196 (HOMO)
        28                         -0.3234942              -8.8027 (LUMO)
        29                         -0.2624504              -7.1416
        30                         -0.2090160              -5.6876
        31                         -0.1449074              -3.9431
        32                         -0.1412033              -3.8423
        33                         -0.0776775              -2.1137
        34                         -0.0768466              -2.0911
        35                         -0.0765085              -2.0819
        36                         -0.0762589              -2.0751
        37                          0.0005088               0.0138
        38                          0.0341117               0.9282
       ...                                ...                  ...
        52                          0.7338399              19.9688
      -------------------------------------------------------------
                  HL-Gap            0.1365934 Eh            3.7169 eV

Wiberg/Mayer (AO) data.
largest (>0.10) Wiberg bond orders for each atom

     #   Z sym  total        # sym  WBO       # sym  WBO       # sym  WBO
 ---------------------------------------------------------------------------
     1   6 C    3.861 --    13 H    0.986    12 H    0.979    11 H    0.979
                             2 O    0.888
     2   8 O    2.207 --     3 C    1.124     1 C    0.888     4 O    0.141
     3   6 C    3.866 --     4 O    1.671     2 O    1.124     5 C    0.990
     4   8 O    1.941 --     3 C    1.671     2 O    0.141
     5   6 C    3.879 --     6 N    1.607    10 O    1.057     3 C    0.990
     6   7 N    3.004 --     5 C    1.607     7 N    1.216
     7   7 N    2.981 --     8 C    1.589     6 N    1.216
     8   6 C    3.868 --     7 N    1.589    10 O    1.091     9 C    1.033
     9   6 C    3.985 --     8 C    1.033    15 H    0.982    14 H    0.964
                            16 H    0.960
    10   8 O    2.331 --     8 C    1.091     5 C    1.057
    11   1 H    1.004 --     1 C    0.979
    12   1 H    1.005 --     1 C    0.979
    13   1 H    1.009 --     1 C    0.986
    14   1 H    0.996 --     9 C    0.964
    15   1 H    0.998 --     9 C    0.982
    16   1 H    0.996 --     9 C    0.960
 ---------------------------------------------------------------------------

           -------------------------------------------------
          | TOTAL ENERGY              -34.296228681929 Eh   |
          | GRADIENT NORM               0.000389843110 Eh/α |
          | HOMO-LUMO GAP               3.716896197058 eV   |
           -------------------------------------------------

 * finished run on 2023/06/20 at 14:51:55.411
