   * xtb version 6.5.1 (579679a) compiled by 'ehlert@majestix' on 2022-07-11
          program call               : /lustre/hpc/kemi/ree/PhD/git/ReactivityQM/dep/xtb-6.5.1/bin/xtb --gfn 1 /lustre/hpc/kemi/ree/PhD/git/ReactivityQM/calculations/R02deprot/reac02/conf01/R02deprot_reac02_conf01_gfn1.xyz --opt --vfukui --chrg 0 --uhf 0 --alpb DMSO

   ID    Z sym.   atoms
    1    6 C      1
    2    5 B      2
    3    8 O      3, 4
    4    1 H      5-9

      * Solvation model:               ALPB
        Solvent                        DMSO
        Solvent mass                       7.8130E+01 g/mol
          :  Hamiltonian                  GFN1-xTB          :
 * total energy  :   -15.7471834 Eh     change       -0.3190337E-11 Eh
 * total energy  :   -15.7482446 Eh     change       -0.1061245E-02 Eh
 * total energy  :   -15.7483272 Eh     change       -0.8259911E-04 Eh
 * total energy  :   -15.7483333 Eh     change       -0.6105085E-05 Eh
 * total energy  :   -15.7483353 Eh     change       -0.2042597E-05 Eh
   *** GEOMETRY OPTIMIZATION CONVERGED AFTER 5 ITERATIONS ***

 final structure:
================
9
 xtb: 6.5.1 (579679a)
C            1.24387817198234       -0.06228876570153       -0.12948648325052
B           -0.31930692296353        0.01605444109838        0.04553660994431
O           -0.89186663517401        1.21191921393434        0.38933321230063
O           -1.06667606442808       -1.11247200001442       -0.16305640516444
H            1.75029503743461        0.72024501803314        0.43328656354833
H            1.63052305529706       -1.02972451048336        0.18816501804867
H            1.50878598931969        0.06351792760765       -1.18030404786325
H           -1.84097965124430        1.25505678668113        0.48069419196493
H           -2.01465198022380       -1.06230711115535       -0.06416865952866

          :  Hamiltonian                  GFN1-xTB          :
         :: total energy             -15.748335344372 Eh    ::
         :: gradient norm              0.000481188837 Eh/a0 ::
         :: HOMO-LUMO gap              8.176987296253 eV    ::
         :: SCC energy               -15.888097842612 Eh    ::
         :: -> Gsolv                  -0.022206195592 Eh    ::
         :: repulsion energy           0.141661061267 Eh    ::

    * Orbital Energies and Occupations

         #    Occupation            Energy/Eh            Energy/eV
      -------------------------------------------------------------
         1        2.0000           -0.7694137             -20.9368
         2        2.0000           -0.7663879             -20.8545
         3        2.0000           -0.6464732             -17.5914
         4        2.0000           -0.6169367             -16.7877
         5        2.0000           -0.6072413             -16.5239
         6        2.0000           -0.5702355             -15.5169
         7        2.0000           -0.5576040             -15.1732
         8        2.0000           -0.5069787             -13.7956
         9        2.0000           -0.5049405             -13.7401
        10        2.0000           -0.4996195             -13.5953
        11        2.0000           -0.4990903             -13.5809
        12        2.0000           -0.4660190             -12.6810 (HOMO)
        13                         -0.1655203              -4.5040 (LUMO)
        14                         -0.1162163              -3.1624
        15                         -0.1113827              -3.0309
        16                         -0.0560314              -1.5247
        17                         -0.0454303              -1.2362
        18                         -0.0452228              -1.2306
        19                          0.1757080               4.7813
        20                          0.2484368               6.7603
        21                          0.2834206               7.7123
        22                          0.3471349               9.4460
        23                          0.3949493              10.7471
       ...                                ...                  ...
        26                          0.6414969              17.4560
      -------------------------------------------------------------
                  HL-Gap            0.3004988 Eh            8.1770 eV

Wiberg/Mayer (AO) data.
largest (>0.10) Wiberg bond orders for each atom

     #   Z sym  total        # sym  WBO       # sym  WBO       # sym  WBO
 ---------------------------------------------------------------------------
     1   6 C    3.978 --     2 B    0.993     5 H    0.985     6 H    0.982
                             7 H    0.969
     2   5 B    3.253 --     3 O    1.114     4 O    1.113     1 C    0.993
     3   8 O    2.036 --     2 B    1.114     8 H    0.837
     4   8 O    2.035 --     2 B    1.113     9 H    0.837
     5   1 H    1.003 --     1 C    0.985
     6   1 H    1.002 --     1 C    0.982
     7   1 H    1.001 --     1 C    0.969
     8   1 H    0.858 --     3 O    0.837
     9   1 H    0.858 --     4 O    0.837
 ---------------------------------------------------------------------------

           -------------------------------------------------
          | TOTAL ENERGY              -15.748335344372 Eh   |
          | GRADIENT NORM               0.000481188837 Eh/α |
          | HOMO-LUMO GAP               8.176987296253 eV   |
           -------------------------------------------------

 * finished run on 2023/06/20 at 17:32:06.515
