   * xtb version 6.5.1 (579679a) compiled by 'ehlert@majestix' on 2022-07-11
          program call               : /lustre/hpc/kemi/ree/PhD/git/ReactivityQM/dep/xtb-6.5.1/bin/xtb --gfn 1 /lustre/hpc/kemi/ree/PhD/git/ReactivityQM/calculations/R02/reac01prodN02/conf17/R02_reac01prodN02_conf17_gfn1.xyz --opt --vfukui --chrg 1 --uhf 0 --alpb DMSO

   ID    Z sym.   atoms
    1    6 C      1, 3, 5, 7-10, 12, 14, 15, 18, 19, 22, 24
    2    8 O      2, 4, 13, 20, 23, 25
    3    7 N      6, 11, 16, 17, 21
    4    1 H      26-43

      * Solvation model:               ALPB
        Solvent                        DMSO
        Solvent mass                       7.8130E+01 g/mol
          :  Hamiltonian                  GFN1-xTB          :
 * total energy  :   -83.1412016 Eh     change       -0.3737455E-10 Eh
 * total energy  :   -83.1613453 Eh     change       -0.2014374E-01 Eh
 * total energy  :   -83.1687636 Eh     change       -0.7418278E-02 Eh
 * total energy  :   -83.1701957 Eh     change       -0.1432118E-02 Eh
 * total energy  :   -83.1708363 Eh     change       -0.6406415E-03 Eh
 * total energy  :   -83.1709991 Eh     change       -0.1627185E-03 Eh
 * total energy  :   -83.1711468 Eh     change       -0.1477046E-03 Eh
 * total energy  :   -83.1712641 Eh     change       -0.1173374E-03 Eh
 * total energy  :   -83.1713688 Eh     change       -0.1046779E-03 Eh
 * total energy  :   -83.1714442 Eh     change       -0.7545247E-04 Eh
 * total energy  :   -83.1715997 Eh     change       -0.4845819E-04 Eh
 * total energy  :   -83.1716363 Eh     change       -0.3652888E-04 Eh
 * total energy  :   -83.1716582 Eh     change       -0.2195679E-04 Eh
 * total energy  :   -83.1716776 Eh     change       -0.1937192E-04 Eh
 * total energy  :   -83.1716912 Eh     change       -0.1365037E-04 Eh
 * total energy  :   -83.1716985 Eh     change       -0.7309794E-05 Eh
 * total energy  :   -83.1717078 Eh     change       -0.9238610E-05 Eh
 * total energy  :   -83.1717150 Eh     change       -0.7172072E-05 Eh
 * total energy  :   -83.1717186 Eh     change       -0.3642994E-05 Eh
   *** GEOMETRY OPTIMIZATION CONVERGED AFTER 22 ITERATIONS ***

 final structure:
================
43
 xtb: 6.5.1 (579679a)
C           -6.94016581051851       -1.54816321637073       -0.58265387060914
O           -5.82942103175570       -0.82860172873972       -0.03503451792255
C           -4.65456029452102       -1.00766532115429       -0.62827539709232
O           -4.49037281053908       -1.73501123264446       -1.58045388797359
C           -3.54971359890752       -0.21482834934846       -0.00622134010633
N           -2.34527153805494       -0.35605025028686       -0.65812434831817
C           -1.30887272891263        0.27885069129903       -0.24507413455545
C           -0.00505465856266        0.16582066433420       -1.00632230116328
C           -0.05474148441926       -1.02445757045428       -1.96554107218267
C            0.24527336664835        1.48921710352871       -1.74131692711428
N            1.05962119037243       -0.06216682625436       -0.00307367696121
C            2.34966907357447       -0.12057201705254       -0.23965575336433
O            2.78323819958144        0.03496478865232       -1.44913381677756
C            4.17804320637082        0.00788178126990       -1.80434937443266
C            3.17847001266177       -0.36177710051282        0.91609409910954
N            2.71511993259084       -0.55660754609407        2.12272949789000
N            3.77543523465024       -0.73961160703482        2.92442257336887
C            4.84313883863321       -0.64811494164857        2.17438572399835
C            6.25245018240496       -0.77186474230581        2.58984132386829
O            4.52273540186579       -0.41291613854229        0.89644453897686
N           -1.33974115672251        1.11596563920019        0.83757611904957
C           -2.47938272551972        1.32128723799136        1.58365554626104
O           -2.50471395072413        2.05171987999196        2.55897524535651
C           -3.65078412271363        0.59111921470826        1.09495860092414
O           -4.77291989740444        0.78149575800090        1.78992753580103
H           -6.75052852144544       -2.62301819382875       -0.53461732148158
H           -7.09894337642984       -1.25467504241578       -1.62295501634503
H           -7.80681186884214       -1.28766540320411        0.02160746120619
H            0.87468175823980       -1.09951361660482       -2.52353890455604
H           -0.21665536610345       -1.94439392103816       -1.40613288346865
H           -0.88155989601724       -0.88209395609495       -2.66012339606905
H            1.10320206530410        1.40717988250380       -2.40303016472885
H           -0.63476000096503        1.73363361436461       -2.33507654703789
H            0.42350622827354        2.28656206308414       -1.02285837992688
H            0.78238304464406       -0.21841129640528        0.95921677409823
H            4.70627409662005        0.80956219333229       -1.28866322513809
H            4.20291706155844        0.16164571934172       -2.88159789048808
H            4.60899209150415       -0.95851557354273       -1.54339411135154
H            6.71516325355554       -1.61683097084362        2.07869919651421
H            6.80042745609888        0.12745802334193        2.30797436990281
H            6.30812260961963       -0.91780529311660        3.66629473440846
H           -0.51841598474834        1.62616695012460        1.11713505115715
H           -4.59547248094463        1.39416465046268        2.52727886727448

          :  Hamiltonian                  GFN1-xTB          :
         :: total energy             -83.171718596594 Eh    ::
         :: gradient norm              0.000270711187 Eh/a0 ::
         :: HOMO-LUMO gap              1.841199142265 eV    ::
         :: SCC energy               -83.969899500056 Eh    ::
         :: -> Gsolv                  -0.120803367301 Eh    ::
         :: repulsion energy           0.823997326902 Eh    ::

    * Orbital Energies and Occupations

         #    Occupation            Energy/Eh            Energy/eV
      -------------------------------------------------------------
         1        2.0000           -0.9050096             -24.6266
       ...           ...                  ...                  ...
        55        2.0000           -0.5285206             -14.3818
        56        2.0000           -0.5242521             -14.2656
        57        2.0000           -0.5193487             -14.1322
        58        2.0000           -0.5186923             -14.1143
        59        2.0000           -0.5136969             -13.9784
        60        2.0000           -0.5041244             -13.7179
        61        2.0000           -0.5009248             -13.6309
        62        2.0000           -0.4956255             -13.4867
        63        2.0000           -0.4901586             -13.3379
        64        2.0000           -0.4878471             -13.2750
        65        2.0000           -0.4753967             -12.9362
        66        2.0000           -0.4646387             -12.6435
        67        2.0000           -0.4464880             -12.1496 (HOMO)
        68                         -0.3788252             -10.3084 (LUMO)
        69                         -0.3364362              -9.1549
        70                         -0.3013480              -8.2001
        71                         -0.2910025              -7.9186
        72                         -0.2580109              -7.0208
        73                         -0.2512094              -6.8358
        74                         -0.1715938              -4.6693
        75                         -0.1611308              -4.3846
        76                         -0.1554203              -4.2292
        77                         -0.1529702              -4.1625
        78                         -0.1455346              -3.9602
       ...                                ...                  ...
       136                          0.7259294              19.7535
      -------------------------------------------------------------
                  HL-Gap            0.0676628 Eh            1.8412 eV

Wiberg/Mayer (AO) data.
largest (>0.10) Wiberg bond orders for each atom

     #   Z sym  total        # sym  WBO       # sym  WBO       # sym  WBO
 ---------------------------------------------------------------------------
     1   6 C    3.868 --    28 H    0.986    26 H    0.979    27 H    0.979
                             2 O    0.893
     2   8 O    2.209 --     3 C    1.123     1 C    0.893     4 O    0.137
     3   6 C    3.855 --     4 O    1.659     2 O    1.123     5 C    0.994
     4   8 O    1.922 --     3 C    1.659     2 O    0.137
     5   6 C    3.960 --    24 C    1.509     6 N    1.167     3 C    0.994
     6   7 N    3.034 --     7 C    1.615     5 C    1.167
     7   6 C    3.938 --     6 N    1.615    21 N    1.154     8 C    0.980
     8   6 C    3.900 --     9 C    0.987     7 C    0.980    10 C    0.975
                            11 N    0.886
     9   6 C    3.981 --     8 C    0.987    30 H    0.983    29 H    0.983
                            31 H    0.979
    10   6 C    3.981 --    34 H    0.983    33 H    0.981    32 H    0.979
                             8 C    0.975
    11   7 N    3.464 --    12 C    1.433     8 C    0.886    35 H    0.873
                            13 O    0.110
    12   6 C    3.895 --    11 N    1.433    13 O    1.217    15 C    1.089
    13   8 O    2.293 --    12 C    1.217    14 C    0.851    11 N    0.110
    14   6 C    3.818 --    37 H    0.980    38 H    0.974    36 H    0.974
                            13 O    0.851
    15   6 C    3.890 --    16 N    1.537    12 C    1.089    20 O    1.056
    16   7 N    3.037 --    15 C    1.537    17 N    1.265
    17   7 N    2.991 --    18 C    1.539    16 N    1.265
    18   6 C    3.849 --    17 N    1.539    20 O    1.089    19 C    1.041
    19   6 C    3.977 --    18 C    1.041    41 H    0.979    40 H    0.955
                            39 H    0.952
    20   8 O    2.344 --    18 C    1.089    15 C    1.056
    21   7 N    3.456 --     7 C    1.154    22 C    1.127    42 H    0.881
                            23 O    0.134
    22   6 C    3.907 --    23 O    1.593    21 N    1.127    24 C    1.055
    23   8 O    1.916 --    22 C    1.593    21 N    0.134
    24   6 C    3.921 --     5 C    1.509    25 O    1.119    22 C    1.055
    25   8 O    2.097 --    24 C    1.119    43 H    0.803
    26   1 H    1.007 --     1 C    0.979
    27   1 H    1.006 --     1 C    0.979
    28   1 H    1.010 --     1 C    0.986
    29   1 H    1.001 --     9 C    0.983
    30   1 H    1.001 --     9 C    0.983
    31   1 H    1.006 --     9 C    0.979
    32   1 H    1.001 --    10 C    0.979
    33   1 H    0.997 --    10 C    0.981
    34   1 H    0.997 --    10 C    0.983
    35   1 H    0.933 --    11 N    0.873
    36   1 H    1.001 --    14 C    0.974
    37   1 H    1.001 --    14 C    0.980
    38   1 H    1.001 --    14 C    0.974
    39   1 H    0.991 --    19 C    0.952
    40   1 H    0.991 --    19 C    0.955
    41   1 H    0.994 --    19 C    0.979
    42   1 H    0.921 --    21 N    0.881
    43   1 H    0.840 --    25 O    0.803
 ---------------------------------------------------------------------------

           -------------------------------------------------
          | TOTAL ENERGY              -83.171718596594 Eh   |
          | GRADIENT NORM               0.000270711187 Eh/α |
          | HOMO-LUMO GAP               1.841199142265 eV   |
           -------------------------------------------------

 * finished run on 2023/06/20 at 15:20:06.000
