   * xtb version 6.5.1 (579679a) compiled by 'ehlert@majestix' on 2022-07-11
          program call               : /lustre/hpc/kemi/ree/PhD/git/ReactivityQM/dep/xtb-6.5.1/bin/xtb --gfn 1 /lustre/hpc/kemi/ree/PhD/git/ReactivityQM/calculations/R03/reac01prodE03/conf06/R03_reac01prodE03_conf06_gfn1.xyz --opt --vfukui --chrg -1 --uhf 0 --alpb DMSO

   ID    Z sym.   atoms
    1    6 C      1-5, 7-9
    2    7 N      6
    3    9 F      10
    4    1 H      11-21

      * Solvation model:               ALPB
        Solvent                        DMSO
        Solvent mass                       7.8130E+01 g/mol
          :  Hamiltonian                  GFN1-xTB          :
 * total energy  :   -31.4509852 Eh     change       -0.2966516E-11 Eh
 * total energy  :   -31.4569316 Eh     change       -0.5946455E-02 Eh
 * total energy  :   -31.4582064 Eh     change       -0.1274724E-02 Eh
 * total energy  :   -31.4584053 Eh     change       -0.1989545E-03 Eh
 * total energy  :   -31.4585425 Eh     change       -0.1371685E-03 Eh
 * total energy  :   -31.4586449 Eh     change       -0.1024112E-03 Eh
 * total energy  :   -31.4587600 Eh     change       -0.1151040E-03 Eh
 * total energy  :   -31.4588554 Eh     change       -0.9542923E-04 Eh
 * total energy  :   -31.4589049 Eh     change       -0.4946930E-04 Eh
 * total energy  :   -31.4589223 Eh     change       -0.1739830E-04 Eh
 * total energy  :   -31.4589301 Eh     change       -0.7757517E-05 Eh
 * total energy  :   -31.4589329 Eh     change       -0.2811711E-05 Eh
   *** GEOMETRY OPTIMIZATION CONVERGED AFTER 12 ITERATIONS ***

 final structure:
================
21
 xtb: 6.5.1 (579679a)
C            2.46313528469402       -1.03550163456278        0.52638595188223
C            1.50710380636189       -0.40001480315957       -0.53510660030142
C            0.05694192558722       -0.74980431144623       -0.25934885268465
C           -0.85520230590292        0.15628659404367        0.21794246864894
C           -2.25993273884053       -0.32366598247135        0.52926079826632
N           -3.09821484503839       -0.30713461041871       -0.68669467087946
C           -0.56529891075514        1.52866790372295        0.36022144977870
C            0.70454889753217        1.97762315471918       -0.08300453553322
C            1.61803446782883        1.09455479770311       -0.53974303350793
F            2.82860356594665        1.57181577389211       -1.04362048954141
H            2.19789043573309       -0.68505136158605        1.52465517408480
H            3.49845468103928       -0.75975916045714        0.31866571669728
H            2.37654060650576       -2.12236997376890        0.50378437497767
H            1.82985204084452       -0.80941657215628       -1.51394609299144
H           -0.21707030748438       -1.79243556323723       -0.39634605676385
H           -2.73395564389911        0.33734978692124        1.26646805938287
H           -2.23679727878946       -1.34078240735569        0.95671084837433
H           -2.72323964153157       -0.98431007914286       -1.34112549693893
H           -4.02079627497831       -0.63027101498255       -0.43363111085271
H           -1.30416355336642        2.23324787369447        0.72434617848750
H            0.93356678851277        3.04097359004825       -0.09587308058561

          :  Hamiltonian                  GFN1-xTB          :
         :: total energy             -31.458932873838 Eh    ::
         :: gradient norm              0.000654256199 Eh/a0 ::
         :: HOMO-LUMO gap              2.566285521777 eV    ::
         :: SCC energy               -31.829290507642 Eh    ::
         :: -> Gsolv                  -0.084113063809 Eh    ::
         :: repulsion energy           0.380249387556 Eh    ::

    * Orbital Energies and Occupations

         #    Occupation            Energy/Eh            Energy/eV
      -------------------------------------------------------------
         1        2.0000           -0.7812911             -21.2600
       ...           ...                  ...                  ...
        16        2.0000           -0.4845851             -13.1862
        17        2.0000           -0.4777916             -13.0014
        18        2.0000           -0.4721196             -12.8470
        19        2.0000           -0.4574650             -12.4483
        20        2.0000           -0.4563474             -12.4178
        21        2.0000           -0.4471051             -12.1663
        22        2.0000           -0.4342555             -11.8167
        23        2.0000           -0.4098762             -11.1533
        24        2.0000           -0.4047266             -11.0132
        25        2.0000           -0.4005556             -10.8997
        26        2.0000           -0.3747481             -10.1974
        27        2.0000           -0.3600912              -9.7986
        28        2.0000           -0.2717617              -7.3950 (HOMO)
        29                         -0.1774524              -4.8287 (LUMO)
        30                         -0.1120237              -3.0483
        31                         -0.0837418              -2.2787
        32                         -0.0789511              -2.1484
        33                         -0.0707386              -1.9249
        34                         -0.0538602              -1.4656
        35                         -0.0485994              -1.3225
        36                         -0.0471743              -1.2837
        37                         -0.0339198              -0.9230
        38                         -0.0231004              -0.6286
        39                         -0.0229917              -0.6256
       ...                                ...                  ...
        62                          0.6644426              18.0804
      -------------------------------------------------------------
                  HL-Gap            0.0943093 Eh            2.5663 eV

Wiberg/Mayer (AO) data.
largest (>0.10) Wiberg bond orders for each atom

     #   Z sym  total        # sym  WBO       # sym  WBO       # sym  WBO
 ---------------------------------------------------------------------------
     1   6 C    3.992 --    11 H    0.989    13 H    0.988    12 H    0.988
                             2 C    0.962
     2   6 C    3.993 --     9 C    1.008     3 C    1.002    14 H    0.967
                             1 C    0.962
     3   6 C    3.906 --     4 C    1.580     2 C    1.002    15 H    0.975
                             7 C    0.115
     4   6 C    3.986 --     3 C    1.580     7 C    1.319     5 C    0.995
     5   6 C    3.969 --     4 C    0.995    16 H    0.982    17 H    0.976
                             6 N    0.976
     6   7 N    2.933 --     5 C    0.976    18 H    0.958    19 H    0.958
     7   6 C    3.879 --     4 C    1.319     8 C    1.271    20 H    0.976
                             3 C    0.115     9 C    0.110
     8   6 C    3.988 --     9 C    1.627     7 C    1.271    21 H    0.972
     9   6 C    3.767 --     8 C    1.627     2 C    1.008    10 F    0.832
                             7 C    0.110
    10   9 F    0.940 --     9 C    0.832
    11   1 H    1.025 --     1 C    0.989
    12   1 H    1.014 --     1 C    0.988
    13   1 H    1.015 --     1 C    0.988
    14   1 H    1.023 --     2 C    0.967
    15   1 H    1.002 --     3 C    0.975
    16   1 H    1.020 --     5 C    0.982
    17   1 H    1.010 --     5 C    0.976
    18   1 H    0.979 --     6 N    0.958
    19   1 H    0.972 --     6 N    0.958
    20   1 H    1.003 --     7 C    0.976
    21   1 H    1.008 --     8 C    0.972
 ---------------------------------------------------------------------------

           -------------------------------------------------
          | TOTAL ENERGY              -31.458932873838 Eh   |
          | GRADIENT NORM               0.000654256199 Eh/α |
          | HOMO-LUMO GAP               2.566285521777 eV   |
           -------------------------------------------------

 * finished run on 2023/06/20 at 15:13:24.454
