   * xtb version 6.5.1 (579679a) compiled by 'ehlert@majestix' on 2022-07-11
          program call               : /lustre/hpc/kemi/ree/PhD/git/ReactivityQM/dep/xtb-6.5.1/bin/xtb --gfn 1 /lustre/hpc/kemi/ree/PhD/git/ReactivityQM/calculations/R03/reac01prodE03/conf05/R03_reac01prodE03_conf05_gfn1.xyz --opt --vfukui --chrg -1 --uhf 0 --alpb DMSO

   ID    Z sym.   atoms
    1    6 C      1-5, 7-9
    2    7 N      6
    3    9 F      10
    4    1 H      11-21

      * Solvation model:               ALPB
        Solvent                        DMSO
        Solvent mass                       7.8130E+01 g/mol
          :  Hamiltonian                  GFN1-xTB          :
 * total energy  :   -31.4510539 Eh     change       -0.2934541E-11 Eh
 * total energy  :   -31.4567442 Eh     change       -0.5690274E-02 Eh
 * total energy  :   -31.4579294 Eh     change       -0.1185202E-02 Eh
 * total energy  :   -31.4580881 Eh     change       -0.1587147E-03 Eh
 * total energy  :   -31.4581823 Eh     change       -0.9413371E-04 Eh
 * total energy  :   -31.4582525 Eh     change       -0.7022043E-04 Eh
 * total energy  :   -31.4583291 Eh     change       -0.7665442E-04 Eh
 * total energy  :   -31.4584234 Eh     change       -0.9421909E-04 Eh
 * total energy  :   -31.4584756 Eh     change       -0.5226109E-04 Eh
 * total energy  :   -31.4584974 Eh     change       -0.2181847E-04 Eh
 * total energy  :   -31.4585073 Eh     change       -0.9899758E-05 Eh
 * total energy  :   -31.4585126 Eh     change       -0.5221969E-05 Eh
 * total energy  :   -31.4585117 Eh     change        0.8994069E-06 Eh
 * total energy  :   -31.4585156 Eh     change       -0.3952364E-05 Eh
 * total energy  :   -31.4585233 Eh     change       -0.7713130E-05 Eh
 * total energy  :   -31.4585276 Eh     change       -0.4220518E-05 Eh
   *** GEOMETRY OPTIMIZATION CONVERGED AFTER 16 ITERATIONS ***

 final structure:
================
21
 xtb: 6.5.1 (579679a)
C           -2.50815352374146       -1.01623513129255       -0.42609381367794
C           -1.44228643052471       -0.51364631828222        0.60211972429053
C           -0.03521251441214       -0.87185553044204        0.16359709064362
C            0.86208990970751        0.05233318459026       -0.30744802655152
C            2.22032060096349       -0.42076131832144       -0.79512667679406
N            3.25923315804220       -0.26938466329217        0.23842068874406
C            0.61025006681635        1.44008735516552       -0.28564452152617
C           -0.59936312242717        1.87564889525121        0.31148195033374
C           -1.49921711384968        0.97564734417860        0.76234834250555
F           -2.64657927901754        1.43323599691835        1.41140156055779
H           -2.45447995485021       -2.10194100964955       -0.51731088794596
H           -3.51242508230791       -0.73901486672548       -0.10042915667534
H           -2.31982365294977       -0.57417286632206       -1.40553528870487
H           -1.69238195445072       -1.01090855085619        1.56118692544510
H            0.21419960606682       -1.93008303416545        0.17633088767635
H            2.53665219847125        0.15840036565402       -1.67365063396140
H            2.18881141095027       -1.47895825960073       -1.08750832299421
H            2.98394650720931       -0.80589306638248        1.05319909158742
H            3.28755481639111        0.70365062583575        0.52304066372940
H            1.33616785489122        2.15609918576796       -0.65213419381066
H           -0.78930350097816        2.93775366197072        0.44775159712862

          :  Hamiltonian                  GFN1-xTB          :
         :: total energy             -31.458527553324 Eh    ::
         :: gradient norm              0.000612798108 Eh/a0 ::
         :: HOMO-LUMO gap              2.557053589818 eV    ::
         :: SCC energy               -31.828432010555 Eh    ::
         :: -> Gsolv                  -0.077208066213 Eh    ::
         :: repulsion energy           0.379916458334 Eh    ::

    * Orbital Energies and Occupations

         #    Occupation            Energy/Eh            Energy/eV
      -------------------------------------------------------------
         1        2.0000           -0.7793676             -21.2077
       ...           ...                  ...                  ...
        16        2.0000           -0.4811607             -13.0931
        17        2.0000           -0.4771386             -12.9836
        18        2.0000           -0.4674686             -12.7205
        19        2.0000           -0.4610579             -12.5460
        20        2.0000           -0.4547035             -12.3731
        21        2.0000           -0.4455305             -12.1235
        22        2.0000           -0.4302713             -11.7083
        23        2.0000           -0.4212836             -11.4637
        24        2.0000           -0.4025328             -10.9535
        25        2.0000           -0.3991110             -10.8604
        26        2.0000           -0.3726489             -10.1403
        27        2.0000           -0.3568983              -9.7117
        28        2.0000           -0.2702457              -7.3538 (HOMO)
        29                         -0.1762757              -4.7967 (LUMO)
        30                         -0.1105357              -3.0078
        31                         -0.0825845              -2.2472
        32                         -0.0770148              -2.0957
        33                         -0.0668291              -1.8185
        34                         -0.0598741              -1.6293
        35                         -0.0489988              -1.3333
        36                         -0.0446369              -1.2146
        37                         -0.0332097              -0.9037
        38                         -0.0219794              -0.5981
        39                         -0.0150799              -0.4103
       ...                                ...                  ...
        62                          0.6660541              18.1243
      -------------------------------------------------------------
                  HL-Gap            0.0939700 Eh            2.5571 eV

Wiberg/Mayer (AO) data.
largest (>0.10) Wiberg bond orders for each atom

     #   Z sym  total        # sym  WBO       # sym  WBO       # sym  WBO
 ---------------------------------------------------------------------------
     1   6 C    3.992 --    13 H    0.989    11 H    0.988    12 H    0.988
                             2 C    0.962
     2   6 C    3.993 --     9 C    1.008     3 C    1.002    14 H    0.967
                             1 C    0.962
     3   6 C    3.905 --     4 C    1.578     2 C    1.002    15 H    0.974
                             7 C    0.117
     4   6 C    3.986 --     3 C    1.578     7 C    1.315     5 C    0.989
     5   6 C    3.967 --     4 C    0.989    17 H    0.982    16 H    0.980
                             6 N    0.976
     6   7 N    2.946 --     5 C    0.976    18 H    0.957    19 H    0.956
     7   6 C    3.882 --     4 C    1.315     8 C    1.272    20 H    0.976
                             3 C    0.117     9 C    0.108
     8   6 C    3.989 --     9 C    1.627     7 C    1.272    21 H    0.972
     9   6 C    3.768 --     8 C    1.627     2 C    1.008    10 F    0.833
                             7 C    0.108
    10   9 F    0.940 --     9 C    0.833
    11   1 H    1.015 --     1 C    0.988
    12   1 H    1.014 --     1 C    0.988
    13   1 H    1.025 --     1 C    0.989
    14   1 H    1.023 --     2 C    0.967
    15   1 H    1.002 --     3 C    0.974
    16   1 H    1.018 --     5 C    0.980
    17   1 H    1.017 --     5 C    0.982
    18   1 H    0.976 --     6 N    0.957
    19   1 H    0.978 --     6 N    0.956
    20   1 H    1.002 --     7 C    0.976
    21   1 H    1.008 --     8 C    0.972
 ---------------------------------------------------------------------------

           -------------------------------------------------
          | TOTAL ENERGY              -31.458527553324 Eh   |
          | GRADIENT NORM               0.000612798108 Eh/α |
          | HOMO-LUMO GAP               2.557053589818 eV   |
           -------------------------------------------------

 * finished run on 2023/06/20 at 15:13:24.891
