   * xtb version 6.5.1 (579679a) compiled by 'ehlert@majestix' on 2022-07-11
          program call               : /lustre/hpc/kemi/ree/PhD/git/ReactivityQM/dep/xtb-6.5.1/bin/xtb --gfn 1 /lustre/hpc/kemi/ree/PhD/git/ReactivityQM/calculations/R02oxygendeprot/reac02prodN01/conf10/R02oxygendeprot_reac02prodN01_conf10_gfn1.xyz --opt --vfukui --chrg 1 --uhf 0 --alpb DMSO

   ID    Z sym.   atoms
    1    6 C      1, 4
    2    8 O      2, 5
    3    5 B      3
    4    1 H      6-13

      * Solvation model:               ALPB
        Solvent                        DMSO
        Solvent mass                       7.8130E+01 g/mol
          :  Hamiltonian                  GFN1-xTB          :
 * total energy  :   -19.0541713 Eh     change       -0.3756995E-10 Eh
 * total energy  :   -19.0630164 Eh     change       -0.8845086E-02 Eh
 * total energy  :   -19.0655333 Eh     change       -0.2516944E-02 Eh
 * total energy  :   -19.0660021 Eh     change       -0.4687709E-03 Eh
 * total energy  :   -19.0663476 Eh     change       -0.3454450E-03 Eh
 * total energy  :   -19.0664249 Eh     change       -0.7736932E-04 Eh
 * total energy  :   -19.0664635 Eh     change       -0.3861308E-04 Eh
 * total energy  :   -19.0664859 Eh     change       -0.2231598E-04 Eh
 * total energy  :   -19.0664970 Eh     change       -0.1118133E-04 Eh
 * total energy  :   -19.0665020 Eh     change       -0.4945650E-05 Eh
   *** GEOMETRY OPTIMIZATION CONVERGED AFTER 10 ITERATIONS ***

 final structure:
================
13
 xtb: 6.5.1 (579679a)
C            1.69808431859364       -0.19177745231476        0.11291649656246
O            0.54817251720440        0.67381557183578        0.34252143844439
B           -0.86108527093445        0.40344195777936       -0.05754306496956
C           -1.14323806606874       -0.90494696482503       -0.83152326698784
O           -1.73664652786337        1.32252134601138        0.29262563284734
H            1.74524369486100       -0.41179824574478       -0.95221677547045
H            2.58377681947528        0.35043395812855        0.43161549035907
H            1.56912461463406       -1.10356356670166        0.69504731859309
H            0.74911457275826        1.45551289253375        0.87296800699205
H           -2.18616256438453       -0.96015159543406       -1.14099926747207
H           -0.51278540947943       -0.98355791408355       -1.71677889213056
H           -0.92288657053165       -1.77349475619076       -0.20978031853043
H           -1.53071312826469        2.12356476900597        0.77076220176241

          :  Hamiltonian                  GFN1-xTB          :
         :: total energy             -19.066501988554 Eh    ::
         :: gradient norm              0.000935890475 Eh/a0 ::
         :: HOMO-LUMO gap              7.735766810897 eV    ::
         :: SCC energy               -19.259194733834 Eh    ::
         :: -> Gsolv                  -0.102048140491 Eh    ::
         :: repulsion energy           0.196306674587 Eh    ::

    * Orbital Energies and Occupations

         #    Occupation            Energy/Eh            Energy/eV
      -------------------------------------------------------------
         1        2.0000           -0.9091606             -24.7395
       ...           ...                  ...                  ...
         3        2.0000           -0.7648235             -20.8119
         4        2.0000           -0.7518787             -20.4597
         5        2.0000           -0.6976724             -18.9846
         6        2.0000           -0.6868801             -18.6910
         7        2.0000           -0.6584204             -17.9165
         8        2.0000           -0.6549787             -17.8229
         9        2.0000           -0.6074707             -16.5301
        10        2.0000           -0.6000870             -16.3292
        11        2.0000           -0.5719747             -15.5642
        12        2.0000           -0.5544439             -15.0872
        13        2.0000           -0.5464111             -14.8686
        14        2.0000           -0.5431289             -14.7793
        15        2.0000           -0.5330041             -14.5038 (HOMO)
        16                         -0.2487199              -6.7680 (LUMO)
        17                         -0.1915686              -5.2128
        18                         -0.1806696              -4.9163
        19                         -0.1545483              -4.2055
        20                         -0.1177759              -3.2048
        21                         -0.1149902              -3.1290
        22                         -0.1017017              -2.7674
        23                         -0.0755073              -2.0547
        24                         -0.0713408              -1.9413
        25                         -0.0474784              -1.2920
        26                          0.0679232               1.8483
       ...                                ...                  ...
        36                          0.6217475              16.9186
      -------------------------------------------------------------
                  HL-Gap            0.2842842 Eh            7.7358 eV

Wiberg/Mayer (AO) data.
largest (>0.10) Wiberg bond orders for each atom

     #   Z sym  total        # sym  WBO       # sym  WBO       # sym  WBO
 ---------------------------------------------------------------------------
     1   6 C    3.786 --     8 H    0.982     6 H    0.982     7 H    0.980
                             2 O    0.817
     2   8 O    2.367 --     1 C    0.817     9 H    0.752     3 B    0.736
     3   5 B    3.141 --     5 O    1.286     4 C    1.045     2 O    0.736
     4   6 C    3.988 --     3 B    1.045    10 H    0.976    11 H    0.961
                            12 H    0.957
     5   8 O    2.157 --     3 B    1.286    13 H    0.790
     6   1 H    0.997 --     1 C    0.982
     7   1 H    0.991 --     1 C    0.980
     8   1 H    0.995 --     1 C    0.982
     9   1 H    0.780 --     2 O    0.752
    10   1 H    0.993 --     4 C    0.976
    11   1 H    0.993 --     4 C    0.961
    12   1 H    0.992 --     4 C    0.957
    13   1 H    0.812 --     5 O    0.790
 ---------------------------------------------------------------------------

           -------------------------------------------------
          | TOTAL ENERGY              -19.066501988554 Eh   |
          | GRADIENT NORM               0.000935890475 Eh/α |
          | HOMO-LUMO GAP               7.735766810897 eV   |
           -------------------------------------------------

 * finished run on 2023/06/21 at 17:40:21.015
