   * xtb version 6.5.1 (579679a) compiled by 'ehlert@majestix' on 2022-07-11
          program call               : /lustre/hpc/kemi/ree/PhD/git/ReactivityQM/dep/xtb-6.5.1/bin/xtb --gfn 1 /lustre/hpc/kemi/ree/PhD/git/ReactivityQM/calculations/R02methylcation/reac01prodN19/conf04/R02methylcation_reac01prodN19_conf04_gfn1.xyz --opt --vfukui --chrg 0 --uhf 0 --alpb DMSO

   ID    Z sym.   atoms
    1    6 C      1, 3, 5, 7-10, 12, 14, 17, 18, 21, 23, 24
    2    8 O      2, 4, 13, 19, 22, 25
    3    7 N      6, 11, 15, 16, 20
    4    1 H      26-42

      * Solvation model:               ALPB
        Solvent                        DMSO
        Solvent mass                       7.8130E+01 g/mol
          :  Hamiltonian                  GFN1-xTB          :
 * total energy  :   -82.9805335 Eh     change       -0.5596235E-10 Eh
 * total energy  :   -82.9935148 Eh     change       -0.1298130E-01 Eh
 * total energy  :   -82.9990797 Eh     change       -0.5564849E-02 Eh
 * total energy  :   -83.0000802 Eh     change       -0.1000511E-02 Eh
 * total energy  :   -83.0008676 Eh     change       -0.7874197E-03 Eh
 * total energy  :   -83.0013143 Eh     change       -0.4466513E-03 Eh
 * total energy  :   -83.0017518 Eh     change       -0.4375685E-03 Eh
 * total energy  :   -83.0020696 Eh     change       -0.3177976E-03 Eh
 * total energy  :   -83.0022420 Eh     change       -0.1723256E-03 Eh
 * total energy  :   -83.0023354 Eh     change       -0.9345251E-04 Eh
 * total energy  :   -83.0033131 Eh     change       -0.2009716E-04 Eh
 * total energy  :   -83.0033287 Eh     change       -0.1564000E-04 Eh
 * total energy  :   -83.0033442 Eh     change       -0.1551461E-04 Eh
 * total energy  :   -83.0033621 Eh     change       -0.1790746E-04 Eh
 * total energy  :   -83.0033822 Eh     change       -0.2001921E-04 Eh
 * total energy  :   -83.0034010 Eh     change       -0.1885557E-04 Eh
 * total energy  :   -83.0034140 Eh     change       -0.1301607E-04 Eh
 * total energy  :   -83.0034209 Eh     change       -0.6840600E-05 Eh
 * total energy  :   -83.0034244 Eh     change       -0.3555919E-05 Eh
   *** GEOMETRY OPTIMIZATION CONVERGED AFTER 38 ITERATIONS ***

 final structure:
================
42
 xtb: 6.5.1 (579679a)
C           -5.17052354271727        3.90563134757042        0.91702316598323
O           -4.46225670523983        2.66925436065444        0.99003643217575
C           -3.40852533773805        2.54344338764946        0.17451510101091
O           -3.07047115254649        3.42747182523372       -0.58953687508640
C           -2.70359806839798        1.24799685777140        0.29033168806377
N           -1.63167599177705        1.15388561207199       -0.53464148686646
C           -0.89356457006777        0.09438070522645       -0.56211987013049
C            0.27336063966766       -0.03319557838121       -1.52066845069758
C            0.01872690726105       -1.16853970457542       -2.52208318398961
C            0.46199687798830        1.29399635699492       -2.25590784907236
N            1.52387121023738       -0.29571765161853       -0.78151113834007
C            1.84518323588263       -1.43113559801502       -0.14113495054802
O            1.09063152189240       -2.38186652632128        0.05787462636514
C            3.23596060771052       -1.43942220960618        0.36102822978851
N            3.83064666621873       -2.37107720794388        1.04041297857048
N            5.09858690932187       -1.93745694131912        1.27580146583475
C            5.20306595835550       -0.76644272748948        0.72632239529940
C            6.38375760505171        0.12318057982826        0.70188416075393
O            4.05862931078068       -0.39257867069969        0.13136922718763
N           -1.18665498202096       -0.97636390245316        0.24769529570049
C           -2.20267590259960       -0.97225567465973        1.09437666871451
O           -2.43043691574947       -2.00632655113841        1.87897144787085
C           -1.59154015263702       -3.16185283248513        1.84717102187841
C           -3.10089904885045        0.19920322464377        1.17989830741972
O           -4.05957164574832        0.20001649747457        1.95920687810565
H           -5.57015974949864        4.05511163389835       -0.08949726457135
H           -4.50649398649469        4.73803663107279        1.16485290596919
H           -5.98361670339490        3.84653278085014        1.63866275414368
H           -0.86933547081168       -0.93886157229630       -3.10896881860632
H           -0.13409796962857       -2.11555978743118       -2.00888633670548
H            0.87286569857345       -1.26308109702420       -3.18994698557576
H            0.65076095947297        2.09551393729818       -1.54317569001290
H            1.29920743707617        1.22134409320331       -2.94650879510827
H           -0.44166421197819        1.53198220717669       -2.81536991962306
H            2.25599311266620        0.38781514708992       -0.89922184656511
H            7.19907413045648       -0.33314773114872        1.25821865926374
H            6.69563622203511        0.29700638621202       -0.32799425947851
H            6.13118523142752        1.08728290068959        1.14300344148587
H           -0.53507249650483       -1.76654424624463        0.20807870192743
H           -1.62794096389818       -3.63205162479050        0.86198338258372
H           -0.55993102169347       -2.89501130192355        2.08811001938066
H           -1.98843265207979       -3.84060033503897        2.60034676550445

          :  Hamiltonian                  GFN1-xTB          :
         :: total energy             -83.003424424693 Eh    ::
         :: gradient norm              0.000336458178 Eh/a0 ::
         :: HOMO-LUMO gap              2.315076122814 eV    ::
         :: SCC energy               -83.778648217951 Eh    ::
         :: -> Gsolv                  -0.065430094705 Eh    ::
         :: repulsion energy           0.800861886986 Eh    ::

    * Orbital Energies and Occupations

         #    Occupation            Energy/Eh            Energy/eV
      -------------------------------------------------------------
         1        2.0000           -0.8697276             -23.6665
       ...           ...                  ...                  ...
        55        2.0000           -0.5061533             -13.7731
        56        2.0000           -0.5042767             -13.7221
        57        2.0000           -0.4898252             -13.3288
        58        2.0000           -0.4858044             -13.2194
        59        2.0000           -0.4843536             -13.1799
        60        2.0000           -0.4749018             -12.9227
        61        2.0000           -0.4710747             -12.8186
        62        2.0000           -0.4668333             -12.7032
        63        2.0000           -0.4632422             -12.6055
        64        2.0000           -0.4568766             -12.4322
        65        2.0000           -0.4534224             -12.3383
        66        2.0000           -0.4205301             -11.4432
        67        2.0000           -0.4096203             -11.1463 (HOMO)
        68                         -0.3245428              -8.8313 (LUMO)
        69                         -0.3195765              -8.6961
        70                         -0.2783538              -7.5744
        71                         -0.2602331              -7.0813
        72                         -0.2372595              -6.4562
        73                         -0.2073624              -5.6426
        74                         -0.1495397              -4.0692
        75                         -0.1461857              -3.9779
        76                         -0.1431638              -3.8957
        77                         -0.1320354              -3.5929
        78                         -0.1298547              -3.5335
       ...                                ...                  ...
       134                          0.7076653              19.2566
      -------------------------------------------------------------
                  HL-Gap            0.0850775 Eh            2.3151 eV

Wiberg/Mayer (AO) data.
largest (>0.10) Wiberg bond orders for each atom

     #   Z sym  total        # sym  WBO       # sym  WBO       # sym  WBO
 ---------------------------------------------------------------------------
     1   6 C    3.881 --    28 H    0.986    27 H    0.980    26 H    0.980
                             2 O    0.907
     2   8 O    2.194 --     3 C    1.096     1 C    0.907     4 O    0.126
     3   6 C    3.852 --     4 O    1.624     2 O    1.096     5 C    1.040
     4   8 O    1.893 --     3 C    1.624     2 O    0.126
     5   6 C    3.944 --     6 N    1.270    24 C    1.217     3 C    1.040
                            25 O    0.130
     6   7 N    3.045 --     7 C    1.555     5 C    1.270
     7   6 C    3.917 --     6 N    1.555    20 N    1.118     8 C    0.976
     8   6 C    3.931 --    10 C    1.002     9 C    0.982     7 C    0.976
                            11 N    0.910
     9   6 C    3.986 --    29 H    0.984    31 H    0.983     8 C    0.982
                            30 H    0.980
    10   6 C    3.990 --     8 C    1.002    33 H    0.985    32 H    0.983
                            34 H    0.982
    11   7 N    3.363 --    12 C    1.291     8 C    0.910    35 H    0.889
                            13 O    0.172
    12   6 C    3.914 --    13 O    1.527    11 N    1.291    14 C    1.005
    13   8 O    1.920 --    12 C    1.527    11 N    0.172
    14   6 C    3.875 --    15 N    1.616    19 O    1.046    12 C    1.005
    15   7 N    3.003 --    14 C    1.616    16 N    1.205
    16   7 N    2.982 --    17 C    1.604    15 N    1.205
    17   6 C    3.866 --    16 N    1.604    19 O    1.073    18 C    1.033
    18   6 C    3.985 --    17 C    1.033    36 H    0.982    38 H    0.963
                            37 H    0.961
    19   8 O    2.318 --    17 C    1.073    14 C    1.046
    20   7 N    3.524 --    21 C    1.350     7 C    1.118    39 H    0.817
    21   6 C    3.861 --    20 N    1.350    22 O    1.148    24 C    1.044
    22   8 O    2.233 --    21 C    1.148    23 C    0.890
    23   6 C    3.864 --    42 H    0.981    40 H    0.977    41 H    0.975
                            22 O    0.890
    24   6 C    3.949 --    25 O    1.533     5 C    1.217    21 C    1.044
    25   8 O    1.848 --    24 C    1.533     5 C    0.130
    26   1 H    1.009 --     1 C    0.980
    27   1 H    1.009 --     1 C    0.980
    28   1 H    1.012 --     1 C    0.986
    29   1 H    1.000 --     9 C    0.984
    30   1 H    1.006 --     9 C    0.980
    31   1 H    0.999 --     9 C    0.983
    32   1 H    1.003 --    10 C    0.983
    33   1 H    0.998 --    10 C    0.985
    34   1 H    1.007 --    10 C    0.982
    35   1 H    0.934 --    11 N    0.889
    36   1 H    0.998 --    18 C    0.982
    37   1 H    0.996 --    18 C    0.961
    38   1 H    0.996 --    18 C    0.963
    39   1 H    0.924 --    20 N    0.817
    40   1 H    1.000 --    23 C    0.977
    41   1 H    1.006 --    23 C    0.975
    42   1 H    1.008 --    23 C    0.981
 ---------------------------------------------------------------------------

           -------------------------------------------------
          | TOTAL ENERGY              -83.003424424693 Eh   |
          | GRADIENT NORM               0.000336458178 Eh/α |
          | HOMO-LUMO GAP               2.315076122814 eV   |
           -------------------------------------------------

 * finished run on 2023/06/21 at 18:02:52.331
