   * xtb version 6.5.1 (579679a) compiled by 'ehlert@majestix' on 2022-07-11
          program call               : /lustre/hpc/kemi/ree/PhD/git/ReactivityQM/dep/xtb-6.5.1/bin/xtb --gfn 1 /lustre/hpc/kemi/ree/PhD/git/ReactivityQM/calculations/R02methylcation/reac01prodN15/conf12/R02methylcation_reac01prodN15_conf12_gfn1.xyz --opt --vfukui --chrg 0 --uhf 0 --alpb DMSO

   ID    Z sym.   atoms
    1    6 C      1, 3, 5, 7-10, 12, 14, 17, 18, 21, 23, 24
    2    8 O      2, 4, 13, 19, 22, 25
    3    7 N      6, 11, 15, 16, 20
    4    1 H      26-42

      * Solvation model:               ALPB
        Solvent                        DMSO
        Solvent mass                       7.8130E+01 g/mol
          :  Hamiltonian                  GFN1-xTB          :
 * total energy  :   -82.8959041 Eh     change       -0.4983747E-10 Eh
 * total energy  :   -82.9160945 Eh     change       -0.2019044E-01 Eh
 * total energy  :   -82.9352712 Eh     change       -0.1917665E-01 Eh
 * total energy  :   -82.9552702 Eh     change       -0.1999904E-01 Eh
 * total energy  :   -82.9800851 Eh     change       -0.2481488E-01 Eh
 * total energy  :   -82.9037157 Eh     change        0.7636942E-01 Eh
 * total energy  :   -82.9997438 Eh     change       -0.9602814E-01 Eh
 * total energy  :   -83.0026659 Eh     change       -0.2922107E-02 Eh
 * total energy  :   -83.0049133 Eh     change       -0.2247385E-02 Eh
 * total energy  :   -83.0060407 Eh     change       -0.1127399E-02 Eh
 * total energy  :   -83.0116298 Eh     change       -0.1262411E-04 Eh
 * total energy  :   -83.0116396 Eh     change       -0.9794128E-05 Eh
 * total energy  :   -83.0116619 Eh     change       -0.2230762E-04 Eh
 * total energy  :   -83.0116692 Eh     change       -0.7335118E-05 Eh
 * total energy  :   -83.0116779 Eh     change       -0.8665796E-05 Eh
 * total energy  :   -83.0116852 Eh     change       -0.7370284E-05 Eh
 * total energy  :   -83.0116904 Eh     change       -0.5134664E-05 Eh
 * total energy  :   -83.0116957 Eh     change       -0.5340372E-05 Eh
 * total energy  :   -83.0116993 Eh     change       -0.3609285E-05 Eh
   *** GEOMETRY OPTIMIZATION CONVERGED AFTER 53 ITERATIONS ***

 final structure:
================
42
 xtb: 6.5.1 (579679a)
C            4.96924164686472       -2.25674307380531        0.03631195187655
O            3.83974397007301       -1.38094113836593        0.14751616817861
C            4.05629702394714       -0.10097620782642       -0.10351856684051
O            5.12424315883310        0.35898558828856       -0.42292235887992
C            2.78060223933739        0.71631336577899        0.02552570937356
N            1.75230149978232        0.08536545665539        0.76128078055014
C            0.57168802809918        0.55803685045016        0.69510085802826
C           -0.52789871606243       -0.00431410936738        1.57170414103266
C           -0.81188129146017        0.99092718373851        2.70021957595337
C           -0.12421260123674       -1.37239072212647        2.12692224804539
N           -1.74468492515756       -0.13011145634521        0.76686314078659
C           -1.73163040064626       -0.79039266190304       -0.41447440091719
O           -0.71928943691938       -1.18978380861016       -0.96506794616215
C           -3.08015779357487       -0.94693277907428       -1.00628348299983
N           -3.39256598018022       -1.49436855568910       -2.13961982325508
N           -4.74660568018033       -1.40977602760766       -2.25686052657678
C           -5.17871033426030       -0.81624172790684       -1.18770391841495
C           -6.57554329668573       -0.48547555560690       -0.83397355895797
O           -4.17446312311962       -0.49663011474499       -0.35519622239073
N            0.19770939948603        1.58800819318548       -0.14250796495287
C            0.97843351082605        2.03441697554414       -1.18006363986270
O            0.50594983802950        2.60987059732566       -2.13733013869215
C            2.44133164578094        1.74012291954210       -1.02226930624681
C            3.29884148166740        2.01416774583631       -2.23393204069454
O            2.95851316166524        2.08529995031901        0.23884032058532
H            5.73988042527271       -1.96230609649951        0.75147606336572
H            4.60771051604339       -3.25814216512156        0.25766954307821
H            5.37633855303111       -2.21155371366529       -0.97590953933404
H           -1.61035256767962        0.61067531344286        3.33385823456997
H           -1.11401122952006        1.95193392798849        2.28773043582049
H            0.08358839656581        1.12837794733357        3.30437116261898
H            0.09579578477076       -2.05640051522660        1.30816606043553
H            0.76490776388197       -1.26540290489784        2.74634682942908
H           -0.93512072969426       -1.77797160211676        2.72761740467701
H           -2.62493444672445        0.07893447397854        1.20510259832231
H           -6.68140635049804        0.59214060397710       -0.71061960104247
H           -7.24501318724760       -0.83183922615186       -1.61759193282533
H           -6.84004583464069       -0.95872767375079        0.11119463833096
H           -0.78803245990842        1.79349482911208       -0.20986855133481
H            3.11904575798568        1.25736050928028       -2.99618012224669
H            3.03328262966957        2.98926987579430       -2.64237348004998
H            4.35111495377094        2.01372252884129       -1.96031174239359

          :  Hamiltonian                  GFN1-xTB          :
         :: total energy             -83.011699320896 Eh    ::
         :: gradient norm              0.000659124296 Eh/a0 ::
         :: HOMO-LUMO gap              3.551943090061 eV    ::
         :: SCC energy               -83.783770463392 Eh    ::
         :: -> Gsolv                  -0.060373006819 Eh    ::
         :: repulsion energy           0.798165763111 Eh    ::

    * Orbital Energies and Occupations

         #    Occupation            Energy/Eh            Energy/eV
      -------------------------------------------------------------
         1        2.0000           -0.8669698             -23.5914
       ...           ...                  ...                  ...
        55        2.0000           -0.5078908             -13.8204
        56        2.0000           -0.5067026             -13.7881
        57        2.0000           -0.5045031             -13.7282
        58        2.0000           -0.5017296             -13.6528
        59        2.0000           -0.4824000             -13.1268
        60        2.0000           -0.4767589             -12.9733
        61        2.0000           -0.4708313             -12.8120
        62        2.0000           -0.4673061             -12.7160
        63        2.0000           -0.4636029             -12.6153
        64        2.0000           -0.4607888             -12.5387
        65        2.0000           -0.4541095             -12.3569
        66        2.0000           -0.4533650             -12.3367
        67        2.0000           -0.4450037             -12.1092 (HOMO)
        68                         -0.3144722              -8.5572 (LUMO)
        69                         -0.3008524              -8.1866
        70                         -0.2871023              -7.8125
        71                         -0.2579004              -7.0178
        72                         -0.2572765              -7.0008
        73                         -0.2014202              -5.4809
        74                         -0.1437707              -3.9122
        75                         -0.1418752              -3.8606
        76                         -0.1348375              -3.6691
        77                         -0.1301675              -3.5420
        78                         -0.1260655              -3.4304
       ...                                ...                  ...
       134                          0.7200235              19.5928
      -------------------------------------------------------------
                  HL-Gap            0.1305315 Eh            3.5519 eV

Wiberg/Mayer (AO) data.
largest (>0.10) Wiberg bond orders for each atom

     #   Z sym  total        # sym  WBO       # sym  WBO       # sym  WBO
 ---------------------------------------------------------------------------
     1   6 C    3.862 --    27 H    0.986    28 H    0.980    26 H    0.979
                             2 O    0.886
     2   8 O    2.220 --     3 C    1.144     1 C    0.886     4 O    0.141
     3   6 C    3.849 --     4 O    1.680     2 O    1.144     5 C    0.939
     4   8 O    1.949 --     3 C    1.680     2 O    0.141
     5   6 C    3.869 --     6 N    1.030     3 C    0.939    25 O    0.904
                            23 C    0.832
     6   7 N    3.022 --     7 C    1.707     5 C    1.030
     7   6 C    3.929 --     6 N    1.707    20 N    1.108     8 C    0.975
     8   6 C    3.937 --    10 C    0.990     9 C    0.983     7 C    0.975
                            11 N    0.927
     9   6 C    3.990 --    30 H    0.984    31 H    0.983     8 C    0.983
                            29 H    0.981
    10   6 C    3.988 --     8 C    0.990    34 H    0.985    33 H    0.984
                            32 H    0.982
    11   7 N    3.337 --    12 C    1.242     8 C    0.927    35 H    0.889
                            13 O    0.173
    12   6 C    3.915 --    13 O    1.590    11 N    1.242    14 C    0.997
    13   8 O    1.892 --    12 C    1.590    11 N    0.173
    14   6 C    3.874 --    15 N    1.619    19 O    1.047    12 C    0.997
    15   7 N    3.002 --    14 C    1.619    16 N    1.201
    16   7 N    2.982 --    17 C    1.607    15 N    1.201
    17   6 C    3.868 --    16 N    1.607    19 O    1.074    18 C    1.032
    18   6 C    3.986 --    17 C    1.032    37 H    0.982    38 H    0.963
                            36 H    0.962
    19   8 O    2.317 --    17 C    1.074    14 C    1.047
    20   7 N    3.420 --    21 C    1.148     7 C    1.108    39 H    0.885
                            22 O    0.127
    21   6 C    3.893 --    22 O    1.652    20 N    1.148    23 C    0.979
    22   8 O    1.930 --    21 C    1.652    20 N    0.127
    23   6 C    3.860 --    24 C    1.002    21 C    0.979    25 O    0.894
                             5 C    0.832
    24   6 C    3.985 --    23 C    1.002    40 H    0.980    42 H    0.979
                            41 H    0.975
    25   8 O    1.964 --     5 C    0.904    23 C    0.894
    26   1 H    1.005 --     1 C    0.979
    27   1 H    1.009 --     1 C    0.986
    28   1 H    1.005 --     1 C    0.980
    29   1 H    0.996 --     9 C    0.981
    30   1 H    0.998 --     9 C    0.984
    31   1 H    0.999 --     9 C    0.983
    32   1 H    1.009 --    10 C    0.982
    33   1 H    1.008 --    10 C    0.984
    34   1 H    1.001 --    10 C    0.985
    35   1 H    0.930 --    11 N    0.889
    36   1 H    0.996 --    18 C    0.962
    37   1 H    0.998 --    18 C    0.982
    38   1 H    0.996 --    18 C    0.963
    39   1 H    0.935 --    20 N    0.885
    40   1 H    1.000 --    24 C    0.980
    41   1 H    1.003 --    24 C    0.975
    42   1 H    1.010 --    24 C    0.979
 ---------------------------------------------------------------------------

           -------------------------------------------------
          | TOTAL ENERGY              -83.011699320896 Eh   |
          | GRADIENT NORM               0.000659124296 Eh/α |
          | HOMO-LUMO GAP               3.551943090061 eV   |
           -------------------------------------------------

 * finished run on 2023/06/21 at 17:56:55.863
