   * xtb version 6.5.1 (579679a) compiled by 'ehlert@majestix' on 2022-07-11
          program call               : /lustre/hpc/kemi/ree/PhD/git/ReactivityQM/dep/xtb-6.5.1/bin/xtb --gfn 1 /lustre/hpc/kemi/ree/PhD/git/ReactivityQM/calculations/RaltegravirCLI/reac02prodE04/conf12/RaltegravirCLI_reac02prodE04_conf12_gfn1.xyz --opt --vfukui --chrg -1 --uhf 0 --alpb DMSO

   ID    Z sym.   atoms
    1    6 C      1, 3, 5, 7-9, 12-16, 18, 19, 21-24
    2    7 N      2, 11, 20, 25
    3    8 O      4, 6, 10
    4    9 F      17
    5    1 H      26-47

      * Solvation model:               ALPB
        Solvent                        DMSO
        Solvent mass                       7.8130E+01 g/mol
          :  Hamiltonian                  GFN1-xTB          :
 * total energy  :   -80.1873140 Eh     change       -0.3441016E-09 Eh
 * total energy  :   -80.2026779 Eh     change       -0.1536389E-01 Eh
 * total energy  :   -80.2064070 Eh     change       -0.3729052E-02 Eh
 * total energy  :   -80.2069729 Eh     change       -0.5659491E-03 Eh
 * total energy  :   -80.2073362 Eh     change       -0.3632346E-03 Eh
 * total energy  :   -80.2074179 Eh     change       -0.8170751E-04 Eh
 * total energy  :   -80.2074854 Eh     change       -0.6752445E-04 Eh
 * total energy  :   -80.2075280 Eh     change       -0.4259943E-04 Eh
 * total energy  :   -80.2075658 Eh     change       -0.3775189E-04 Eh
 * total energy  :   -80.2075947 Eh     change       -0.2895303E-04 Eh
 * total energy  :   -80.2092976 Eh     change       -0.1458863E-04 Eh
 * total energy  :   -80.2093111 Eh     change       -0.1346154E-04 Eh
 * total energy  :   -80.2093229 Eh     change       -0.1178254E-04 Eh
 * total energy  :   -80.2093336 Eh     change       -0.1074247E-04 Eh
 * total energy  :   -80.2093445 Eh     change       -0.1090839E-04 Eh
 * total energy  :   -80.2093559 Eh     change       -0.1137978E-04 Eh
 * total energy  :   -80.2093674 Eh     change       -0.1145535E-04 Eh
 * total energy  :   -80.2093781 Eh     change       -0.1072313E-04 Eh
 * total energy  :   -80.2093821 Eh     change       -0.4048896E-05 Eh
   *** GEOMETRY OPTIMIZATION CONVERGED AFTER 68 ITERATIONS ***

 final structure:
================
47
 xtb: 6.5.1 (579679a)
C           -3.30320920367868       -1.02829972847734       -1.06749863755890
N           -2.36920286102712        0.05049377024059       -0.76997743802605
C           -1.68897232805359        0.58637598248335       -1.95262257574744
O           -2.01772349116991        0.12000522148990       -3.08806022058775
C           -0.76336259529838        1.54105684274627       -1.69481721384508
O           -0.04530652526889        2.13063385627883       -2.78405454944919
C           -0.40616171295954        2.07034322224328       -0.34358818025952
C           -0.74755844005954        3.57204789694690       -0.19059875020422
C            1.10930659353300        1.91478556719915       -0.03454953429856
O            1.68906953819995        2.56852914716184        0.82660079661690
N            1.73075426277732        0.95707931249999       -0.75488523929057
C            3.16211619699906        0.74824042909736       -0.68598262026098
C            3.52130356997151       -0.68245036944495       -0.35174613464729
C            4.80867374916980       -1.13995356933022       -0.62970800191996
C            5.17899537232827       -2.44312577445407       -0.33070089587016
C            4.23698912234238       -3.27441158518827        0.24783131662112
F            4.58459829350680       -4.54172253962323        0.53594487487126
C            2.95237918889149       -2.85455684602357        0.53941771897609
C            2.60121615982852       -1.54621111609513        0.23633444455963
N           -1.09311960050823        1.33908401070951        0.71866331184833
C           -1.98059418924688        0.43828189853411        0.47324227651655
C           -2.57963236685959       -0.20469927001949        1.73576140563704
C           -2.13493316844757        0.58940107504988        2.97734552485091
C           -2.07936889795488       -1.64894301650984        1.87279521634805
N           -4.04445564685552       -0.20687624665890        1.67637839747359
H           -3.80960315738223       -0.79909957510329       -2.00918508046472
H           -2.77316248246524       -1.97927867339556       -1.18828329133236
H           -4.05189473378067       -1.12548973637723       -0.28466686049851
H           -0.42776652595214        1.74147588673315       -3.58551617802510
H           -1.82069555692743        3.71470618396189       -0.30958959014673
H           -0.44938337748792        3.92486254175978        0.79688589357645
H           -0.22409070419722        4.14929518847100       -0.95273836790683
H            1.24003838625263        0.55069776837150       -1.54117287774102
H            3.62182372676211        1.02668246882043       -1.64189629055589
H            3.56198341172448        1.41744927936199        0.08722358825795
H            5.53105239524528       -0.47422859073521       -1.08775146370031
H            6.17455203771090       -2.80815855406771       -0.54474112250574
H            2.24664048886818       -3.53787287781329        0.99338474840785
H            1.59708930263624       -1.19704744321063        0.45555910773862
H           -2.44472121923772        1.63035039973184        2.88857116942411
H           -1.05065048169902        0.55737381515445        3.08403732811309
H           -2.59210381057277        0.16037045193516        3.86787693482931
H           -2.39891443984298       -2.06396473341913        2.82849088302681
H           -2.47106038932537       -2.28161418492995        1.07883753028129
H           -0.98990626933846       -1.66769333351754        1.83151533790496
H           -4.40267468719790       -0.73425448877566        2.45957022219184
H           -4.38835093394748        0.74033503618729        1.76975708674675

          :  Hamiltonian                  GFN1-xTB          :
         :: total energy             -80.209382122754 Eh    ::
         :: gradient norm              0.000231171979 Eh/a0 ::
         :: HOMO-LUMO gap              0.844098225442 eV    ::
         :: SCC energy               -81.071178336747 Eh    ::
         :: -> Gsolv                  -0.106775520331 Eh    ::
         :: repulsion energy           0.893456531916 Eh    ::

    * Orbital Energies and Occupations

         #    Occupation            Energy/Eh            Energy/eV
      -------------------------------------------------------------
         1        2.0000           -0.8597655             -23.3954
       ...           ...                  ...                  ...
        56        2.0000           -0.4601632             -12.5217
        57        2.0000           -0.4534053             -12.3378
        58        2.0000           -0.4497188             -12.2375
        59        2.0000           -0.4471932             -12.1687
        60        2.0000           -0.4394241             -11.9573
        61        2.0000           -0.4311166             -11.7313
        62        2.0000           -0.4196281             -11.4187
        63        2.0000           -0.4148059             -11.2874
        64        2.0000           -0.3944707             -10.7341
        65        2.0000           -0.3762210             -10.2375
        66        2.0000           -0.3711287             -10.0989
        67        2.0000           -0.3619966              -9.8504
        68        2.0000           -0.3001820              -8.1684 (HOMO)
        69        0.0000           -0.2691619              -7.3243 (LUMO)
        70                         -0.2598958              -7.0721
        71                         -0.2223568              -6.0506
        72                         -0.2036712              -5.5422
        73                         -0.1396331              -3.7996
        74                         -0.1250429              -3.4026
        75                         -0.1192143              -3.2440
        76                         -0.1132305              -3.0812
        77                         -0.1046756              -2.8484
        78                         -0.0997920              -2.7155
        79                         -0.0968235              -2.6347
       ...                                ...                  ...
       144                          0.6947643              18.9055
      -------------------------------------------------------------
                  HL-Gap            0.0310200 Eh            0.8441 eV

Wiberg/Mayer (AO) data.
largest (>0.10) Wiberg bond orders for each atom

     #   Z sym  total        # sym  WBO       # sym  WBO       # sym  WBO
 ---------------------------------------------------------------------------
     1   6 C    3.958 --    27 H    0.981    26 H    0.979    28 H    0.976
                             2 N    0.956
     2   7 N    3.376 --    21 C    1.210     1 C    0.956     3 C    0.899
                            20 N    0.173
     3   6 C    3.919 --     5 C    1.548     4 O    1.337     2 N    0.899
     4   8 O    1.696 --     3 C    1.337     5 C    0.180
     5   6 C    3.788 --     3 C    1.548     7 C    0.996     6 O    0.925
                             4 O    0.180
     6   8 O    1.907 --     5 C    0.925    29 H    0.860
     7   6 C    3.965 --     5 C    0.996     8 C    0.969    20 N    0.964
                             9 C    0.911
     8   6 C    3.996 --    30 H    0.988    32 H    0.987    31 H    0.986
                             7 C    0.969
     9   6 C    3.862 --    10 O    1.590    11 N    1.257     7 C    0.911
    10   8 O    1.874 --     9 C    1.590    11 N    0.155
    11   7 N    3.334 --     9 C    1.257    12 C    0.959    33 H    0.898
                            10 O    0.155
    12   6 C    3.959 --    13 C    1.001    34 H    0.968    11 N    0.959
                            35 H    0.957
    13   6 C    3.989 --    19 C    1.418    14 C    1.412    12 C    1.001
    14   6 C    3.994 --    15 C    1.447    13 C    1.412    36 H    0.972
                            18 C    0.111
    15   6 C    3.992 --    14 C    1.447    16 C    1.399    37 H    0.970
                            19 C    0.110
    16   6 C    3.859 --    18 C    1.404    15 C    1.399    17 F    0.920
    17   9 F    1.046 --    16 C    0.920
    18   6 C    3.992 --    19 C    1.441    16 C    1.404    38 H    0.970
                            14 C    0.111
    19   6 C    3.994 --    18 C    1.441    13 C    1.418    39 H    0.969
                            15 C    0.110
    20   7 N    2.966 --    21 C    1.629     7 C    0.964     2 N    0.173
    21   6 C    3.947 --    20 N    1.629     2 N    1.210    22 C    0.962
    22   6 C    3.963 --    23 C    0.993    24 C    0.991    25 N    0.976
                            21 C    0.962
    23   6 C    3.997 --    22 C    0.993    42 H    0.987    40 H    0.984
                            41 H    0.984
    24   6 C    3.996 --    22 C    0.991    45 H    0.986    43 H    0.985
                            44 H    0.982
    25   7 N    2.991 --    22 C    0.976    46 H    0.948    47 H    0.947
    26   1 H    1.027 --     1 C    0.979
    27   1 H    1.013 --     1 C    0.981
    28   1 H    1.035 --     1 C    0.976
    29   1 H    0.897 --     6 O    0.860
    30   1 H    1.016 --     8 C    0.988
    31   1 H    1.018 --     8 C    0.986
    32   1 H    1.010 --     8 C    0.987
    33   1 H    0.966 --    11 N    0.898
    34   1 H    1.005 --    12 C    0.968
    35   1 H    1.017 --    12 C    0.957
    36   1 H    0.999 --    14 C    0.972
    37   1 H    0.998 --    15 C    0.970
    38   1 H    0.999 --    18 C    0.970
    39   1 H    1.009 --    19 C    0.969
    40   1 H    1.018 --    23 C    0.984
    41   1 H    1.022 --    23 C    0.984
    42   1 H    1.007 --    23 C    0.987
    43   1 H    1.003 --    24 C    0.985
    44   1 H    1.008 --    24 C    0.982
    45   1 H    1.008 --    24 C    0.986
    46   1 H    0.963 --    25 N    0.948
    47   1 H    0.964 --    25 N    0.947
 ---------------------------------------------------------------------------

           -------------------------------------------------
          | TOTAL ENERGY              -80.209382122754 Eh   |
          | GRADIENT NORM               0.000231171979 Eh/α |
          | HOMO-LUMO GAP               0.844098225442 eV   |
           -------------------------------------------------

 * finished run on 2023/06/20 at 14:59:59.036
