   * xtb version 6.5.1 (579679a) compiled by 'ehlert@majestix' on 2022-07-11
          program call               : /lustre/hpc/kemi/ree/PhD/git/ReactivityQM/dep/xtb-6.5.1/bin/xtb --gfn 1 /lustre/hpc/kemi/ree/PhD/git/ReactivityQM/calculations/R02methylcation/reac01prodE07/conf15/R02methylcation_reac01prodE07_conf15_gfn1.xyz --opt --vfukui --chrg -2 --uhf 0 --alpb DMSO

   ID    Z sym.   atoms
    1    6 C      1, 3, 5, 7-10, 12, 14, 15, 18, 19, 22, 24
    2    8 O      2, 4, 13, 20, 23, 25
    3    7 N      6, 11, 16, 17, 21
    4    1 H      26-42

      * Solvation model:               ALPB
        Solvent                        DMSO
        Solvent mass                       7.8130E+01 g/mol
          :  Hamiltonian                  GFN1-xTB          :
 * total energy  :   -83.5817612 Eh     change       -0.4918377E-10 Eh
 * total energy  :   -83.5968144 Eh     change       -0.1505327E-01 Eh
 * total energy  :   -83.6035258 Eh     change       -0.6711322E-02 Eh
 * total energy  :   -83.6048419 Eh     change       -0.1316164E-02 Eh
 * total energy  :   -83.6058433 Eh     change       -0.1001428E-02 Eh
 * total energy  :   -83.6063121 Eh     change       -0.4688044E-03 Eh
 * total energy  :   -83.6067200 Eh     change       -0.4078051E-03 Eh
 * total energy  :   -83.6070064 Eh     change       -0.2864888E-03 Eh
 * total energy  :   -83.6072567 Eh     change       -0.2502861E-03 Eh
 * total energy  :   -83.6075238 Eh     change       -0.2670409E-03 Eh
 * total energy  :   -83.6157858 Eh     change       -0.1533541E-04 Eh
 * total energy  :   -83.6158098 Eh     change       -0.2396393E-04 Eh
 * total energy  :   -83.6158422 Eh     change       -0.3242611E-04 Eh
 * total energy  :   -83.6158622 Eh     change       -0.1999599E-04 Eh
 * total energy  :   -83.6158714 Eh     change       -0.9175822E-05 Eh
 * total energy  :   -83.6158783 Eh     change       -0.6913463E-05 Eh
 * total energy  :   -83.6158851 Eh     change       -0.6852638E-05 Eh
 * total energy  :   -83.6158907 Eh     change       -0.5547133E-05 Eh
 * total energy  :   -83.6158957 Eh     change       -0.4996075E-05 Eh
   *** GEOMETRY OPTIMIZATION CONVERGED AFTER 80 ITERATIONS ***

 final structure:
================
42
 xtb: 6.5.1 (579679a)
C            6.59324052760477        1.19156029832241       -1.39961211948875
O            5.59647649587971        1.12617261663806       -0.39291171568418
C            4.39675843671159        0.61095181251828       -0.78266529808361
O            4.23218774139169        0.24546317089945       -1.94310080346160
C            3.39440382918620        0.53820183094171        0.26485137490909
N            2.19092174674697        0.01391147835971       -0.18253204813898
C            1.20316276841504       -0.12211306183283        0.62354550169381
C           -0.10909465149803       -0.73425059942245        0.17309547601523
C           -0.36778355331080       -0.38257625995506       -1.29947597374404
C           -0.00488084167320       -2.25641866027734        0.34751850099564
N           -1.17033776137383       -0.20760686893691        1.05369961588893
C           -2.48592908646317       -0.76287846722567        0.81389261793792
O           -2.83350397880664       -1.79952396743879        1.73289282946717
C           -3.55268690407179       -2.86862770607891        1.15653043484498
C           -3.46658037421799       -0.00946314791874        0.22229640401088
N           -4.79267100429757       -0.27233772328808        0.11754423099215
N           -5.31116706569106        0.71411633371575       -0.70175614248093
C           -4.34891042916686        1.49005889887145       -1.05112497835884
C           -4.42679076230214        2.69587658307635       -1.92023426967904
O           -3.13293954214246        1.11685733524958       -0.52340707466529
N            1.29992318559410        0.22219837729547        1.95438057203801
C            2.41749804887063        0.75283446406383        2.52960599200553
O            2.41908053968180        1.03894096388625        3.72920189801746
C            3.60148429056368        0.94485661743799        1.60845311204096
O            4.65061780822766        1.42983357662474        2.08172919476589
H            6.25343539388080        1.79518035272465       -2.24781188556205
H            6.84694707024214        0.18997340800455       -1.76268730588336
H            7.47316622414396        1.65205447816972       -0.95171676375217
H           -1.27237891437654       -0.88096556576598       -1.64673979776214
H           -0.49699975413431        0.69391193053630       -1.40893638308392
H            0.47628081168944       -0.70138049573957       -1.91116999489266
H            0.87842070734516       -2.63144921150325       -0.16878316808839
H            0.06707044484888       -2.50638982273906        1.40616627054893
H           -0.88584714779976       -2.74282400972527       -0.06973510987498
H           -1.22312232395186        0.79834072658306        0.88890383099788
H           -3.68268347592107       -3.63286746442587        1.92761392516254
H           -3.01458095682728       -3.31195248734361        0.30515486688292
H           -4.54438497688894       -2.54349973450608        0.80520594713225
H           -4.01367903453338        3.56721942494300       -1.40937543298160
H           -5.46760112094026        2.89113938996493       -2.17006304172437
H           -3.86383256921972        2.55003628120286       -2.84387148207139
H            0.47731015855612        0.09743490405903        2.53197819308877

          :  Hamiltonian                  GFN1-xTB          :
         :: total energy             -83.615895683070 Eh    ::
         :: gradient norm              0.000661723675 Eh/a0 ::
         :: HOMO-LUMO gap              0.488855903067 eV    ::
         :: SCC energy               -84.347101426885 Eh    ::
         :: -> Gsolv                  -0.255956943847 Eh    ::
         :: repulsion energy           0.757161575599 Eh    ::

    * Orbital Energies and Occupations

         #    Occupation            Energy/Eh            Energy/eV
      -------------------------------------------------------------
         1        2.0000           -0.7900651             -21.4988
       ...           ...                  ...                  ...
        56        2.0000           -0.4420727             -12.0294
        57        2.0000           -0.4271072             -11.6222
        58        2.0000           -0.4244767             -11.5506
        59        2.0000           -0.4233873             -11.5210
        60        2.0000           -0.4134100             -11.2495
        61        2.0000           -0.4006112             -10.9012
        62        2.0000           -0.3943019             -10.7295
        63        2.0000           -0.3786907             -10.3047
        64        2.0000           -0.3719030             -10.1200
        65        2.0000           -0.3659526              -9.9581
        66        2.0000           -0.3621504              -9.8546
        67        2.0000           -0.3521880              -9.5835
        68        1.9998           -0.2769886              -7.5372 (HOMO)
        69        0.0002           -0.2590234              -7.0484 (LUMO)
        70                         -0.2205738              -6.0021
        71                         -0.1859515              -5.0600
        72                         -0.1802415              -4.9046
        73                         -0.1379080              -3.7527
        74                         -0.1177904              -3.2052
        75                         -0.1121077              -3.0506
        76                         -0.1043116              -2.8385
        77                         -0.0966230              -2.6292
        78                         -0.0926787              -2.5219
        79                         -0.0894049              -2.4328
       ...                                ...                  ...
       134                          0.7575807              20.6148
      -------------------------------------------------------------
                  HL-Gap            0.0179651 Eh            0.4889 eV

Wiberg/Mayer (AO) data.
largest (>0.10) Wiberg bond orders for each atom

     #   Z sym  total        # sym  WBO       # sym  WBO       # sym  WBO
 ---------------------------------------------------------------------------
     1   6 C    3.903 --    28 H    0.987    27 H    0.980    26 H    0.980
                             2 O    0.930
     2   8 O    2.152 --     3 C    1.036     1 C    0.930     4 O    0.107
     3   6 C    3.848 --     4 O    1.567     5 C    1.127     2 O    1.036
     4   8 O    1.845 --     3 C    1.567     2 O    0.107
     5   6 C    3.919 --    24 C    1.279     6 N    1.145     3 C    1.127
                            25 O    0.130
     6   7 N    3.020 --     7 C    1.631     5 C    1.145
     7   6 C    3.926 --     6 N    1.631    21 N    1.099     8 C    0.978
     8   6 C    3.972 --     9 C    0.988    10 C    0.982     7 C    0.978
                            11 N    0.961
     9   6 C    3.996 --     8 C    0.988    29 H    0.985    30 H    0.985
                            31 H    0.985
    10   6 C    3.994 --    32 H    0.988    33 H    0.986     8 C    0.982
                            34 H    0.979
    11   7 N    3.038 --    12 C    0.962     8 C    0.961    35 H    0.943
    12   6 C    3.678 --    15 C    1.475    11 N    0.962    13 O    0.902
                            16 N    0.151
    13   8 O    1.998 --    14 C    0.962    12 C    0.902
    14   6 C    3.933 --    36 H    0.985    37 H    0.976    38 H    0.975
                            13 O    0.962
    15   6 C    3.862 --    12 C    1.475    16 N    1.286    20 O    0.955
    16   7 N    2.825 --    15 C    1.286    17 N    1.146    12 C    0.151
                            18 C    0.118
    17   7 N    2.987 --    18 C    1.678    16 N    1.146
    18   6 C    3.885 --    17 N    1.678    19 C    1.018    20 O    0.991
                            16 N    0.118
    19   6 C    3.996 --    18 C    1.018    40 H    0.987    39 H    0.977
                            41 H    0.975
    20   8 O    2.183 --    18 C    0.991    15 C    0.955
    21   7 N    3.440 --    22 C    1.181     7 C    1.099    42 H    0.888
                            23 O    0.136
    22   6 C    3.884 --    23 O    1.556    21 N    1.181    24 C    0.973
    23   8 O    1.837 --    22 C    1.556    21 N    0.136
    24   6 C    3.944 --    25 O    1.503     5 C    1.279    22 C    0.973
    25   8 O    1.808 --    24 C    1.503     5 C    0.130
    26   1 H    1.016 --     1 C    0.980
    27   1 H    1.015 --     1 C    0.980
    28   1 H    1.016 --     1 C    0.987
    29   1 H    1.015 --     9 C    0.985
    30   1 H    1.014 --     9 C    0.985
    31   1 H    1.018 --     9 C    0.985
    32   1 H    1.009 --    10 C    0.988
    33   1 H    1.012 --    10 C    0.986
    34   1 H    1.015 --    10 C    0.979
    35   1 H    0.979 --    11 N    0.943
    36   1 H    1.023 --    14 C    0.985
    37   1 H    1.026 --    14 C    0.976
    38   1 H    1.047 --    14 C    0.975
    39   1 H    1.007 --    19 C    0.977
    40   1 H    1.008 --    19 C    0.987
    41   1 H    1.007 --    19 C    0.975
    42   1 H    0.969 --    21 N    0.888
 ---------------------------------------------------------------------------

           -------------------------------------------------
          | TOTAL ENERGY              -83.615895683070 Eh   |
          | GRADIENT NORM               0.000661723675 Eh/α |
          | HOMO-LUMO GAP               0.488855903067 eV   |
           -------------------------------------------------

 * finished run on 2023/06/21 at 17:16:10.347
