   * xtb version 6.5.1 (579679a) compiled by 'ehlert@majestix' on 2022-07-11
          program call               : /lustre/hpc/kemi/ree/PhD/git/ReactivityQM/dep/xtb-6.5.1/bin/xtb --gfn 1 /lustre/hpc/kemi/ree/PhD/git/ReactivityQM/calculations/R02deprot/reac01prodN12/conf14/R02deprot_reac01prodN12_conf14_gfn1.xyz --opt --vfukui --chrg 0 --uhf 0 --alpb DMSO

   ID    Z sym.   atoms
    1    6 C      1, 3, 5, 7-10, 12, 13, 15, 18, 19, 22, 24
    2    8 O      2, 4, 14, 20, 23, 25
    3    7 N      6, 11, 16, 17, 21
    4    1 H      26-42

      * Solvation model:               ALPB
        Solvent                        DMSO
        Solvent mass                       7.8130E+01 g/mol
          :  Hamiltonian                  GFN1-xTB          :
 * total energy  :   -82.8402092 Eh     change        0.1348965E-08 Eh
 * total energy  :   -82.8559924 Eh     change       -0.1578311E-01 Eh
 * total energy  :   -82.8625709 Eh     change       -0.6578569E-02 Eh
 * total energy  :   -82.8640861 Eh     change       -0.1515139E-02 Eh
 * total energy  :   -82.8649904 Eh     change       -0.9043601E-03 Eh
 * total energy  :   -82.8655515 Eh     change       -0.5610370E-03 Eh
 * total energy  :   -82.8660776 Eh     change       -0.5261811E-03 Eh
 * total energy  :   -82.8665323 Eh     change       -0.4546301E-03 Eh
 * total energy  :   -82.8668951 Eh     change       -0.3628661E-03 Eh
 * total energy  :   -82.8672122 Eh     change       -0.3170684E-03 Eh
 * total energy  :   -82.8742734 Eh     change       -0.6944540E-05 Eh
 * total energy  :   -82.8742835 Eh     change       -0.1011632E-04 Eh
 * total energy  :   -82.8742930 Eh     change       -0.9517489E-05 Eh
 * total energy  :   -82.8743027 Eh     change       -0.9738484E-05 Eh
 * total energy  :   -82.8743138 Eh     change       -0.1107795E-04 Eh
 * total energy  :   -82.8743240 Eh     change       -0.1018975E-04 Eh
 * total energy  :   -82.8743309 Eh     change       -0.6870072E-05 Eh
 * total energy  :   -82.8743369 Eh     change       -0.6002479E-05 Eh
 * total energy  :   -82.8743411 Eh     change       -0.4201234E-05 Eh
   *** GEOMETRY OPTIMIZATION CONVERGED AFTER 81 ITERATIONS ***

 final structure:
================
42
 xtb: 6.5.1 (579679a)
C           -6.73033375371751       -0.88075740040710        0.63629382479200
O           -5.53852470915545       -0.54687443097803       -0.08340013832485
C           -4.50870156952437       -0.12183512913090        0.63741184502623
O           -4.53235099892994       -0.00745787052052        1.83982067357526
C           -3.29869535151734        0.19460456028583       -0.19294501453228
N           -2.20533249506799        0.51322847742477        0.51357698990578
C           -1.05417906332891        0.70874852763884       -0.13600758361633
C            0.14795888936641        1.03144439322336        0.72312917113834
C            0.18160518030329        0.18329804652754        2.00353360147798
C            0.04006674634514        2.53472536842003        1.08924060448744
N            1.31942264683357        0.80177502238635       -0.06033371218760
C            2.67572296961828        0.90519888525117        0.44121414444006
C            3.45291466249934        1.75227489877870       -0.64795310953563
O            2.83478100413812        1.36094036547481        1.62592634285552
C            3.21639915520695       -0.54301607428458        0.25016836279884
N            2.66153326019924       -1.61410713874780        0.70922722647830
N            3.49658463247718       -2.64384526231554        0.37218726497191
C            4.49237901393979       -2.12965422227222       -0.27547269993452
C            5.66398140111322       -2.82508236958166       -0.85000203736195
O            4.37078083571776       -0.79176759204439       -0.38755343855750
N           -0.87243923591021        0.64031419742501       -1.43428876165703
C           -1.93274595365034        0.38913448227251       -2.25383199416411
O           -1.89105455012498        0.37620879696767       -3.47916825005279
C           -3.22664633808165        0.13010018362422       -1.57807882674245
O           -4.25743320286512       -0.08017424575823       -2.37409580698688
H           -7.44812106674402       -1.23474527581809       -0.10026409633057
H           -6.51780747930512       -1.66266792991610        1.36904032717144
H           -7.11579569450216        0.00250658843505        1.15056365291039
H            0.38969976016426       -0.85452113756420        1.74518877316751
H            0.95208150337811        0.54136183377340        2.68336701914591
H           -0.78918116235212        0.25423481133455        2.49075662212956
H           -0.88075971986490        2.69758798424105        1.64504754713152
H            0.89348757269547        2.81886598426408        1.70050543975322
H            0.02841826571779        3.12935434006268        0.17856916528024
H            1.17263481464612        0.67327672505673       -1.05605742329352
H            3.04483042826729        2.75772959042820       -0.62059134691692
H            4.49869887616702        1.75954264792508       -0.35617705630620
H            3.33138868928361        1.31003039155845       -1.63078699182260
H            6.57984186132129       -2.45353990747367       -0.39075382306694
H            5.72225409985430       -2.63218965103738       -1.92079211479076
H            5.57577863042449       -3.89459560813792       -0.67458289090741
H           -3.94314055503012       -0.10809385680179       -3.30163248155090

          :  Hamiltonian                  GFN1-xTB          :
         :: total energy             -82.874341077197 Eh    ::
         :: gradient norm              0.000432520224 Eh/a0 ::
         :: HOMO-LUMO gap              0.112123111512 eV    ::
         :: SCC energy               -83.633065280806 Eh    ::
         :: -> Gsolv                  -0.055551518314 Eh    ::
         :: repulsion energy           0.784725166943 Eh    ::

    * Orbital Energies and Occupations

         #    Occupation            Energy/Eh            Energy/eV
      -------------------------------------------------------------
         1        2.0000           -0.8718560             -23.7244
       ...           ...                  ...                  ...
        55        2.0000           -0.5080183             -13.8239
        56        2.0000           -0.5013929             -13.6436
        57        2.0000           -0.4997457             -13.5988
        58        2.0000           -0.4859875             -13.2244
        59        2.0000           -0.4853695             -13.2076
        60        2.0000           -0.4792561             -13.0412
        61        2.0000           -0.4671456             -12.7117
        62        2.0000           -0.4632142             -12.6047
        63        2.0000           -0.4621431             -12.5756
        64        2.0000           -0.4517441             -12.2926
        65        2.0000           -0.4493824             -12.2283
        66        1.9994           -0.4309999             -11.7281
        67        1.7951           -0.4253252             -11.5737 (HOMO)
        68        0.2055           -0.4212048             -11.4616 (LUMO)
        69                         -0.3203226              -8.7164
        70                         -0.2870044              -7.8098
        71                         -0.2768909              -7.5346
        72                         -0.2591610              -7.0521
        73                         -0.2364567              -6.4343
        74                         -0.1628130              -4.4304
        75                         -0.1451150              -3.9488
        76                         -0.1402757              -3.8171
        77                         -0.1344044              -3.6573
        78                         -0.1285183              -3.4972
       ...                                ...                  ...
       134                          0.7276020              19.7991
      -------------------------------------------------------------
                  HL-Gap            0.0041204 Eh            0.1121 eV

Wiberg/Mayer (AO) data.
largest (>0.10) Wiberg bond orders for each atom

     #   Z sym  total        # sym  WBO       # sym  WBO       # sym  WBO
 ---------------------------------------------------------------------------
     1   6 C    3.866 --    26 H    0.986    27 H    0.979    28 H    0.979
                             2 O    0.892
     2   8 O    2.209 --     3 C    1.127     1 C    0.892     4 O    0.138
     3   6 C    3.845 --     4 O    1.666     2 O    1.127     5 C    0.976
     4   8 O    1.925 --     3 C    1.666     2 O    0.138
     5   6 C    3.922 --    24 C    1.354     6 N    1.340     3 C    0.976
     6   7 N    2.927 --     5 C    1.340     7 C    1.315
     7   6 C    3.925 --    21 N    1.454     6 N    1.315     8 C    0.980
     8   6 C    3.925 --    11 N    0.991     7 C    0.980     9 C    0.958
                            10 C    0.904
     9   6 C    3.971 --    29 H    0.982    31 H    0.979    30 H    0.975
                             8 C    0.958
    10   6 C    3.956 --    34 H    0.985    32 H    0.984    33 H    0.978
                             8 C    0.904
    11   7 N    3.342 --     8 C    0.991    12 C    0.945    35 H    0.877
                            14 O    0.197
    12   6 C    3.891 --    14 O    1.266    11 N    0.945    15 C    0.817
                            13 C    0.791
    13   6 C    3.850 --    38 H    0.986    36 H    0.982    37 H    0.979
                            12 C    0.791
    14   8 O    1.692 --    12 C    1.266    11 N    0.197
    15   6 C    3.791 --    16 N    1.651    20 O    1.072    12 C    0.817
    16   7 N    2.998 --    15 C    1.651    17 N    1.164
    17   7 N    2.986 --    18 C    1.628    16 N    1.164
    18   6 C    3.857 --    17 N    1.628    20 O    1.054    19 C    1.031
    19   6 C    3.984 --    18 C    1.031    41 H    0.981    40 H    0.963
                            39 H    0.962
    20   8 O    2.318 --    15 C    1.072    18 C    1.054
    21   7 N    3.046 --     7 C    1.454    22 C    1.175
    22   6 C    3.879 --    23 O    1.575    21 N    1.175    24 C    1.008
    23   8 O    1.834 --    22 C    1.575
    24   6 C    3.751 --     5 C    1.354    25 O    1.172    22 C    1.008
    25   8 O    2.076 --    24 C    1.172    42 H    0.788
    26   1 H    1.010 --     1 C    0.986
    27   1 H    1.006 --     1 C    0.979
    28   1 H    1.006 --     1 C    0.979
    29   1 H    1.015 --     9 C    0.982
    30   1 H    1.011 --     9 C    0.975
    31   1 H    1.011 --     9 C    0.979
    32   1 H    1.001 --    10 C    0.984
    33   1 H    1.010 --    10 C    0.978
    34   1 H    1.000 --    10 C    0.985
    35   1 H    0.954 --    11 N    0.877
    36   1 H    0.995 --    13 C    0.982
    37   1 H    1.001 --    13 C    0.979
    38   1 H    0.997 --    13 C    0.986
    39   1 H    0.996 --    19 C    0.962
    40   1 H    0.996 --    19 C    0.963
    41   1 H    0.997 --    19 C    0.981
    42   1 H    0.837 --    25 O    0.788
 ---------------------------------------------------------------------------

           -------------------------------------------------
          | TOTAL ENERGY              -82.874341077197 Eh   |
          | GRADIENT NORM               0.000432520224 Eh/α |
          | HOMO-LUMO GAP               0.112123111512 eV   |
           -------------------------------------------------

 * finished run on 2023/06/20 at 18:20:52.809
