   * xtb version 6.5.1 (579679a) compiled by 'ehlert@majestix' on 2022-07-11
          program call               : /lustre/hpc/kemi/ree/PhD/git/ReactivityQM/dep/xtb-6.5.1/bin/xtb --gfn 1 /lustre/hpc/kemi/ree/PhD/git/ReactivityQM/calculations/RaltegravirCLI/reac01prodN04/conf04/RaltegravirCLI_reac01prodN04_conf04_gfn1.xyz --opt --vfukui --chrg 1 --uhf 0 --alpb DMSO

   ID    Z sym.   atoms
    1    6 C      1-3, 6, 7
    2    7 N      4, 5
    3    8 O      8, 10
    4   17 Cl     9
    5    1 H      11-16

      * Solvation model:               ALPB
        Solvent                        DMSO
        Solvent mass                       7.8130E+01 g/mol
          :  Hamiltonian                  GFN1-xTB          :
 * total energy  :   -33.3591516 Eh     change       -0.5755396E-12 Eh
 * total energy  :   -33.3657183 Eh     change       -0.6566723E-02 Eh
 * total energy  :   -33.3675751 Eh     change       -0.1856727E-02 Eh
 * total energy  :   -33.3677575 Eh     change       -0.1823866E-03 Eh
 * total energy  :   -33.3678259 Eh     change       -0.6845970E-04 Eh
 * total energy  :   -33.3678381 Eh     change       -0.1213904E-04 Eh
 * total energy  :   -33.3678412 Eh     change       -0.3166612E-05 Eh
   *** GEOMETRY OPTIMIZATION CONVERGED AFTER 7 ITERATIONS ***

 final structure:
================
16
 xtb: 6.5.1 (579679a)
C           -1.56581838960202       -0.88985989758401        0.70837192130622
C           -0.63918902066877        0.02246544606365       -0.11486279950533
C           -1.29122116743164        1.38482789864454       -0.40700838071011
N           -0.23155717950081       -0.61636658558841       -1.31161215286496
N            1.01886371158733       -0.77701122267997       -1.32114034369106
C            1.50532305001900       -0.25896833152941       -0.14411878679553
C            2.96870114358011       -0.23066860315445        0.28489819851704
O            3.28301223544119        0.18200659557465        1.35391583515343
Cl           4.01849317830394       -0.82506031097554       -0.89842932355996
O            0.58390219639440        0.21434723783780        0.58215955013154
H           -1.80674722553944       -0.38686878818523        1.64187063187846
H           -1.05253992401894       -1.82746367849806        0.91018004698570
H           -2.47030567160810       -1.07224817673225        0.13317755000324
H           -0.59321519643793        1.99970956067301       -0.97080716088793
H           -2.19612435051628        1.21762625689045       -0.98594641961384
H           -1.53157739000222        1.86353059924304        0.53935163365319

          :  Hamiltonian                  GFN1-xTB          :
         :: total energy             -33.367841227880 Eh    ::
         :: gradient norm              0.000356962409 Eh/a0 ::
         :: HOMO-LUMO gap              1.508695884792 eV    ::
         :: SCC energy               -33.642593066867 Eh    ::
         :: -> Gsolv                  -0.084598379354 Eh    ::
         :: repulsion energy           0.282298743814 Eh    ::

    * Orbital Energies and Occupations

         #    Occupation            Energy/Eh            Energy/eV
      -------------------------------------------------------------
         1        2.0000           -1.0038636             -27.3165
       ...           ...                  ...                  ...
        15        2.0000           -0.6379438             -17.3593
        16        2.0000           -0.6239064             -16.9774
        17        2.0000           -0.6146729             -16.7261
        18        2.0000           -0.5899657             -16.0538
        19        2.0000           -0.5887113             -16.0197
        20        2.0000           -0.5801062             -15.7855
        21        2.0000           -0.5764123             -15.6850
        22        2.0000           -0.5694755             -15.4962
        23        2.0000           -0.5567503             -15.1499
        24        2.0000           -0.5429625             -14.7748
        25        2.0000           -0.5341585             -14.5352
        26        2.0000           -0.5290350             -14.3958
        27        2.0000           -0.5198930             -14.1470 (HOMO)
        28                         -0.4644495             -12.6383 (LUMO)
        29                         -0.3900736             -10.6144
        30                         -0.3081929              -8.3864
        31                         -0.2557258              -6.9587
        32                         -0.1706064              -4.6424
        33                         -0.1648131              -4.4848
        34                         -0.1349046              -3.6709
        35                         -0.1290211              -3.5108
        36                         -0.1285103              -3.4969
        37                         -0.1207273              -3.2852
        38                         -0.1125809              -3.0635
       ...                                ...                  ...
        57                          0.7120848              19.3768
      -------------------------------------------------------------
                  HL-Gap            0.0554436 Eh            1.5087 eV

Wiberg/Mayer (AO) data.
largest (>0.10) Wiberg bond orders for each atom

     #   Z sym  total        # sym  WBO       # sym  WBO       # sym  WBO
 ---------------------------------------------------------------------------
     1   6 C    3.937 --    12 H    0.977    13 H    0.975    11 H    0.974
                             2 C    0.877
     2   6 C    3.814 --     4 N    1.079     3 C    0.880     1 C    0.877
                            10 O    0.872
     3   6 C    3.938 --    14 H    0.977    15 H    0.975    16 H    0.974
                             2 C    0.880
     4   7 N    2.996 --     5 N    1.668     2 C    1.079
     5   7 N    3.021 --     4 N    1.668     6 C    1.205
     6   6 C    3.802 --    10 O    1.384     5 N    1.205     7 C    0.928
     7   6 C    3.906 --     8 O    1.806     9 Cl   1.131     6 C    0.928
     8   8 O    2.092 --     7 C    1.806     9 Cl   0.200
     9  17 Cl   1.405 --     7 C    1.131     8 O    0.200
    10   8 O    2.444 --     6 C    1.384     2 C    0.872
    11   1 H    0.989 --     1 C    0.974
    12   1 H    0.988 --     1 C    0.977
    13   1 H    0.989 --     1 C    0.975
    14   1 H    0.988 --     3 C    0.977
    15   1 H    0.989 --     3 C    0.975
    16   1 H    0.989 --     3 C    0.974
 ---------------------------------------------------------------------------

           -------------------------------------------------
          | TOTAL ENERGY              -33.367841227880 Eh   |
          | GRADIENT NORM               0.000356962409 Eh/α |
          | HOMO-LUMO GAP               1.508695884792 eV   |
           -------------------------------------------------

 * finished run on 2023/06/20 at 14:54:55.737
