   * xtb version 6.5.1 (579679a) compiled by 'ehlert@majestix' on 2022-07-11
          program call               : /lustre/hpc/kemi/ree/PhD/git/ReactivityQM/dep/xtb-6.5.1/bin/xtb --gfn 1 /lustre/hpc/kemi/ree/PhD/git/ReactivityQM/calculations/RaltegravirCLI/reac02prodE07/conf12/RaltegravirCLI_reac02prodE07_conf12_gfn1.xyz --opt --vfukui --chrg -1 --uhf 0 --alpb DMSO

   ID    Z sym.   atoms
    1    6 C      1-4, 6-9, 11, 13, 15-18, 21, 22, 24
    2    9 F      5
    3    7 N      10, 14, 19, 20
    4    8 O      12, 23, 25
    5    1 H      26-47

      * Solvation model:               ALPB
        Solvent                        DMSO
        Solvent mass                       7.8130E+01 g/mol
          :  Hamiltonian                  GFN1-xTB          :
 * total energy  :   -80.1779124 Eh     change       -0.8407000E-09 Eh
 * total energy  :   -80.1868306 Eh     change       -0.8918201E-02 Eh
 * total energy  :   -80.1891298 Eh     change       -0.2299138E-02 Eh
 * total energy  :   -80.1895488 Eh     change       -0.4190740E-03 Eh
 * total energy  :   -80.1899478 Eh     change       -0.3989740E-03 Eh
 * total energy  :   -80.1901200 Eh     change       -0.1722155E-03 Eh
 * total energy  :   -80.1902335 Eh     change       -0.1135180E-03 Eh
 * total energy  :   -80.1902959 Eh     change       -0.6238633E-04 Eh
 * total energy  :   -80.1903386 Eh     change       -0.4267936E-04 Eh
 * total energy  :   -80.1903772 Eh     change       -0.3861750E-04 Eh
 * total energy  :   -80.1904893 Eh     change       -0.2967509E-04 Eh
 * total energy  :   -80.1905078 Eh     change       -0.1843018E-04 Eh
 * total energy  :   -80.1905255 Eh     change       -0.1775128E-04 Eh
 * total energy  :   -80.1905367 Eh     change       -0.1115135E-04 Eh
 * total energy  :   -80.1905516 Eh     change       -0.1490517E-04 Eh
 * total energy  :   -80.1905658 Eh     change       -0.1419154E-04 Eh
 * total energy  :   -80.1905749 Eh     change       -0.9166507E-05 Eh
 * total energy  :   -80.1905862 Eh     change       -0.1126548E-04 Eh
 * total energy  :   -80.1905904 Eh     change       -0.4173564E-05 Eh
   *** GEOMETRY OPTIMIZATION CONVERGED AFTER 21 ITERATIONS ***

 final structure:
================
47
 xtb: 6.5.1 (579679a)
C            4.13147341342992       -1.85487387788075       -1.07909502566056
C            4.83013622092426       -0.46458811985175       -1.14627088745007
C            6.22565046280438       -0.55510129436052       -0.56711798715840
C            6.49997778815226       -0.01208079035439        0.64154597092995
F            7.75551099575743       -0.20487606832493        1.15369177815947
C            5.62945984005130        0.78742546499753        1.39606116473422
C            4.39528836798963        1.09607741689576        0.79279080163357
C            4.01198938644756        0.58942265714433       -0.41826275884821
C            2.71187895774426        1.00374056887391       -1.04738317548029
N            1.56517077456672        0.33122449796344       -0.39564472100792
C            0.31357861149988        0.75219259647405       -0.66694493251567
O            0.07827877778427        1.52712516016099       -1.59863651423950
C           -0.78180744593004        0.21621668246048        0.19282597508983
N           -2.04046175085952        0.53584515889626       -0.24856755806592
C           -3.11028260636443        0.18585354884521        0.38646799628539
C           -4.43764925329035        0.56988306377313       -0.26010876816282
C           -4.16805649702618        1.49337348139540       -1.45990733558439
C           -5.16389334384591       -0.69011979074978       -0.75185696867072
N           -5.28798699523745        1.26288077130637        0.70924585736280
N           -3.05170295584731       -0.53267759857180        1.56030516148363
C           -4.21033266824345       -0.94562163421508        2.34929529230998
C           -1.82711010211660       -0.94178253139526        2.07774867150538
O           -1.75308850259011       -1.61138672729593        3.11714855002398
C           -0.66395350203708       -0.53142722014606        1.34242706554769
O            0.52027836963843       -0.93082006776528        1.87991614031075
H            4.05251798492110       -2.18188016043838       -0.04192513648777
H            3.13036330805667       -1.80019930435152       -1.50838352851630
H            4.71187307049730       -2.59196956054059       -1.63533081192191
H            4.89380608046053       -0.20693721228500       -2.22084381819951
H            6.96700112894417       -1.12905991432327       -1.10937593008869
H            5.92860770518903        1.20547145101489        2.34629396705910
H            3.73832724222020        1.80162507371327        1.29958386973789
H            2.55275135700952        2.08845389677415       -0.95811297961819
H            2.68841363832847        0.75725051283670       -2.11724249652913
H            1.76588454481721       -0.17888072897252        0.45094420258064
H           -3.57393695536202        0.97584408587136       -2.21283857475203
H           -3.62762254242840        2.38261509668586       -1.13732289177140
H           -5.11609998861013        1.79672341198448       -1.90047010273793
H           -4.51216721851360       -1.26622671022201       -1.40848649390964
H           -5.46915594092859       -1.31940992520351        0.08124323726907
H           -6.05553587319268       -0.40299278524667       -1.30760948667383
H           -6.19967505818460        1.40901866011826        0.30131192684086
H           -4.89736363992423        2.17199425635981        0.91924459203759
H           -5.04918098295531       -0.28132562351700        2.16192489011339
H           -4.47952853359961       -1.97333086265644        2.10061817822962
H           -3.93725800546781       -0.89981711377411        3.40448884942456
H            0.31563433531984       -1.43287089210287        2.69031074538347

          :  Hamiltonian                  GFN1-xTB          :
         :: total energy             -80.190590377389 Eh    ::
         :: gradient norm              0.000675796712 Eh/a0 ::
         :: HOMO-LUMO gap              0.136170122314 eV    ::
         :: SCC energy               -81.048414627452 Eh    ::
         :: -> Gsolv                  -0.102243120437 Eh    ::
         :: repulsion energy           0.887653317548 Eh    ::

    * Orbital Energies and Occupations

         #    Occupation            Energy/Eh            Energy/eV
      -------------------------------------------------------------
         1        2.0000           -0.8062000             -21.9378
       ...           ...                  ...                  ...
        56        2.0000           -0.4540440             -12.3552
        57        2.0000           -0.4470434             -12.1647
        58        2.0000           -0.4441271             -12.0853
        59        2.0000           -0.4329514             -11.7812
        60        2.0000           -0.4270863             -11.6216
        61        2.0000           -0.4237508             -11.5308
        62        2.0000           -0.4182662             -11.3816
        63        2.0000           -0.4143703             -11.2756
        64        2.0000           -0.4082766             -11.1098
        65        2.0000           -0.4059356             -11.0461
        66        2.0000           -0.3995547             -10.8724
        67        2.0000           -0.3812042             -10.3731
        68        1.8660           -0.2977756              -8.1029 (HOMO)
        69        0.1340           -0.2927714              -7.9667 (LUMO)
        70                         -0.2549913              -6.9387
        71                         -0.2044661              -5.5638
        72                         -0.1998995              -5.4395
        73                         -0.1302919              -3.5454
        74                         -0.1262524              -3.4355
        75                         -0.1239934              -3.3740
        76                         -0.1166155              -3.1733
        77                         -0.1096861              -2.9847
        78                         -0.0944309              -2.5696
        79                         -0.0934542              -2.5430
       ...                                ...                  ...
       144                          0.7097276              19.3127
      -------------------------------------------------------------
                  HL-Gap            0.0050042 Eh            0.1362 eV

Wiberg/Mayer (AO) data.
largest (>0.10) Wiberg bond orders for each atom

     #   Z sym  total        # sym  WBO       # sym  WBO       # sym  WBO
 ---------------------------------------------------------------------------
     1   6 C    3.976 --    26 H    0.989    28 H    0.987    27 H    0.987
                             2 C    0.967
     2   6 C    3.992 --     3 C    1.007     8 C    1.000     1 C    0.967
                            29 H    0.965
     3   6 C    3.841 --     4 C    1.602     2 C    1.007    30 H    0.975
     4   6 C    3.834 --     3 C    1.602     6 C    1.280     5 F    0.869
     5   9 F    0.981 --     4 C    0.869
     6   6 C    3.792 --     7 C    1.316     4 C    1.280    31 H    0.977
     7   6 C    3.995 --     8 C    1.593     6 C    1.316    32 H    0.972
     8   6 C    3.860 --     7 C    1.593     9 C    1.014     2 C    1.000
     9   6 C    3.941 --     8 C    1.014    34 H    0.976    33 H    0.970
                            10 N    0.912
    10   7 N    3.325 --    11 C    1.263     9 C    0.912    35 H    0.898
                            12 O    0.164
    11   6 C    3.890 --    12 O    1.534    10 N    1.263    13 C    1.015
    12   8 O    1.813 --    11 C    1.534    10 N    0.164
    13   6 C    3.893 --    24 C    1.443    14 N    1.186    11 C    1.015
    14   7 N    3.030 --    15 C    1.579    13 C    1.186
    15   6 C    3.902 --    14 N    1.579    20 N    1.151    16 C    0.975
    16   6 C    3.966 --    17 C    0.992    18 C    0.987    19 N    0.978
                            15 C    0.975
    17   6 C    3.995 --    16 C    0.992    38 H    0.986    37 H    0.984
                            36 H    0.984
    18   6 C    3.993 --    16 C    0.987    39 H    0.986    41 H    0.984
                            40 H    0.982
    19   7 N    2.992 --    16 C    0.978    43 H    0.942    42 H    0.942
    20   7 N    3.443 --    15 C    1.151    22 C    1.104    21 C    0.935
                            23 O    0.119
    21   6 C    3.931 --    45 H    0.978    46 H    0.977    44 H    0.971
                            20 N    0.935
    22   6 C    3.881 --    23 O    1.497    24 C    1.140    20 N    1.104
    23   8 O    1.831 --    22 C    1.497    20 N    0.119
    24   6 C    3.853 --    13 C    1.443    22 C    1.140    25 O    1.047
    25   8 O    2.033 --    24 C    1.047    47 H    0.813
    26   1 H    1.017 --     1 C    0.989
    27   1 H    1.010 --     1 C    0.987
    28   1 H    1.011 --     1 C    0.987
    29   1 H    1.010 --     2 C    0.965
    30   1 H    1.003 --     3 C    0.975
    31   1 H    1.004 --     6 C    0.977
    32   1 H    1.005 --     7 C    0.972
    33   1 H    1.014 --     9 C    0.970
    34   1 H    1.015 --     9 C    0.976
    35   1 H    0.969 --    10 N    0.898
    36   1 H    1.014 --    17 C    0.984
    37   1 H    1.012 --    17 C    0.984
    38   1 H    1.005 --    17 C    0.986
    39   1 H    1.004 --    18 C    0.986
    40   1 H    1.005 --    18 C    0.982
    41   1 H    1.001 --    18 C    0.984
    42   1 H    0.956 --    19 N    0.942
    43   1 H    0.958 --    19 N    0.942
    44   1 H    1.030 --    21 C    0.971
    45   1 H    1.004 --    21 C    0.978
    46   1 H    1.011 --    21 C    0.977
    47   1 H    0.859 --    25 O    0.813
 ---------------------------------------------------------------------------

           -------------------------------------------------
          | TOTAL ENERGY              -80.190590377389 Eh   |
          | GRADIENT NORM               0.000675796712 Eh/α |
          | HOMO-LUMO GAP               0.136170122314 eV   |
           -------------------------------------------------

 * finished run on 2023/06/20 at 15:06:05.555
