   * xtb version 6.5.1 (579679a) compiled by 'ehlert@majestix' on 2022-07-11
          program call               : /lustre/hpc/kemi/ree/PhD/git/ReactivityQM/dep/xtb-6.5.1/bin/xtb --gfn 1 /lustre/hpc/kemi/ree/PhD/git/ReactivityQM/calculations/RaltegravirCLI/reac02prodE04/conf14/RaltegravirCLI_reac02prodE04_conf14_gfn1.xyz --opt --vfukui --chrg -1 --uhf 0 --alpb DMSO

   ID    Z sym.   atoms
    1    6 C      1, 3, 5, 7-9, 12-16, 18, 19, 21-24
    2    7 N      2, 11, 20, 25
    3    8 O      4, 6, 10
    4    9 F      17
    5    1 H      26-47

      * Solvation model:               ALPB
        Solvent                        DMSO
        Solvent mass                       7.8130E+01 g/mol
          :  Hamiltonian                  GFN1-xTB          :
 * total energy  :   -80.1870051 Eh     change       -0.1787726E-09 Eh
 * total energy  :   -80.2024196 Eh     change       -0.1541456E-01 Eh
 * total energy  :   -80.2060760 Eh     change       -0.3656335E-02 Eh
 * total energy  :   -80.2066430 Eh     change       -0.5670929E-03 Eh
 * total energy  :   -80.2070190 Eh     change       -0.3759396E-03 Eh
 * total energy  :   -80.2071177 Eh     change       -0.9870787E-04 Eh
 * total energy  :   -80.2072151 Eh     change       -0.9741839E-04 Eh
 * total energy  :   -80.2072990 Eh     change       -0.8389602E-04 Eh
 * total energy  :   -80.2074078 Eh     change       -0.1087706E-03 Eh
 * total energy  :   -80.2075315 Eh     change       -0.1236703E-03 Eh
 * total energy  :   -80.2120028 Eh     change       -0.5187802E-05 Eh
 * total energy  :   -80.2120103 Eh     change       -0.7480801E-05 Eh
 * total energy  :   -80.2120181 Eh     change       -0.7886056E-05 Eh
 * total energy  :   -80.2120239 Eh     change       -0.5792034E-05 Eh
 * total energy  :   -80.2120294 Eh     change       -0.5513855E-05 Eh
 * total energy  :   -80.2120374 Eh     change       -0.7906095E-05 Eh
 * total energy  :   -80.2120462 Eh     change       -0.8866849E-05 Eh
 * total energy  :   -80.2120525 Eh     change       -0.6241838E-05 Eh
 * total energy  :   -80.2120569 Eh     change       -0.4442708E-05 Eh
   *** GEOMETRY OPTIMIZATION CONVERGED AFTER 54 ITERATIONS ***

 final structure:
================
47
 xtb: 6.5.1 (579679a)
C           -2.62147678173194        0.81281797267284        1.92518027747808
N           -1.95472987231562        0.78330397573332        0.63020299115368
C           -0.99476455420244        1.86592948966834        0.40074503103673
O           -0.92445679144354        2.80114235777245        1.25845092111585
C           -0.30087734888043        1.77524575737342       -0.75993872355424
O            0.66320136400418        2.77871208899158       -1.07878372655391
C           -0.36512826144278        0.62675169854460       -1.71641364001978
C           -0.47841553155071        1.09541803782724       -3.18518446377310
C            0.92299952242462       -0.22820273540056       -1.57301930507040
O            0.92812666078989       -1.40222451767832       -1.21544036748868
N            2.06912051415129        0.43164908346960       -1.87567014573055
C            3.36434684835647       -0.20129663232017       -1.66172150802043
C            3.79344500947730       -0.10001806111103       -0.21350349482565
C            4.55891223627971        0.97939004137174        0.22117726353939
C            4.94039546261179        1.08721243599897        1.55185427554087
C            4.53683245892010        0.09843485049921        2.42995304390073
F            4.90417479743307        0.19319154863819        3.72163633734941
C            3.77870258220936       -0.98854015832423        2.03380099337415
C            3.40761013538542       -1.07935194057455        0.70010555992207
N           -1.50564979988876       -0.23047086373520       -1.43756772430584
C           -2.17691875946868       -0.14305756238652       -0.34312576520513
C           -3.28623730804148       -1.19862424528996       -0.20237985933862
C           -3.46512901467366       -1.93489665800891       -1.54247194246944
C           -2.90806565120730       -2.22894580977250        0.87051396611633
N           -4.55838811925461       -0.56710096347993        0.16342005061092
H           -3.65986440354633        0.49607742225474        1.84420188628348
H           -2.59933993333000        1.83879819048294        2.30306774073891
H           -2.10230479116933        0.17119708251608        2.64558958460607
H            0.53619911768820        3.48796270994041       -0.43029150564127
H           -1.40889937453008        1.64779327001987       -3.31357124464909
H           -0.48584464801635        0.23464010868415       -3.85357897918046
H            0.35511657439021        1.74489630109734       -3.44607587235662
H            2.06610277137407        1.44038707018770       -1.93584195344082
H            3.28191546574457       -1.25259379033182       -1.95670095190062
H            4.09162703136865        0.29289025323396       -2.31040263226093
H            4.87130294921999        1.74045388279211       -0.48436331406015
H            5.54172995315323        1.91629934577427        1.90020049062094
H            3.49331233632470       -1.74535868805687        2.75298576147960
H            2.81468705803291       -1.92291438640933        0.36331112918115
H           -2.55518656447152       -2.47343073791342       -1.80758306904423
H           -4.28773567700542       -2.64440475138232       -1.46213929316462
H           -3.69023184161888       -1.22356167272741       -2.33623211263015
H           -1.92613225343644       -2.64932515737344        0.65120046429910
H           -2.88605984322260       -1.78260117502805        1.86271121329493
H           -3.63851143809953       -3.03771599737684        0.87948738780121
H           -4.89705264100849       -0.01645637203144       -0.61516401730922
H           -5.24245864578864       -1.28950309883897        0.33629524253784

          :  Hamiltonian                  GFN1-xTB          :
         :: total energy             -80.212056906401 Eh    ::
         :: gradient norm              0.000365394473 Eh/a0 ::
         :: HOMO-LUMO gap              0.987002285190 eV    ::
         :: SCC energy               -81.073401042551 Eh    ::
         :: -> Gsolv                  -0.111278571970 Eh    ::
         :: repulsion energy           0.893058970239 Eh    ::

    * Orbital Energies and Occupations

         #    Occupation            Energy/Eh            Energy/eV
      -------------------------------------------------------------
         1        2.0000           -0.8571253             -23.3236
       ...           ...                  ...                  ...
        56        2.0000           -0.4615732             -12.5600
        57        2.0000           -0.4548769             -12.3778
        58        2.0000           -0.4460312             -12.1371
        59        2.0000           -0.4430257             -12.0553
        60        2.0000           -0.4397732             -11.9668
        61        2.0000           -0.4310019             -11.7282
        62        2.0000           -0.4174594             -11.3596
        63        2.0000           -0.4102921             -11.1646
        64        2.0000           -0.3943377             -10.7305
        65        2.0000           -0.3752574             -10.2113
        66        2.0000           -0.3723415             -10.1319
        67        2.0000           -0.3618731              -9.8471
        68        2.0000           -0.3012218              -8.1967 (HOMO)
        69                         -0.2649501              -7.2097 (LUMO)
        70                         -0.2580257              -7.0212
        71                         -0.2187626              -5.9528
        72                         -0.2060310              -5.6064
        73                         -0.1372588              -3.7350
        74                         -0.1239795              -3.3737
        75                         -0.1123354              -3.0568
        76                         -0.1105807              -3.0091
        77                         -0.1033940              -2.8135
        78                         -0.0995102              -2.7078
        79                         -0.0965288              -2.6267
       ...                                ...                  ...
       144                          0.6936113              18.8741
      -------------------------------------------------------------
                  HL-Gap            0.0362717 Eh            0.9870 eV

Wiberg/Mayer (AO) data.
largest (>0.10) Wiberg bond orders for each atom

     #   Z sym  total        # sym  WBO       # sym  WBO       # sym  WBO
 ---------------------------------------------------------------------------
     1   6 C    3.959 --    28 H    0.981    26 H    0.976    27 H    0.975
                             2 N    0.957
     2   7 N    3.372 --    21 C    1.201     1 C    0.957     3 C    0.904
                            20 N    0.171
     3   6 C    3.920 --     5 C    1.545     4 O    1.338     2 N    0.904
     4   8 O    1.700 --     3 C    1.338     5 C    0.176
     5   6 C    3.779 --     3 C    1.545     7 C    0.981     6 O    0.927
                             4 O    0.176
     6   8 O    1.927 --     5 C    0.927    29 H    0.854
     7   6 C    3.968 --     5 C    0.981    20 N    0.980     8 C    0.969
                             9 C    0.912
     8   6 C    3.996 --    31 H    0.988    32 H    0.986    30 H    0.986
                             7 C    0.969
     9   6 C    3.867 --    10 O    1.588    11 N    1.237     7 C    0.912
    10   8 O    1.873 --     9 C    1.588    11 N    0.149
    11   7 N    3.306 --     9 C    1.237    12 C    0.947    33 H    0.895
                            10 O    0.149
    12   6 C    3.960 --    13 C    0.995    35 H    0.978    34 H    0.973
                            11 N    0.947
    13   6 C    3.988 --    14 C    1.420    19 C    1.415    12 C    0.995
    14   6 C    3.994 --    15 C    1.441    13 C    1.420    36 H    0.972
                            18 C    0.110
    15   6 C    3.992 --    14 C    1.441    16 C    1.403    37 H    0.970
                            19 C    0.111
    16   6 C    3.856 --    15 C    1.403    18 C    1.400    17 F    0.918
    17   9 F    1.044 --    16 C    0.918
    18   6 C    3.992 --    19 C    1.445    16 C    1.400    38 H    0.970
                            14 C    0.110
    19   6 C    3.992 --    18 C    1.445    13 C    1.415    39 H    0.969
                            15 C    0.111
    20   7 N    2.977 --    21 C    1.643     7 C    0.980     2 N    0.171
    21   6 C    3.946 --    20 N    1.643     2 N    1.201    22 C    0.964
    22   6 C    3.963 --    23 C    0.993    24 C    0.991    25 N    0.975
                            21 C    0.964
    23   6 C    3.997 --    22 C    0.993    41 H    0.987    42 H    0.985
                            40 H    0.983
    24   6 C    3.996 --    22 C    0.991    43 H    0.986    45 H    0.985
                            44 H    0.982
    25   7 N    2.990 --    22 C    0.975    47 H    0.948    46 H    0.947
    26   1 H    1.035 --     1 C    0.976
    27   1 H    1.027 --     1 C    0.975
    28   1 H    1.013 --     1 C    0.981
    29   1 H    0.894 --     6 O    0.854
    30   1 H    1.016 --     8 C    0.986
    31   1 H    1.011 --     8 C    0.988
    32   1 H    1.012 --     8 C    0.986
    33   1 H    0.964 --    11 N    0.895
    34   1 H    1.013 --    12 C    0.973
    35   1 H    1.006 --    12 C    0.978
    36   1 H    1.000 --    14 C    0.972
    37   1 H    0.999 --    15 C    0.970
    38   1 H    1.000 --    18 C    0.970
    39   1 H    1.017 --    19 C    0.969
    40   1 H    1.022 --    23 C    0.983
    41   1 H    1.007 --    23 C    0.987
    42   1 H    1.019 --    23 C    0.985
    43   1 H    1.007 --    24 C    0.986
    44   1 H    1.009 --    24 C    0.982
    45   1 H    1.003 --    24 C    0.985
    46   1 H    0.965 --    25 N    0.947
    47   1 H    0.964 --    25 N    0.948
 ---------------------------------------------------------------------------

           -------------------------------------------------
          | TOTAL ENERGY              -80.212056906401 Eh   |
          | GRADIENT NORM               0.000365394473 Eh/α |
          | HOMO-LUMO GAP               0.987002285190 eV   |
           -------------------------------------------------

 * finished run on 2023/06/20 at 15:00:04.193
