   * xtb version 6.5.1 (579679a) compiled by 'ehlert@majestix' on 2022-07-11
          program call               : /lustre/hpc/kemi/ree/PhD/git/ReactivityQM/dep/xtb-6.5.1/bin/xtb --gfn 1 /lustre/hpc/kemi/ree/PhD/git/ReactivityQM/calculations/R01/reac01prodN04/conf09/R01_reac01prodN04_conf09_gfn1.xyz --opt --vfukui --chrg 1 --uhf 0 --alpb DMSO

   ID    Z sym.   atoms
    1    6 C      1, 3, 5, 8-10
    2    8 O      2, 4, 11
    3    7 N      6, 7
    4    1 H      12-20

      * Solvation model:               ALPB
        Solvent                        DMSO
        Solvent mass                       7.8130E+01 g/mol
          :  Hamiltonian                  GFN1-xTB          :
 * total energy  :   -37.6285435 Eh     change       -0.7659651E-11 Eh
 * total energy  :   -37.6405176 Eh     change       -0.1197409E-01 Eh
 * total energy  :   -37.6440471 Eh     change       -0.3529554E-02 Eh
 * total energy  :   -37.6446925 Eh     change       -0.6453450E-03 Eh
 * total energy  :   -37.6451441 Eh     change       -0.4516118E-03 Eh
 * total energy  :   -37.6453030 Eh     change       -0.1588779E-03 Eh
 * total energy  :   -37.6454535 Eh     change       -0.1505516E-03 Eh
 * total energy  :   -37.6455782 Eh     change       -0.1246980E-03 Eh
 * total energy  :   -37.6456389 Eh     change       -0.6066873E-04 Eh
 * total energy  :   -37.6456726 Eh     change       -0.3367544E-04 Eh
 * total energy  :   -37.6456826 Eh     change       -0.1006060E-04 Eh
 * total energy  :   -37.6456881 Eh     change       -0.5485045E-05 Eh
 * total energy  :   -37.6456902 Eh     change       -0.2113337E-05 Eh
   *** GEOMETRY OPTIMIZATION CONVERGED AFTER 13 ITERATIONS ***

 final structure:
================
20
 xtb: 6.5.1 (579679a)
C            4.09415146658963        0.06807071366059        0.52662453764888
O            2.68142890449722        0.23717338411673        0.30051138969684
C            1.91957685380786       -0.81463813455503        0.46388160072183
O            2.26672368458272       -1.91679602364730        0.78450482904512
C            0.47358750248663       -0.48349521709964        0.19233033377968
N           -0.53696443399203       -1.29492850173545        0.26857885472521
N           -1.60336019716994       -0.55044860824681       -0.06632379641206
C           -2.92810891656295       -1.13779391065846       -0.07778811479338
C           -1.22545748493027        0.68472924116223       -0.33406816443979
C           -2.04129422869484        1.83405836716143       -0.75386674750449
O            0.07928307965301        0.74866526790919       -0.17795948705665
H            4.47829179011250       -0.71188474440082       -0.13276346571023
H            4.55109024681418        1.02837922773275        0.30071686081687
H            4.26472855300293       -0.20882485698335        1.56806478352264
H           -3.45920520518813       -0.82596316195151        0.82097213956092
H           -2.81555647812864       -2.21895722926360       -0.09466489139569
H           -3.45781941529367       -0.78997705564129       -0.96141563634019
H           -2.96285228531335        1.87588713498940       -0.17444274567798
H           -1.46930656390272        2.75175993435438       -0.62703471059213
H           -2.30893887237003        1.72498517309647       -1.80763756959514

          :  Hamiltonian                  GFN1-xTB          :
         :: total energy             -37.645690209518 Eh    ::
         :: gradient norm              0.000459382284 Eh/a0 ::
         :: HOMO-LUMO gap              4.085279511754 eV    ::
         :: SCC energy               -38.000655166897 Eh    ::
         :: -> Gsolv                  -0.086260622999 Eh    ::
         :: repulsion energy           0.362997130951 Eh    ::

    * Orbital Energies and Occupations

         #    Occupation            Energy/Eh            Energy/eV
      -------------------------------------------------------------
         1        2.0000           -0.9450798             -25.7169
       ...           ...                  ...                  ...
        18        2.0000           -0.6257045             -17.0263
        19        2.0000           -0.6138358             -16.7033
        20        2.0000           -0.6009716             -16.3533
        21        2.0000           -0.5945974             -16.1798
        22        2.0000           -0.5927111             -16.1285
        23        2.0000           -0.5809406             -15.8082
        24        2.0000           -0.5749769             -15.6459
        25        2.0000           -0.5671396             -15.4327
        26        2.0000           -0.5529992             -15.0479
        27        2.0000           -0.5397078             -14.6862
        28        2.0000           -0.5291252             -14.3982
        29        2.0000           -0.5250966             -14.2886
        30        2.0000           -0.5226598             -14.2223 (HOMO)
        31                         -0.3725286             -10.1370 (LUMO)
        32                         -0.3504533              -9.5363
        33                         -0.2566679              -6.9843
        34                         -0.1872894              -5.0964
        35                         -0.1751066              -4.7649
        36                         -0.1532614              -4.1705
        37                         -0.1223327              -3.3288
        38                         -0.1164786              -3.1695
        39                         -0.1031704              -2.8074
        40                         -0.0967535              -2.6328
        41                         -0.0891592              -2.4261
       ...                                ...                  ...
        62                          0.7348396              19.9960
      -------------------------------------------------------------
                  HL-Gap            0.1501313 Eh            4.0853 eV

Wiberg/Mayer (AO) data.
largest (>0.10) Wiberg bond orders for each atom

     #   Z sym  total        # sym  WBO       # sym  WBO       # sym  WBO
 ---------------------------------------------------------------------------
     1   6 C    3.837 --    13 H    0.984    12 H    0.977    14 H    0.977
                             2 O    0.865
     2   8 O    2.245 --     3 C    1.175     1 C    0.865     4 O    0.158
     3   6 C    3.878 --     4 O    1.692     2 O    1.175     5 C    0.946
     4   8 O    1.970 --     3 C    1.692     2 O    0.158
     5   6 C    3.854 --     6 N    1.618    11 O    1.063     3 C    0.946
     6   7 N    2.993 --     5 C    1.618     7 N    1.162
     7   7 N    3.630 --     9 C    1.414     6 N    1.162     8 C    0.907
     8   6 C    3.881 --    16 H    0.976    17 H    0.974    15 H    0.964
                             7 N    0.907
     9   6 C    3.839 --     7 N    1.414    11 O    1.157    10 C    1.043
    10   6 C    3.959 --     9 C    1.043    19 H    0.968    18 H    0.957
                            20 H    0.933
    11   8 O    2.389 --     9 C    1.157     5 C    1.063
    12   1 H    1.000 --     1 C    0.977
    13   1 H    1.005 --     1 C    0.984
    14   1 H    1.000 --     1 C    0.977
    15   1 H    0.988 --     8 C    0.964
    16   1 H    0.991 --     8 C    0.976
    17   1 H    0.989 --     8 C    0.974
    18   1 H    0.986 --    10 C    0.957
    19   1 H    0.985 --    10 C    0.968
    20   1 H    0.983 --    10 C    0.933
 ---------------------------------------------------------------------------

           -------------------------------------------------
          | TOTAL ENERGY              -37.645690209518 Eh   |
          | GRADIENT NORM               0.000459382284 Eh/α |
          | HOMO-LUMO GAP               4.085279511754 eV   |
           -------------------------------------------------

 * finished run on 2023/06/20 at 14:55:34.825
