   * xtb version 6.5.1 (579679a) compiled by 'ehlert@majestix' on 2022-07-11
          program call               : /lustre/hpc/kemi/ree/PhD/git/ReactivityQM/dep/xtb-6.5.1/bin/xtb --gfn 1 /lustre/hpc/kemi/ree/PhD/git/ReactivityQM/calculations/R02methylcation/reac01prodN08/conf18/R02methylcation_reac01prodN08_conf18_gfn1.xyz --opt --vfukui --chrg 0 --uhf 0 --alpb DMSO

   ID    Z sym.   atoms
    1    6 C      1, 3, 5, 7-10, 12, 14, 17, 18, 21, 23, 25
    2    8 O      2, 4, 13, 19, 22, 24
    3    7 N      6, 11, 15, 16, 20
    4    1 H      26-42

      * Solvation model:               ALPB
        Solvent                        DMSO
        Solvent mass                       7.8130E+01 g/mol
          :  Hamiltonian                  GFN1-xTB          :
 * total energy  :   -82.9982626 Eh     change       -0.1122658E-10 Eh
 * total energy  :   -83.0125750 Eh     change       -0.1431244E-01 Eh
 * total energy  :   -83.0170849 Eh     change       -0.4509929E-02 Eh
 * total energy  :   -83.0180680 Eh     change       -0.9830847E-03 Eh
 * total energy  :   -83.0186895 Eh     change       -0.6215444E-03 Eh
 * total energy  :   -83.0190112 Eh     change       -0.3216193E-03 Eh
 * total energy  :   -83.0192242 Eh     change       -0.2129919E-03 Eh
 * total energy  :   -83.0193803 Eh     change       -0.1561332E-03 Eh
 * total energy  :   -83.0194843 Eh     change       -0.1039618E-03 Eh
 * total energy  :   -83.0195698 Eh     change       -0.8557929E-04 Eh
 * total energy  :   -83.0201588 Eh     change       -0.2287752E-04 Eh
 * total energy  :   -83.0201739 Eh     change       -0.1503089E-04 Eh
 * total energy  :   -83.0201918 Eh     change       -0.1795941E-04 Eh
 * total energy  :   -83.0202050 Eh     change       -0.1313700E-04 Eh
 * total energy  :   -83.0202149 Eh     change       -0.9899307E-05 Eh
 * total energy  :   -83.0202239 Eh     change       -0.9074633E-05 Eh
 * total energy  :   -83.0202311 Eh     change       -0.7186677E-05 Eh
 * total energy  :   -83.0202362 Eh     change       -0.5108855E-05 Eh
 * total energy  :   -83.0202412 Eh     change       -0.4928145E-05 Eh
   *** GEOMETRY OPTIMIZATION CONVERGED AFTER 33 ITERATIONS ***

 final structure:
================
42
 xtb: 6.5.1 (579679a)
C           -6.09447627859158       -1.07812817491217       -0.71906220083397
O           -4.86620011994561       -0.76665858460134       -0.05529680459746
C           -3.82680557072881       -0.48308652086158       -0.83628645003085
O           -3.89181231421987       -0.48507868555788       -2.04556231591359
C           -2.57163274138848       -0.14931330468671       -0.09461952815166
N           -1.55118146471170        0.19673388214971       -0.94191421435753
C           -0.40331340690868        0.52564743294026       -0.46146440382826
C            0.70945980365017        0.96281062844275       -1.38827108365844
C            0.75601840118758        2.49916628586010       -1.36722439083385
C            0.45544089188534        0.43127519152796       -2.80246388484327
N            1.96762656763924        0.41606321681895       -0.86772934999080
C            3.16734467784551        0.66869692941889       -1.43711282001511
O            3.36243608858711        1.42573192482148       -2.37215369083944
C            4.27354265765772       -0.07495271567513       -0.78394613208000
N            5.53104308795473       -0.05922829676487       -1.09893244849510
N            6.16656917620378       -0.88753072187269       -0.22305271276830
C            5.25797329651114       -1.35815163259028        0.57287869703998
C            5.43845698765127       -2.29609670941894        1.70183855017117
O            4.03673998262883       -0.88526216383484        0.27104436891204
N           -0.17667435174442        0.56521588101960        0.88220118269928
C           -1.11289385845282        0.23304188205112        1.84013010204562
O           -0.81956822109129        0.30099728851273        3.02466239945874
C           -2.40589283473124       -0.16484784426031        1.27355759209203
O           -3.42849585088722       -0.52976709759190        2.05751520711868
C           -3.32634947874811       -0.62955864351515        3.47828596636273
H           -5.96826688095457       -1.96363001234285       -1.34660198387868
H           -6.40959377568954       -0.23636583081069       -1.34045215940042
H           -6.82966322253879       -1.26873127738210        0.05988079946002
H            1.49443612512316        2.86496018829112       -2.07788366911250
H           -0.22321729937490        2.89222316433871       -1.63706638158191
H            1.01676035413954        2.84709351919692       -0.36954852387366
H           -0.52231506450726        0.76800129889551       -3.14414742181457
H            1.22110624658936        0.79970817946228       -3.48252736980416
H            0.47273274435267       -0.65751298815761       -2.79648170705802
H            1.91903827295585       -0.31408415605287       -0.17735011073765
H            4.83085278604689       -3.18720772924957        1.54608008851902
H            6.48627991128501       -2.57606480359142        1.78187382171138
H            5.11317969989678       -1.82563816434569        2.62975511560922
H            0.72276595843602        0.85129789670948        1.23791860331011
H           -3.12245528002357        0.34476699780574        3.92770727392728
H           -2.55007109058000       -1.34096540048420        3.76794217543262
H           -4.29892461240169       -0.99171332970438        3.81387781462655

          :  Hamiltonian                  GFN1-xTB          :
         :: total energy             -83.020241153530 Eh    ::
         :: gradient norm              0.000579324401 Eh/a0 ::
         :: HOMO-LUMO gap              2.763288038790 eV    ::
         :: SCC energy               -83.804418498622 Eh    ::
         :: -> Gsolv                  -0.057698730360 Eh    ::
         :: repulsion energy           0.809168386555 Eh    ::

    * Orbital Energies and Occupations

         #    Occupation            Energy/Eh            Energy/eV
      -------------------------------------------------------------
         1        2.0000           -0.8657899             -23.5593
       ...           ...                  ...                  ...
        55        2.0000           -0.5051979             -13.7471
        56        2.0000           -0.5012784             -13.6405
        57        2.0000           -0.4957881             -13.4911
        58        2.0000           -0.4852235             -13.2036
        59        2.0000           -0.4811412             -13.0925
        60        2.0000           -0.4801418             -13.0653
        61        2.0000           -0.4669997             -12.7077
        62        2.0000           -0.4616013             -12.5608
        63        2.0000           -0.4569590             -12.4345
        64        2.0000           -0.4520945             -12.3021
        65        2.0000           -0.4508947             -12.2695
        66        2.0000           -0.4483114             -12.1992
        67        2.0000           -0.4270444             -11.6205 (HOMO)
        68                         -0.3254955              -8.8572 (LUMO)
        69                         -0.3118063              -8.4847
        70                         -0.2845537              -7.7431
        71                         -0.2568826              -6.9901
        72                         -0.2408565              -6.5540
        73                         -0.1995626              -5.4304
        74                         -0.1615810              -4.3968
        75                         -0.1417556              -3.8574
        76                         -0.1372573              -3.7350
        77                         -0.1313845              -3.5752
        78                         -0.1278615              -3.4793
       ...                                ...                  ...
       134                          0.7292297              19.8434
      -------------------------------------------------------------
                  HL-Gap            0.1015490 Eh            2.7633 eV

Wiberg/Mayer (AO) data.
largest (>0.10) Wiberg bond orders for each atom

     #   Z sym  total        # sym  WBO       # sym  WBO       # sym  WBO
 ---------------------------------------------------------------------------
     1   6 C    3.872 --    28 H    0.986    27 H    0.979    26 H    0.979
                             2 O    0.897
     2   8 O    2.205 --     3 C    1.117     1 C    0.897     4 O    0.134
     3   6 C    3.852 --     4 O    1.654     2 O    1.117     5 C    1.000
     4   8 O    1.915 --     3 C    1.654     2 O    0.134
     5   6 C    3.962 --    23 C    1.483     6 N    1.185     3 C    1.000
     6   7 N    3.029 --     7 C    1.587     5 C    1.185
     7   6 C    3.930 --     6 N    1.587    20 N    1.167     8 C    0.982
     8   6 C    3.933 --    10 C    0.990     7 C    0.982     9 C    0.974
                            11 N    0.923
     9   6 C    3.987 --    30 H    0.985    31 H    0.985    29 H    0.977
                             8 C    0.974
    10   6 C    3.988 --     8 C    0.990    34 H    0.985    32 H    0.983
                            33 H    0.982
    11   7 N    3.337 --    12 C    1.247     8 C    0.923    35 H    0.893
                            13 O    0.174
    12   6 C    3.915 --    13 O    1.592    11 N    1.247    14 C    0.993
    13   8 O    1.908 --    12 C    1.592    11 N    0.174
    14   6 C    3.872 --    15 N    1.623    19 O    1.047    12 C    0.993
    15   7 N    3.000 --    14 C    1.623    16 N    1.198
    16   7 N    2.982 --    17 C    1.611    15 N    1.198
    17   6 C    3.868 --    16 N    1.611    19 O    1.071    18 C    1.032
    18   6 C    3.986 --    17 C    1.032    37 H    0.982    36 H    0.963
                            38 H    0.962
    19   8 O    2.315 --    17 C    1.071    14 C    1.047
    20   7 N    3.464 --     7 C    1.167    21 C    1.128    39 H    0.882
                            22 O    0.132
    21   6 C    3.909 --    22 O    1.578    20 N    1.128    23 C    1.066
    22   8 O    1.905 --    21 C    1.578    20 N    0.132
    23   6 C    3.918 --     5 C    1.483    24 O    1.098    21 C    1.066
    24   8 O    2.195 --    23 C    1.098    25 C    0.895
    25   6 C    3.870 --    42 H    0.984    41 H    0.979    40 H    0.978
                            24 O    0.895
    26   1 H    1.007 --     1 C    0.979
    27   1 H    1.008 --     1 C    0.979
    28   1 H    1.011 --     1 C    0.986
    29   1 H    1.009 --     9 C    0.977
    30   1 H    1.001 --     9 C    0.985
    31   1 H    1.001 --     9 C    0.985
    32   1 H    1.011 --    10 C    0.983
    33   1 H    1.007 --    10 C    0.982
    34   1 H    1.003 --    10 C    0.985
    35   1 H    0.937 --    11 N    0.893
    36   1 H    0.997 --    18 C    0.963
    37   1 H    0.998 --    18 C    0.982
    38   1 H    0.996 --    18 C    0.962
    39   1 H    0.927 --    20 N    0.882
    40   1 H    1.015 --    25 C    0.978
    41   1 H    1.013 --    25 C    0.979
    42   1 H    1.012 --    25 C    0.984
 ---------------------------------------------------------------------------

           -------------------------------------------------
          | TOTAL ENERGY              -83.020241153530 Eh   |
          | GRADIENT NORM               0.000579324401 Eh/α |
          | HOMO-LUMO GAP               2.763288038790 eV   |
           -------------------------------------------------

 * finished run on 2023/06/21 at 17:39:19.893
