   * xtb version 6.5.1 (579679a) compiled by 'ehlert@majestix' on 2022-07-11
          program call               : /lustre/hpc/kemi/ree/PhD/git/ReactivityQM/dep/xtb-6.5.1/bin/xtb --gfn 1 /lustre/hpc/kemi/ree/PhD/git/ReactivityQM/calculations/R02oxygendeprot/reac01prodN16/conf15/R02oxygendeprot_reac01prodN16_conf15_gfn1.xyz --opt --vfukui --chrg 0 --uhf 0 --alpb DMSO

   ID    Z sym.   atoms
    1    6 C      1, 2, 5, 6, 9-12, 14, 15, 18-20, 22
    2    7 N      3, 4, 8, 13, 24
    3    8 O      7, 16, 17, 21, 23, 25
    4    1 H      26-42

      * Solvation model:               ALPB
        Solvent                        DMSO
        Solvent mass                       7.8130E+01 g/mol
          :  Hamiltonian                  GFN1-xTB          :
 * total energy  :   -82.9227732 Eh     change       -0.4661160E-11 Eh
 * total energy  :   -82.9394613 Eh     change       -0.1668812E-01 Eh
 * total energy  :   -82.9471538 Eh     change       -0.7692561E-02 Eh
 * total energy  :   -82.9493317 Eh     change       -0.2177899E-02 Eh
 * total energy  :   -82.9513671 Eh     change       -0.2035400E-02 Eh
 * total energy  :   -82.9526655 Eh     change       -0.1298368E-02 Eh
 * total energy  :   -82.9535136 Eh     change       -0.8481423E-03 Eh
 * total energy  :   -82.9541329 Eh     change       -0.6192422E-03 Eh
 * total energy  :   -82.9544940 Eh     change       -0.3611062E-03 Eh
 * total energy  :   -82.9547920 Eh     change       -0.2980208E-03 Eh
 * total energy  :   -82.9560047 Eh     change       -0.1162534E-04 Eh
 * total energy  :   -82.9560196 Eh     change       -0.1496126E-04 Eh
 * total energy  :   -82.9559842 Eh     change        0.3541686E-04 Eh
 * total energy  :   -82.9560373 Eh     change       -0.5306937E-04 Eh
 * total energy  :   -82.9560451 Eh     change       -0.7774807E-05 Eh
 * total energy  :   -82.9560549 Eh     change       -0.9845324E-05 Eh
 * total energy  :   -82.9560682 Eh     change       -0.1328510E-04 Eh
 * total energy  :   -82.9560735 Eh     change       -0.5282166E-05 Eh
 * total energy  :   -82.9560783 Eh     change       -0.4832305E-05 Eh
   *** GEOMETRY OPTIMIZATION CONVERGED AFTER 35 ITERATIONS ***

 final structure:
================
42
 xtb: 6.5.1 (579679a)
C            6.68246168016467       -2.28830162945525        0.63219808422950
C            5.30431433217188       -1.80110022443095        0.86030395861139
N            4.45165630557708       -2.22053015321922        1.74678716735079
N            3.32432072339328       -1.47441340683884        1.58393690357883
C            3.56005505305050       -0.64743607203289        0.60942870428194
C            2.60962576164023        0.34897326734739        0.05618082348125
O            2.86694922495871        1.05211076498038       -0.90864417941690
N            1.45143211883962        0.33969545153960        0.74262121177236
C            0.29839087407467        1.22359030351798        0.51826427123882
C           -0.60436524036014        1.08052436685520        1.74423174014919
C            0.75109543637999        2.68215029403329        0.37487874955792
C           -0.46026889020256        0.77616934995817       -0.72226902310829
N           -1.68828245273527        0.42828467299356       -0.61686431571368
C           -2.40334689323197        0.04648334393150       -1.74556043121837
C           -3.73656385817608       -0.28921292680754       -1.61871143051070
O           -4.65722316362268       -0.63184890888873       -2.27648276469687
O           -4.18755145767100       -0.10378514274892        0.01316564802714
C           -5.60018486114945        0.14029333352907        0.09938860847248
C           -3.74314701576409       -1.21194225590924        0.81323320648063
C           -1.81239432751013        0.00152024411268       -3.06149972430758
O           -2.39381534499990       -0.33784678924395       -4.08505861899754
C           -0.35113978910729        0.42149628669895       -3.12014491310141
O            0.29921290981018        0.43876907032590       -4.14985399999802
N            0.20283438549282        0.79377821445231       -1.92537537665331
O            4.79882901844320       -0.81037039994670        0.11171867276323
H            6.84092409487042       -2.47546841479747       -0.42920550885044
H            6.84521770108345       -3.20274306538254        1.19759454664165
H            7.40115346399953       -1.53380005494259        0.95386020560758
H            1.38107042541212       -0.29790798414358        1.52147038665245
H           -0.07456066253440        1.40637380303553        2.63713205315951
H           -0.90995368178654        0.04301366554343        1.86827331771016
H           -1.49734988060673        1.68957855879533        1.61605371736004
H            1.34990917981836        2.82812665450557       -0.52137269935383
H            1.34106668879394        2.96627828417629        1.24436809325215
H           -0.12793980111181        3.32239325653180        0.31863386974057
H           -5.80216410791306        1.05169462263438       -0.46079162834840
H           -6.15904861137877       -0.69990342160257       -0.31894217638445
H           -5.85025825646872        0.27772401652693        1.14955294819966
H           -2.66015717183033       -1.25743166801284        0.71236062823890
H           -4.20860942218635       -2.14108232105102        0.47731274955316
H           -4.01287484716980       -1.00580432041109        1.84838457760679
H            1.18068135955195        1.07190633384534       -1.93794905305450

          :  Hamiltonian                  GFN1-xTB          :
         :: total energy             -82.956078296695 Eh    ::
         :: gradient norm              0.000383973585 Eh/a0 ::
         :: HOMO-LUMO gap              2.478277980158 eV    ::
         :: SCC energy               -83.753161951647 Eh    ::
         :: -> Gsolv                  -0.068078794511 Eh    ::
         :: repulsion energy           0.823459527524 Eh    ::

    * Orbital Energies and Occupations

         #    Occupation            Energy/Eh            Energy/eV
      -------------------------------------------------------------
         1        2.0000           -0.8690559             -23.6482
       ...           ...                  ...                  ...
        55        2.0000           -0.5071820             -13.8011
        56        2.0000           -0.5051524             -13.7459
        57        2.0000           -0.5008641             -13.6292
        58        2.0000           -0.4952458             -13.4763
        59        2.0000           -0.4841259             -13.1737
        60        2.0000           -0.4741210             -12.9015
        61        2.0000           -0.4677547             -12.7283
        62        2.0000           -0.4649578             -12.6521
        63        2.0000           -0.4552541             -12.3881
        64        2.0000           -0.4541288             -12.3575
        65        2.0000           -0.4441398             -12.0857
        66        2.0000           -0.4188204             -11.3967
        67        2.0000           -0.4124278             -11.2227 (HOMO)
        68                         -0.3213527              -8.7445 (LUMO)
        69                         -0.3132685              -8.5245
        70                         -0.2719091              -7.3990
        71                         -0.2579618              -7.0195
        72                         -0.2386090              -6.4929
        73                         -0.2110146              -5.7420
        74                         -0.2012804              -5.4771
        75                         -0.1586282              -4.3165
        76                         -0.1497466              -4.0748
        77                         -0.1464762              -3.9858
        78                         -0.1423330              -3.8731
       ...                                ...                  ...
       134                          0.8651245              23.5412
      -------------------------------------------------------------
                  HL-Gap            0.0910750 Eh            2.4783 eV

Wiberg/Mayer (AO) data.
largest (>0.10) Wiberg bond orders for each atom

     #   Z sym  total        # sym  WBO       # sym  WBO       # sym  WBO
 ---------------------------------------------------------------------------
     1   6 C    3.986 --     2 C    1.031    27 H    0.982    26 H    0.968
                            28 H    0.959
     2   6 C    3.870 --     3 N    1.602    25 O    1.084     1 C    1.031
     3   7 N    2.981 --     2 C    1.602     4 N    1.202
     4   7 N    3.018 --     5 C    1.608     3 N    1.202
     5   6 C    3.876 --     4 N    1.608    25 O    1.065     6 C    0.992
     6   6 C    3.916 --     7 O    1.571     8 N    1.266     5 C    0.992
     7   8 O    1.920 --     6 C    1.571     8 N    0.177
     8   7 N    3.348 --     6 C    1.266     9 C    0.916    29 H    0.893
                             7 O    0.177
     9   6 C    3.934 --    10 C    1.002    11 C    0.985    12 C    0.968
                             8 N    0.916
    10   6 C    3.992 --     9 C    1.002    30 H    0.984    32 H    0.983
                            31 H    0.982
    11   6 C    3.987 --     9 C    0.985    35 H    0.985    34 H    0.983
                            33 H    0.978
    12   6 C    3.935 --    13 N    1.649    24 N    1.120     9 C    0.968
    13   7 N    3.039 --    12 C    1.649    14 C    1.108
    14   6 C    3.918 --    15 C    1.334    20 C    1.149    13 N    1.108
                            16 O    0.112
    15   6 C    3.811 --    16 O    1.780    14 C    1.334    17 O    0.495
    16   8 O    2.113 --    15 C    1.780    14 C    0.112
    17   8 O    2.391 --    18 C    0.876    19 C    0.873    15 C    0.495
    18   6 C    3.845 --    36 H    0.979    37 H    0.979    38 H    0.977
                            17 O    0.876
    19   6 C    3.845 --    40 H    0.982    41 H    0.978    39 H    0.973
                            17 O    0.873
    20   6 C    3.920 --    21 O    1.631    14 C    1.149    22 C    0.938
    21   8 O    1.917 --    20 C    1.631
    22   6 C    3.888 --    23 O    1.631    24 N    1.169    20 C    0.938
    23   8 O    1.907 --    22 C    1.631    24 N    0.139
    24   7 N    3.444 --    22 C    1.169    12 C    1.120    42 H    0.859
                            23 O    0.139
    25   8 O    2.333 --     2 C    1.084     5 C    1.065
    26   1 H    0.996 --     1 C    0.968
    27   1 H    0.998 --     1 C    0.982
    28   1 H    0.996 --     1 C    0.959
    29   1 H    0.949 --     8 N    0.893
    30   1 H    0.999 --    10 C    0.984
    31   1 H    1.006 --    10 C    0.982
    32   1 H    1.008 --    10 C    0.983
    33   1 H    1.009 --    11 C    0.978
    34   1 H    0.999 --    11 C    0.983
    35   1 H    1.001 --    11 C    0.985
    36   1 H    1.003 --    18 C    0.979
    37   1 H    1.004 --    18 C    0.979
    38   1 H    1.001 --    18 C    0.977
    39   1 H    1.025 --    19 C    0.973
    40   1 H    0.998 --    19 C    0.982
    41   1 H    1.001 --    19 C    0.978
    42   1 H    0.937 --    24 N    0.859
 ---------------------------------------------------------------------------

           -------------------------------------------------
          | TOTAL ENERGY              -82.956078296695 Eh   |
          | GRADIENT NORM               0.000383973585 Eh/α |
          | HOMO-LUMO GAP               2.478277980158 eV   |
           -------------------------------------------------

 * finished run on 2023/06/21 at 17:36:18.428
