   * xtb version 6.5.1 (579679a) compiled by 'ehlert@majestix' on 2022-07-11
          program call               : /lustre/hpc/kemi/ree/PhD/git/ReactivityQM/dep/xtb-6.5.1/bin/xtb --gfn 1 /lustre/hpc/kemi/ree/PhD/git/ReactivityQM/calculations/R02oxygendeprot/reac01prodN12/conf17/R02oxygendeprot_reac01prodN12_conf17_gfn1.xyz --opt --vfukui --chrg 0 --uhf 0 --alpb DMSO

   ID    Z sym.   atoms
    1    6 C      1, 3, 5, 7-10, 12, 14, 15, 18, 19, 22, 24
    2    8 O      2, 4, 13, 20, 23, 25
    3    7 N      6, 11, 16, 17, 21
    4    1 H      26-42

      * Solvation model:               ALPB
        Solvent                        DMSO
        Solvent mass                       7.8130E+01 g/mol
          :  Hamiltonian                  GFN1-xTB          :
 * total energy  :   -82.9333925 Eh     change       -0.1174456E-08 Eh
 * total energy  :   -82.9427949 Eh     change       -0.9402408E-02 Eh
 * total energy  :   -82.9459963 Eh     change       -0.3201351E-02 Eh
 * total energy  :   -82.9466451 Eh     change       -0.6488414E-03 Eh
 * total energy  :   -82.9472241 Eh     change       -0.5789251E-03 Eh
 * total energy  :   -82.9475450 Eh     change       -0.3209760E-03 Eh
 * total energy  :   -82.9477499 Eh     change       -0.2048459E-03 Eh
 * total energy  :   -82.9478815 Eh     change       -0.1316405E-03 Eh
 * total energy  :   -82.9479664 Eh     change       -0.8490094E-04 Eh
 * total energy  :   -82.9480458 Eh     change       -0.7932807E-04 Eh
 * total energy  :   -82.9485648 Eh     change       -0.1209197E-04 Eh
 * total energy  :   -82.9485743 Eh     change       -0.9443083E-05 Eh
 * total energy  :   -82.9485823 Eh     change       -0.8011130E-05 Eh
 * total energy  :   -82.9485898 Eh     change       -0.7551706E-05 Eh
 * total energy  :   -82.9485972 Eh     change       -0.7362649E-05 Eh
 * total energy  :   -82.9486041 Eh     change       -0.6878482E-05 Eh
 * total energy  :   -82.9486116 Eh     change       -0.7550162E-05 Eh
 * total energy  :   -82.9486176 Eh     change       -0.5990037E-05 Eh
 * total energy  :   -82.9486192 Eh     change       -0.1645098E-05 Eh
   *** GEOMETRY OPTIMIZATION CONVERGED AFTER 44 ITERATIONS ***

 final structure:
================
42
 xtb: 6.5.1 (579679a)
C            5.39496009284547        1.88437617848761       -1.51759464561990
O            4.29216310412742        1.24276758857126       -0.87919240411787
C            4.32424707007435        1.20986465694541        0.46802037868922
O            5.23485608427567        1.69985255203278        1.10144183158591
C            3.14429096638902        0.52279732770852        1.03171961675111
N            2.26229050647599        0.03341017718835        0.12461108005132
C            1.20462512202477       -0.61035626425892        0.50371655222353
C            0.26138874203771       -1.17387813306316       -0.53150195191644
C            0.24921785095737       -2.70618324632688       -0.45417881169371
C            0.66824125954163       -0.68473382047142       -1.92254910694404
N           -1.09072642293743       -0.66280337797129       -0.19708448072845
C           -2.16063663251273       -0.95062829448296       -0.92719604415357
O           -2.21418010685427       -1.60090914360743       -1.94448057385487
C           -3.50721077493689       -0.34726822141396       -0.35333570921803
C           -4.48172429338879       -1.50738758117358       -0.14795526026543
N           -3.97175641760984        0.62078464846299       -1.28610079130508
N           -4.00947652360827        1.77557947833331       -0.70406628882055
C           -3.61929142048771        1.62271002097891        0.56222607634499
C           -3.55549418833373        2.67760533378848        1.58209966249948
O           -3.29881163362845        0.37739558556299        0.83948492484500
N            0.91972797811676       -0.82201151849755        1.82361107746716
C            1.71546149056208       -0.37756468328548        2.86526602972226
O            1.39641966801637       -0.61025341459289        4.01627311833176
C            2.95782236714850        0.38407199346060        2.44854090854707
O            3.71195101269112        0.82566413243448        3.31530277376121
H            5.48780849538246        2.91712686431189       -1.17039840851324
H            5.19211139882181        1.86538055875501       -2.58675025939448
H            6.32322392930706        1.34791904504063       -1.30199441766442
H           -0.11232517940938       -3.02910046836055        0.51980798592223
H           -0.40054179279925       -3.11497570619375       -1.22544546418989
H            1.25943153041760       -3.08403958339739       -0.60372539311521
H            1.68983348629940       -1.00220259617160       -2.12603882123457
H            0.00859485266679       -1.10118062203612       -2.68033725868705
H            0.62344913781936        0.40266794315293       -1.96149140438605
H           -1.20898046704926       -0.16245703845854        0.66834759067770
H           -4.08606241198519       -2.17915303257887        0.60950095252863
H           -5.44143726353587       -1.11383723143808        0.17761964645465
H           -4.59394643031205       -2.03712674947808       -1.09167080019422
H           -2.69776511380103        2.52268898848719        2.23435497771697
H           -3.51311515338652        3.65701521398835        1.11108827616890
H           -4.45479823957184        2.62449792768454        2.20071830762183
H            0.09616532015401       -1.33612348811030        2.08837452809571

          :  Hamiltonian                  GFN1-xTB          :
         :: total energy             -82.948619248686 Eh    ::
         :: gradient norm              0.000178975436 Eh/a0 ::
         :: HOMO-LUMO gap              0.100695919877 eV    ::
         :: SCC energy               -83.719620239747 Eh    ::
         :: -> Gsolv                  -0.079821993133 Eh    ::
         :: repulsion energy           0.797339554357 Eh    ::

    * Orbital Energies and Occupations

         #    Occupation            Energy/Eh            Energy/eV
      -------------------------------------------------------------
         1        2.0000           -0.8910310             -24.2462
       ...           ...                  ...                  ...
        55        2.0000           -0.5101456             -13.8818
        56        2.0000           -0.5092587             -13.8576
        57        2.0000           -0.5059142             -13.7666
        58        2.0000           -0.4951281             -13.4731
        59        2.0000           -0.4871215             -13.2553
        60        2.0000           -0.4868310             -13.2473
        61        2.0000           -0.4778086             -13.0018
        62        2.0000           -0.4756903             -12.9442
        63        2.0000           -0.4714077             -12.8277
        64        2.0000           -0.4676293             -12.7248
        65        2.0000           -0.4536688             -12.3450
        66        2.0000           -0.4138979             -11.2627
        67        1.7504           -0.4006158             -10.9013 (HOMO)
        68        0.2496           -0.3969152             -10.8006 (LUMO)
        69                         -0.3023050              -8.2261
        70                         -0.2919308              -7.9438
        71                         -0.2780255              -7.5655
        72                         -0.2765430              -7.5251
        73                         -0.2276900              -6.1958
        74                         -0.1592322              -4.3329
        75                         -0.1476972              -4.0190
        76                         -0.1411107              -3.8398
        77                         -0.1367631              -3.7215
        78                         -0.1329564              -3.6179
       ...                                ...                  ...
       134                          0.7563592              20.5816
      -------------------------------------------------------------
                  HL-Gap            0.0037005 Eh            0.1007 eV

Wiberg/Mayer (AO) data.
largest (>0.10) Wiberg bond orders for each atom

     #   Z sym  total        # sym  WBO       # sym  WBO       # sym  WBO
 ---------------------------------------------------------------------------
     1   6 C    3.881 --    27 H    0.986    26 H    0.980    28 H    0.979
                             2 O    0.908
     2   8 O    2.167 --     3 C    1.076     1 C    0.908     4 O    0.126
     3   6 C    3.840 --     4 O    1.639     2 O    1.076     5 C    1.043
     4   8 O    1.884 --     3 C    1.639     2 O    0.126
     5   6 C    3.739 --     6 N    1.260    24 C    1.184     3 C    1.043
     6   7 N    3.000 --     7 C    1.519     5 C    1.260
     7   6 C    3.822 --     6 N    1.519    21 N    1.156     8 C    0.986
     8   6 C    3.918 --    10 C    0.997     7 C    0.986     9 C    0.980
                            11 N    0.887
     9   6 C    3.982 --    31 H    0.984    29 H    0.983     8 C    0.980
                            30 H    0.980
    10   6 C    3.988 --     8 C    0.997    34 H    0.985    32 H    0.983
                            33 H    0.981
    11   7 N    3.359 --    12 C    1.327     8 C    0.887    35 H    0.887
                            13 O    0.175
    12   6 C    3.874 --    13 O    1.631    11 N    1.327    14 C    0.808
    13   8 O    1.973 --    12 C    1.631    11 N    0.175
    14   6 C    3.846 --    16 N    1.064    15 C    0.932    20 O    0.906
                            12 C    0.808
    15   6 C    3.936 --    36 H    0.981    37 H    0.980    38 H    0.978
                            14 C    0.932
    16   7 N    2.698 --    17 N    1.474    14 C    1.064
    17   7 N    2.968 --    16 N    1.474    18 C    1.346
    18   6 C    3.692 --    17 N    1.346    20 O    1.165    19 C    1.054
    19   6 C    3.972 --    18 C    1.054    40 H    0.974    39 H    0.961
                            41 H    0.930
    20   8 O    2.245 --    18 C    1.165    14 C    0.906
    21   7 N    3.417 --     7 C    1.156    22 C    1.115    42 H    0.886
                            23 O    0.119
    22   6 C    3.846 --    23 O    1.642    21 N    1.115    24 C    0.951
    23   8 O    1.875 --    22 C    1.642    21 N    0.119
    24   6 C    3.883 --    25 O    1.600     5 C    1.184    22 C    0.951
    25   8 O    1.798 --    24 C    1.600
    26   1 H    1.009 --     1 C    0.980
    27   1 H    1.013 --     1 C    0.986
    28   1 H    1.008 --     1 C    0.979
    29   1 H    1.000 --     9 C    0.983
    30   1 H    1.003 --     9 C    0.980
    31   1 H    0.999 --     9 C    0.984
    32   1 H    1.009 --    10 C    0.983
    33   1 H    1.007 --    10 C    0.981
    34   1 H    1.007 --    10 C    0.985
    35   1 H    0.936 --    11 N    0.887
    36   1 H    0.995 --    15 C    0.981
    37   1 H    0.994 --    15 C    0.980
    38   1 H    1.001 --    15 C    0.978
    39   1 H    0.986 --    19 C    0.961
    40   1 H    0.992 --    19 C    0.974
    41   1 H    0.977 --    19 C    0.930
    42   1 H    0.930 --    21 N    0.886
 ---------------------------------------------------------------------------

           -------------------------------------------------
          | TOTAL ENERGY              -82.948619248686 Eh   |
          | GRADIENT NORM               0.000178975436 Eh/α |
          | HOMO-LUMO GAP               0.100695919877 eV   |
           -------------------------------------------------

 * finished run on 2023/06/21 at 17:27:21.062
