   * xtb version 6.5.1 (579679a) compiled by 'ehlert@majestix' on 2022-07-11
          program call               : /lustre/hpc/kemi/ree/PhD/git/ReactivityQM/dep/xtb-6.5.1/bin/xtb --gfn 1 /lustre/hpc/kemi/ree/PhD/git/ReactivityQM/calculations/R01/reac02prodN08/conf02/R01_reac02prodN08_conf02_gfn1.xyz --opt --vfukui --chrg 1 --uhf 0 --alpb DMSO

   ID    Z sym.   atoms
    1    6 C      1, 3, 5, 6, 8, 9, 12-15
    2    8 O      2, 4, 7, 10
    3    7 N      11, 16, 17
    4    1 H      18-33

      * Solvation model:               ALPB
        Solvent                        DMSO
        Solvent mass                       7.8130E+01 g/mol
          :  Hamiltonian                  GFN1-xTB          :
 * total energy  :   -57.7146959 Eh     change       -0.1068301E-09 Eh
 * total energy  :   -57.7324866 Eh     change       -0.1779072E-01 Eh
 * total energy  :   -57.7438955 Eh     change       -0.1140891E-01 Eh
 * total energy  :   -57.7468745 Eh     change       -0.2979007E-02 Eh
 * total energy  :   -57.7498500 Eh     change       -0.2975425E-02 Eh
 * total energy  :   -57.7513548 Eh     change       -0.1504850E-02 Eh
 * total energy  :   -57.7529144 Eh     change       -0.1559545E-02 Eh
 * total energy  :   -57.7542456 Eh     change       -0.1331241E-02 Eh
 * total energy  :   -57.7552971 Eh     change       -0.1051474E-02 Eh
 * total energy  :   -57.7563685 Eh     change       -0.1071392E-02 Eh
 * total energy  :   -57.8383648 Eh     change       -0.1239605E-03 Eh
 * total energy  :   -57.8384642 Eh     change       -0.9937221E-04 Eh
 * total energy  :   -57.8385364 Eh     change       -0.7225481E-04 Eh
 * total energy  :   -57.8385803 Eh     change       -0.4389151E-04 Eh
 * total energy  :   -57.8386025 Eh     change       -0.2214177E-04 Eh
 * total energy  :   -57.8386134 Eh     change       -0.1094515E-04 Eh
 * total energy  :   -57.8386218 Eh     change       -0.8408069E-05 Eh
 * total energy  :   -57.8386269 Eh     change       -0.5079939E-05 Eh
 * total energy  :   -57.8386301 Eh     change       -0.3196200E-05 Eh
   *** GEOMETRY OPTIMIZATION CONVERGED AFTER 59 ITERATIONS ***

 final structure:
================
33
 xtb: 6.5.1 (579679a)
C            3.68518463163368        2.19598018727733       -1.20124973413897
O            2.47947175919459        1.61351507720828       -0.67635446845081
C            2.51297093262981        0.33245016024776       -0.38807926094930
O            3.46963859755883       -0.38950589950772       -0.53089703648881
C            1.19374750777403       -0.18134902492116        0.14461302008195
C            1.20908034956254       -1.48240205475647        0.92294602715432
O            2.36031610885752       -1.64282431036642        1.69252344562840
C           -0.00305933837690       -1.54365751550162        1.85559921260026
C            1.06152032035638       -2.62649105414349       -0.10872026709414
O           -0.03177152424172       -2.11898436137654        2.91136761500766
N           -1.12452027419578       -0.92042748006953        1.35196789242452
C           -1.11543024050124       -0.03270288764779        0.26557760512702
C           -2.31063754751557        0.76720380948980       -0.09803648498993
C           -3.58936414201956        0.66162397992851        0.69485992274683
C           -2.10849871022745        2.06832650693607       -0.83750832128958
N           -1.98421308602792       -0.43959082184391       -0.90027234251953
N            0.13157765376619        0.43369634510628       -0.19519920561205
H            4.46513692662107        2.17162676735945       -0.43758209443744
H            3.43850909321505        3.22144208257304       -1.46645523099409
H            4.01249893985095        1.63609046849419       -2.07901984049986
H            3.14912366031466       -1.65849435833328        1.12597702343121
H            0.12757091655051       -2.52226676524655       -0.65375377010507
H            1.07490023738665       -3.57770927730222        0.42067664943359
H            1.89598662439613       -2.58768075851977       -0.80634592155071
H           -1.93021360199646       -0.91825604159318        1.95797677367960
H           -3.54289908974002        1.34423899569254        1.54295494986574
H           -4.43141476246717        0.94648798954628        0.06504904071950
H           -3.75320939469419       -0.35023820722828        1.05853902806738
H           -2.92936155531072        2.22865280848252       -1.53469642645120
H           -2.09427726172469        2.88594818305320       -0.11679421020932
H           -1.16645370022213        2.05853914365937       -1.38321419950896
H           -1.59503562789342       -0.31285533360872       -1.82345688943599
H           -2.55687440251607       -1.26038935308885       -0.77299350124396

          :  Hamiltonian                  GFN1-xTB          :
         :: total energy             -57.838630094977 Eh    ::
         :: gradient norm              0.000888267123 Eh/a0 ::
         :: HOMO-LUMO gap              2.770816178372 eV    ::
         :: SCC energy               -58.405087611225 Eh    ::
         :: -> Gsolv                  -0.118442424078 Eh    ::
         :: repulsion energy           0.585721644939 Eh    ::

    * Orbital Energies and Occupations

         #    Occupation            Energy/Eh            Energy/eV
      -------------------------------------------------------------
         1        2.0000           -0.8927059             -24.2918
       ...           ...                  ...                  ...
        35        2.0000           -0.5527121             -15.0401
        36        2.0000           -0.5478418             -14.9075
        37        2.0000           -0.5470460             -14.8859
        38        2.0000           -0.5412363             -14.7278
        39        2.0000           -0.5382652             -14.6469
        40        2.0000           -0.5314034             -14.4602
        41        2.0000           -0.5273823             -14.3508
        42        2.0000           -0.5185573             -14.1107
        43        2.0000           -0.5152102             -14.0196
        44        2.0000           -0.5120476             -13.9335
        45        2.0000           -0.4891086             -13.3093
        46        2.0000           -0.4822648             -13.1231
        47        2.0000           -0.4680671             -12.7368 (HOMO)
        48                         -0.3662415              -9.9659 (LUMO)
        49                         -0.2946076              -8.0167
        50                         -0.2573425              -7.0026
        51                         -0.2021922              -5.5019
        52                         -0.1787281              -4.8634
        53                         -0.1689741              -4.5980
        54                         -0.1586585              -4.3173
        55                         -0.1487089              -4.0466
        56                         -0.1380305              -3.7560
        57                         -0.1261305              -3.4322
        58                         -0.1217144              -3.3120
       ...                                ...                  ...
       100                          0.7163082              19.4917
      -------------------------------------------------------------
                  HL-Gap            0.1018256 Eh            2.7708 eV

Wiberg/Mayer (AO) data.
largest (>0.10) Wiberg bond orders for each atom

     #   Z sym  total        # sym  WBO       # sym  WBO       # sym  WBO
 ---------------------------------------------------------------------------
     1   6 C    3.848 --    19 H    0.985    20 H    0.978    18 H    0.977
                             2 O    0.875
     2   8 O    2.238 --     3 C    1.168     1 C    0.875     4 O    0.148
     3   6 C    3.855 --     4 O    1.667     2 O    1.168     5 C    0.949
     4   8 O    1.964 --     3 C    1.667     2 O    0.148
     5   6 C    3.932 --    17 N    1.797     6 C    0.966     3 C    0.949
     6   6 C    3.935 --     7 O    0.991     5 C    0.966     8 C    0.930
                             9 C    0.927
     7   8 O    1.910 --     6 C    0.991    21 H    0.827
     8   6 C    3.879 --    10 O    1.706    11 N    1.141     6 C    0.930
     9   6 C    3.982 --    22 H    0.986    24 H    0.979    23 H    0.977
                             6 C    0.927
    10   8 O    1.969 --     8 C    1.706    11 N    0.140
    11   7 N    3.289 --     8 C    1.141    12 C    1.019    25 H    0.875
                            10 O    0.140
    12   6 C    3.872 --    17 N    1.028    11 N    1.019    13 C    0.920
                            16 N    0.802
    13   6 C    3.851 --    14 C    1.011    15 C    1.008    12 C    0.920
                            16 N    0.835
    14   6 C    3.979 --    13 C    1.011    28 H    0.978    27 H    0.973
                            26 H    0.972
    15   6 C    3.978 --    13 C    1.008    31 H    0.978    29 H    0.976
                            30 H    0.973
    16   7 N    3.496 --    33 H    0.871    32 H    0.869    13 C    0.835
                            12 C    0.802
    17   7 N    3.052 --     5 C    1.797    12 C    1.028
    18   1 H    1.002 --     1 C    0.977
    19   1 H    1.007 --     1 C    0.985
    20   1 H    1.003 --     1 C    0.978
    21   1 H    0.864 --     7 O    0.827
    22   1 H    0.998 --     9 C    0.986
    23   1 H    0.997 --     9 C    0.977
    24   1 H    1.001 --     9 C    0.979
    25   1 H    0.919 --    11 N    0.875
    26   1 H    0.993 --    14 C    0.972
    27   1 H    0.992 --    14 C    0.973
    28   1 H    0.992 --    14 C    0.978
    29   1 H    0.994 --    15 C    0.976
    30   1 H    0.994 --    15 C    0.973
    31   1 H    1.006 --    15 C    0.978
    32   1 H    0.903 --    16 N    0.869
    33   1 H    0.905 --    16 N    0.871
 ---------------------------------------------------------------------------

           -------------------------------------------------
          | TOTAL ENERGY              -57.838630094977 Eh   |
          | GRADIENT NORM               0.000888267123 Eh/α |
          | HOMO-LUMO GAP               2.770816178372 eV   |
           -------------------------------------------------

 * finished run on 2023/06/20 at 15:08:37.886
