                         Program Version 5.0.1 -  RELEASE  -
|  1> # ORCA input file
|  2> ! SP r2SCAN-3c CPCM
|  3>
|  4> %maxcore 1875.0
|  5> %pal nprocs 4 end
|  6> %cpcm smd true SMDsolvent "DMSO" end
|  7>
|  8> *xyz -1 1
|  9> C      -5.151278   -2.874921    1.926377
| 10> O      -4.033756   -2.134502    1.462043
| 11> C      -4.325963   -1.094235    0.607945
| 12> O      -5.491163   -0.856897    0.309963
| 13> C      -3.153578   -0.395822    0.159861
| 14> C      -3.180258    0.694358   -0.724665
| 15> O      -4.151853    1.342773   -1.147192
| 16> C      -1.783015    1.120170   -1.260917
| 17> C      -1.345168    0.165208   -2.386011
| 18> O      -1.892587    2.422338   -1.763385
| 19> N      -0.758292    1.060695   -0.198870
| 20> C      -0.768171    2.231592    0.694604
| 21> C      -0.855646   -0.180735    0.510756
| 22> C       0.430635   -0.742542    1.103499
| 23> C       0.529575   -2.234636    0.749922
| 24> C       0.433919   -0.560168    2.628617
| 25> N       1.554093   -0.025002    0.500642
| 26> C       2.845992   -0.270233    0.753089
| 27> O       3.283148   -1.060591    1.576277
| 28> C       3.721960    0.562296   -0.121432
| 29> N       3.320558    1.417235   -1.012720
| 30> N       4.440589    1.931990   -1.597650
| 31> C       5.452541    1.355411   -1.026720
| 32> C       6.889084    1.564755   -1.312425
| 33> O       5.065538    0.480484   -0.085724
| 34> N      -1.919265   -0.868773    0.632765
| 35> H      -5.668385   -3.366598    1.094781
| 36> H      -4.772080   -3.628432    2.616535
| 37> H      -5.863158   -2.225386    2.447545
| 38> H      -2.856287    2.616424   -1.769120
| 39> H      -1.278294   -0.856744   -2.017828
| 40> H      -2.068406    0.211507   -3.198059
| 41> H      -0.370202    0.474987   -2.759547
| 42> H       0.029831    2.116863    1.426497
| 43> H      -1.726182    2.337548    1.215677
| 44> H      -0.576157    3.126852    0.104240
| 45> H      -0.369387   -2.741623    1.099279
| 46> H       0.605383   -2.355440   -0.330251
| 47> H       1.401893   -2.684123    1.221142
| 48> H       0.461724    0.497557    2.884901
| 49> H      -0.475134   -0.999787    3.037564
| 50> H       1.298744   -1.051796    3.071243
| 51> H       1.317977    0.638755   -0.231985
| 52> H       7.000625    2.315146   -2.090878
| 53> H       7.405788    1.894008   -0.411413
| 54> H       7.344073    0.630033   -1.639245
| 55> **                         ****END OF INPUT****

CARTESIAN COORDINATES (ANGSTROEM)
---------------------------------
  C     -5.151278   -2.874921    1.926377
  O     -4.033756   -2.134502    1.462043
  C     -4.325963   -1.094235    0.607945
  O     -5.491163   -0.856897    0.309963
  C     -3.153578   -0.395822    0.159861
  C     -3.180258    0.694358   -0.724665
  O     -4.151853    1.342773   -1.147192
  C     -1.783015    1.120170   -1.260917
  C     -1.345168    0.165208   -2.386011
  O     -1.892587    2.422338   -1.763385
  N     -0.758292    1.060695   -0.198870
  C     -0.768171    2.231592    0.694604
  C     -0.855646   -0.180735    0.510756
  C      0.430635   -0.742542    1.103499
  C      0.529575   -2.234636    0.749922
  C      0.433919   -0.560168    2.628617
  N      1.554093   -0.025002    0.500642
  C      2.845992   -0.270233    0.753089
  O      3.283148   -1.060591    1.576277
  C      3.721960    0.562296   -0.121432
  N      3.320558    1.417235   -1.012720
  N      4.440589    1.931990   -1.597650
  C      5.452541    1.355411   -1.026720
  C      6.889084    1.564755   -1.312425
  O      5.065538    0.480484   -0.085724
  N     -1.919265   -0.868773    0.632765
  H     -5.668385   -3.366598    1.094781
  H     -4.772080   -3.628432    2.616535
  H     -5.863158   -2.225386    2.447545
  H     -2.856287    2.616424   -1.769120
  H     -1.278294   -0.856744   -2.017828
  H     -2.068406    0.211507   -3.198059
  H     -0.370202    0.474987   -2.759547
  H      0.029831    2.116863    1.426497
  H     -1.726182    2.337548    1.215677
  H     -0.576157    3.126852    0.104240
  H     -0.369387   -2.741623    1.099279
  H      0.605383   -2.355440   -0.330251
  H      1.401893   -2.684123    1.221142
  H      0.461724    0.497557    2.884901
  H     -0.475134   -0.999787    3.037564
  H      1.298744   -1.051796    3.071243
  H      1.317977    0.638755   -0.231985
  H      7.000625    2.315146   -2.090878
  H      7.405788    1.894008   -0.411413
  H      7.344073    0.630033   -1.639245

 Total Charge           Charge          ....   -1
 Multiplicity           Mult            ....    1
 Number of Electrons    NEL             ....  194
 Basis Dimension        Dim             ....  649

ORBITAL ENERGIES
----------------

  NO   OCC          E(Eh)            E(eV)
   0   2.0000     -19.060339      -518.6582
   1   2.0000     -18.960136      -515.9315
   2   2.0000     -18.935652      -515.2653
   3   2.0000     -18.924464      -514.9608
   4   2.0000     -18.896994      -514.2133
   5   2.0000     -18.894313      -514.1404
   6   2.0000     -14.200535      -386.4162
   7   2.0000     -14.193635      -386.2285
   8   2.0000     -14.182716      -385.9313
   9   2.0000     -14.162448      -385.3798
  10   2.0000     -14.132648      -384.5689
  11   2.0000     -10.146344      -276.0961
  12   2.0000     -10.142366      -275.9878
  13   2.0000     -10.138205      -275.8746
  14   2.0000     -10.116310      -275.2788
  15   2.0000     -10.100982      -274.8617
  16   2.0000     -10.082178      -274.3500
  17   2.0000     -10.073656      -274.1181
  18   2.0000     -10.069675      -274.0098
  19   2.0000     -10.058408      -273.7032
  20   2.0000     -10.042964      -273.2830
  21   2.0000     -10.040189      -273.2074
  22   2.0000     -10.020251      -272.6649
  23   2.0000     -10.010653      -272.4037
  24   2.0000     -10.008238      -272.3380
  25   2.0000     -10.007110      -272.3073
  26   2.0000      -1.150119       -31.2963
  27   2.0000      -1.028119       -27.9765
  28   2.0000      -1.012183       -27.5429
  29   2.0000      -0.997505       -27.1435
  30   2.0000      -0.970792       -26.4166
  31   2.0000      -0.948200       -25.8018
  32   2.0000      -0.935841       -25.4655
  33   2.0000      -0.923786       -25.1375
  34   2.0000      -0.893475       -24.3127
  35   2.0000      -0.836999       -22.7759
  36   2.0000      -0.826807       -22.4986
  37   2.0000      -0.758425       -20.6378
  38   2.0000      -0.713400       -19.4126
  39   2.0000      -0.706604       -19.2277
  40   2.0000      -0.694543       -18.8995
  41   2.0000      -0.657071       -17.8798
  42   2.0000      -0.653048       -17.7703
  43   2.0000      -0.647521       -17.6199
  44   2.0000      -0.631461       -17.1829
  45   2.0000      -0.616065       -16.7640
  46   2.0000      -0.588734       -16.0203
  47   2.0000      -0.572990       -15.5918
  48   2.0000      -0.557611       -15.1734
  49   2.0000      -0.535367       -14.5681
  50   2.0000      -0.526410       -14.3243
  51   2.0000      -0.500735       -13.6257
  52   2.0000      -0.492465       -13.4007
  53   2.0000      -0.489588       -13.3224
  54   2.0000      -0.461710       -12.5638
  55   2.0000      -0.453606       -12.3432
  56   2.0000      -0.445244       -12.1157
  57   2.0000      -0.441394       -12.0109
  58   2.0000      -0.423369       -11.5205
  59   2.0000      -0.418930       -11.3997
  60   2.0000      -0.412822       -11.2335
  61   2.0000      -0.410631       -11.1738
  62   2.0000      -0.403177       -10.9710
  63   2.0000      -0.400454       -10.8969
  64   2.0000      -0.397794       -10.8245
  65   2.0000      -0.390447       -10.6246
  66   2.0000      -0.389293       -10.5932
  67   2.0000      -0.378125       -10.2893
  68   2.0000      -0.377322       -10.2674
  69   2.0000      -0.374014       -10.1774
  70   2.0000      -0.365153        -9.9363
  71   2.0000      -0.362116        -9.8537
  72   2.0000      -0.360697        -9.8151
  73   2.0000      -0.355471        -9.6729
  74   2.0000      -0.345476        -9.4009
  75   2.0000      -0.340657        -9.2698
  76   2.0000      -0.339691        -9.2435
  77   2.0000      -0.337599        -9.1865
  78   2.0000      -0.332410        -9.0453
  79   2.0000      -0.315825        -8.5940
  80   2.0000      -0.314230        -8.5506
  81   2.0000      -0.311657        -8.4806
  82   2.0000      -0.305243        -8.3061
  83   2.0000      -0.303866        -8.2686
  84   2.0000      -0.295274        -8.0348
  85   2.0000      -0.283267        -7.7081
  86   2.0000      -0.265350        -7.2205
  87   2.0000      -0.260330        -7.0839
  88   2.0000      -0.241619        -6.5748
  89   2.0000      -0.240063        -6.5324
  90   2.0000      -0.235138        -6.3984
  91   2.0000      -0.231666        -6.3040
  92   2.0000      -0.229639        -6.2488
  93   2.0000      -0.226380        -6.1601
  94   2.0000      -0.211196        -5.7469
  95   2.0000      -0.173111        -4.7106
  96   2.0000      -0.147930        -4.0254
  97   0.0000      -0.078549        -2.1374
  98   0.0000      -0.026383        -0.7179
  99   0.0000      -0.016491        -0.4487
 100   0.0000      -0.005013        -0.1364
 101   0.0000       0.054472         1.4823

MULLIKEN ATOMIC CHARGES
-----------------------
   0 C :   -0.327716
   1 O :   -0.198928
   2 C :    0.084599
   3 O :   -0.423173
   4 C :   -0.100558
   5 C :   -0.113070
   6 O :   -0.426962
   7 C :    0.289977
   8 C :   -0.598152
   9 O :   -0.417232
  10 N :   -0.108307
  11 C :   -0.410706
  12 C :    0.342695
  13 C :   -0.127580
  14 C :   -0.652621
  15 C :   -0.631753
  16 N :    0.002940
  17 C :   -0.109138
  18 O :   -0.457912
  19 C :    0.367117
  20 N :   -0.142482
  21 N :   -0.321516
  22 C :    0.410801
  23 C :   -0.640554
  24 O :   -0.029186
  25 N :   -0.168254
  26 H :    0.159130
  27 H :    0.159820
  28 H :    0.160256
  29 H :    0.325949
  30 H :    0.180888
  31 H :    0.170351
  32 H :    0.177080
  33 H :    0.174214
  34 H :    0.171616
  35 H :    0.183531
  36 H :    0.187201
  37 H :    0.180220
  38 H :    0.187903
  39 H :    0.184583
  40 H :    0.185166
  41 H :    0.190196
  42 H :    0.326712
  43 H :    0.203735
  44 H :    0.199166
  45 H :    0.199956
Sum of atomic charges:   -1.0000000

LOEWDIN ATOMIC CHARGES
----------------------
   0 C :   -0.060212
   1 O :   -0.629154
   2 C :    0.379581
   3 O :   -0.495835
   4 C :    0.074593
   5 C :    0.249266
   6 O :   -0.578879
   7 C :    0.273636
   8 C :   -0.340293
   9 O :   -0.534357
  10 N :   -0.802435
  11 C :   -0.116538
  12 C :    0.311056
  13 C :    0.106544
  14 C :   -0.352166
  15 C :   -0.354932
  16 N :   -0.588655
  17 C :    0.375600
  18 O :   -0.469506
  19 C :    0.420468
  20 N :   -0.365403
  21 N :   -0.364322
  22 C :    0.373822
  23 C :   -0.318446
  24 O :   -0.362741
  25 N :   -0.604017
  26 H :    0.169619
  27 H :    0.175303
  28 H :    0.170983
  29 H :    0.297604
  30 H :    0.172659
  31 H :    0.167634
  32 H :    0.168802
  33 H :    0.184145
  34 H :    0.170877
  35 H :    0.189100
  36 H :    0.175546
  37 H :    0.169055
  38 H :    0.170096
  39 H :    0.168132
  40 H :    0.169436
  41 H :    0.172970
  42 H :    0.309601
  43 H :    0.190336
  44 H :    0.190524
  45 H :    0.190903

  Mayer bond orders larger than 0.100000
B(  0-C ,  1-O ) :   0.8545 B(  0-C , 26-H ) :   0.9643 B(  0-C , 27-H ) :   0.9689
B(  0-C , 28-H ) :   0.9661 B(  1-O ,  2-C ) :   1.0387 B(  2-C ,  3-O ) :   1.8913
B(  2-C ,  4-C ) :   1.1298 B(  4-C ,  5-C ) :   1.1377 B(  4-C ,  6-O ) :  -0.1467
B(  4-C , 25-N ) :   0.9137 B(  5-C ,  6-O ) :   1.9675 B(  5-C ,  7-C ) :   0.7820
B(  6-O , 29-H ) :   0.1017 B(  7-C ,  8-C ) :   0.9335 B(  7-C ,  9-O ) :   1.0555
B(  7-C , 10-N ) :   0.8250 B(  8-C , 30-H ) :   0.9620 B(  8-C , 31-H ) :   0.9675
B(  8-C , 32-H ) :   0.9656 B(  9-O , 29-H ) :   0.7989 B( 10-N , 11-C ) :   0.8609
B( 10-N , 12-C ) :   0.9885 B( 11-C , 33-H ) :   0.9478 B( 11-C , 34-H ) :   0.9524
B( 11-C , 35-H ) :   0.9645 B( 12-C , 13-C ) :   0.8367 B( 12-C , 16-N ) :  -0.1557
B( 12-C , 25-N ) :   1.6649 B( 13-C , 14-C ) :   0.8804 B( 13-C , 15-C ) :   0.8932
B( 13-C , 16-N ) :   0.9521 B( 14-C , 36-H ) :   0.9650 B( 14-C , 37-H ) :   0.9762
B( 14-C , 38-H ) :   0.9712 B( 15-C , 39-H ) :   0.9723 B( 15-C , 40-H ) :   0.9709
B( 15-C , 41-H ) :   0.9659 B( 16-N , 17-C ) :   1.1856 B( 16-N , 42-H ) :   0.8328
B( 17-C , 18-O ) :   1.9026 B( 17-C , 19-C ) :   0.8570 B( 19-C , 20-N ) :   1.6678
B( 19-C , 24-O ) :   1.1253 B( 20-N , 21-N ) :   1.1881 B( 21-N , 22-C ) :   1.6127
B( 22-C , 23-C ) :   0.8329 B( 22-C , 24-O ) :   1.0722 B( 23-C , 43-H ) :   0.9896
B( 23-C , 44-H ) :   0.9438 B( 23-C , 45-H ) :   0.9424

Dispersion correction           -0.021773000
FINAL SINGLE POINT ENERGY     -1308.655490026334

DIPOLE MOMENT
-------------
                                X             Y             Z
Electronic contribution:      4.49097       4.91342      -3.85502
Nuclear contribution   :      1.99891      -4.97050       4.60476
                        -----------------------------------------
Total Dipole Moment    :      6.48988      -0.05709       0.74974
                        -----------------------------------------
Magnitude (a.u.)       :      6.53329
Magnitude (Debye)      :     16.60631

Rotational constants in cm-1:     0.014463     0.003470     0.002979
Rotational constants in MHz :   433.588142   104.039649    89.322651

                             ****ORCA TERMINATED NORMALLY****
TOTAL RUN TIME: 0 days 0 hours 1 minutes 44 seconds 266 msec
