   * xtb version 6.5.1 (579679a) compiled by 'ehlert@majestix' on 2022-07-11
          program call               : /lustre/hpc/kemi/ree/PhD/git/ReactivityQM/dep/xtb-6.5.1/bin/xtb --gfn 1 /lustre/hpc/kemi/ree/PhD/git/ReactivityQM/calculations/R03/reac02prodE12/conf09/R03_reac02prodE12_conf09_gfn1.xyz --opt --vfukui --chrg -1 --uhf 0 --alpb DMSO

   ID    Z sym.   atoms
    1    6 C      1, 3, 5, 6, 8, 9, 12-16, 18, 20, 23, 24
    2    8 O      2, 4, 7, 10, 19, 25
    3    7 N      11, 17, 21, 22, 26
    4    1 H      27-46

      * Solvation model:               ALPB
        Solvent                        DMSO
        Solvent mass                       7.8130E+01 g/mol
          :  Hamiltonian                  GFN1-xTB          :
 * total energy  :   -87.0267478 Eh     change       -0.1683986E-10 Eh
 * total energy  :   -87.0391337 Eh     change       -0.1238593E-01 Eh
 * total energy  :   -87.0442280 Eh     change       -0.5094289E-02 Eh
 * total energy  :   -87.0455979 Eh     change       -0.1369894E-02 Eh
 * total energy  :   -87.0469062 Eh     change       -0.1308320E-02 Eh
 * total energy  :   -87.0481870 Eh     change       -0.1280775E-02 Eh
 * total energy  :   -87.0508227 Eh     change       -0.2635673E-02 Eh
 * total energy  :   -87.0516151 Eh     change       -0.7924013E-03 Eh
 * total energy  :   -87.0531738 Eh     change       -0.1558695E-02 Eh
 * total energy  :   -87.0577751 Eh     change       -0.4601366E-02 Eh
 * total energy  :   -87.0738871 Eh     change       -0.8453169E-05 Eh
 * total energy  :   -87.0738953 Eh     change       -0.8121059E-05 Eh
 * total energy  :   -87.0739038 Eh     change       -0.8500272E-05 Eh
 * total energy  :   -87.0739131 Eh     change       -0.9388574E-05 Eh
 * total energy  :   -87.0739232 Eh     change       -0.1004963E-04 Eh
 * total energy  :   -87.0739331 Eh     change       -0.9920293E-05 Eh
 * total energy  :   -87.0739423 Eh     change       -0.9175986E-05 Eh
 * total energy  :   -87.0739503 Eh     change       -0.8007197E-05 Eh
 * total energy  :   -87.0739531 Eh     change       -0.2835949E-05 Eh
   *** GEOMETRY OPTIMIZATION CONVERGED AFTER 68 ITERATIONS ***

 final structure:
================
46
 xtb: 6.5.1 (579679a)
C           -5.15127818970712       -2.87492086989849        1.92637654226701
O           -4.03375647323218       -2.13450211128408        1.46204327311666
C           -4.32596307821531       -1.09423507435869        0.60794499105302
O           -5.49116291242893       -0.85689716731989        0.30996337311704
C           -3.15357777213147       -0.39582226932530        0.15986106286476
C           -3.18025829497336        0.69435836928683       -0.72466499755201
O           -4.15185297077829        1.34277306465093       -1.14719157248061
C           -1.78301516003204        1.12016969223795       -1.26091698443380
C           -1.34516810143306        0.16520847194490       -2.38601093458281
O           -1.89258676879109        2.42233765716970       -1.76338491935527
N           -0.75829231740498        1.06069529458067       -0.19886967866787
C           -0.76817118547883        2.23159163558685        0.69460385346807
C           -0.85564579037853       -0.18073454786824        0.51075644709167
C            0.43063495228302       -0.74254236355470        1.10349869448672
C            0.52957538618696       -2.23463569643604        0.74992189794272
C            0.43391914707764       -0.56016817816194        2.62861726706731
N            1.55409304447033       -0.02500238381627        0.50064226062985
C            2.84599151254853       -0.27023325944110        0.75308867160488
O            3.28314834719015       -1.06059126800576        1.57627673413041
C            3.72196040036107        0.56229634080141       -0.12143183025673
N            3.32055787406647        1.41723540408221       -1.01272045349344
N            4.44058913915383        1.93198983551345       -1.59764986331173
C            5.45254081141682        1.35541055010841       -1.02672029749791
C            6.88908370342105        1.56475464247314       -1.31242470085038
O            5.06553781338753        0.48048427914942       -0.08572436818071
N           -1.91926486424186       -0.86877308835480        0.63276479677785
H           -5.66838454147792       -3.36659776886305        1.09478072281818
H           -4.77208006368774       -3.62843170244612        2.61653503668113
H           -5.86315830176906       -2.22538619510079        2.44754454852586
H           -2.85628718117435        2.61642449110716       -1.76911960282456
H           -1.27829416912800       -0.85674429421195       -2.01782788210512
H           -2.06840615912992        0.21150729493133       -3.19805943766881
H           -0.37020161782822        0.47498681034414       -2.75954688834297
H            0.02983096832805        2.11686281389904        1.42649749476308
H           -1.72618184639208        2.33754767505058        1.21567704941503
H           -0.57615710398517        3.12685245131897        0.10424020396976
H           -0.36938706633518       -2.74162272752446        1.09927948814246
H            0.60538299838864       -2.35544003994245       -0.33025058008089
H            1.40189326747095       -2.68412347489012        1.22114206228094
H            0.46172424633998        0.49755744329981        2.88490149580799
H           -0.47513362558012       -0.99978656474181        3.03756378747432
H            1.29874407505621       -1.05179607656630        3.07124281397589
H            1.31797690466239        0.63875482676472       -0.23198457261951
H            7.00062469134030        2.31514585630301       -2.09087801058347
H            7.40578848735719        1.89400754617191       -0.41141290252977
H            7.34407278520226        0.63003267532658       -1.63924509205658

          :  Hamiltonian                  GFN1-xTB          :
         :: total energy             -87.073953138219 Eh    ::
         :: gradient norm              0.000188681152 Eh/a0 ::
         :: HOMO-LUMO gap              1.415357130105 eV    ::
         :: SCC energy               -87.866357382263 Eh    ::
         :: -> Gsolv                  -0.109420805317 Eh    ::
         :: repulsion energy           0.822553256030 Eh    ::

    * Orbital Energies and Occupations

         #    Occupation            Energy/Eh            Energy/eV
      -------------------------------------------------------------
         1        2.0000           -0.8584339             -23.3592
       ...           ...                  ...                  ...
        59        2.0000           -0.4752338             -12.9318
        60        2.0000           -0.4624395             -12.5836
        61        2.0000           -0.4570592             -12.4372
        62        2.0000           -0.4563385             -12.4176
        63        2.0000           -0.4530634             -12.3285
        64        2.0000           -0.4451343             -12.1127
        65        2.0000           -0.4419495             -12.0261
        66        2.0000           -0.4336430             -11.8000
        67        2.0000           -0.4287013             -11.6656
        68        2.0000           -0.4172532             -11.3540
        69        2.0000           -0.4055889             -11.0366
        70        2.0000           -0.3720516             -10.1240
        71        2.0000           -0.3531632              -9.6101 (HOMO)
        72                         -0.3011498              -8.1947 (LUMO)
        73                         -0.2524794              -6.8703
        74                         -0.2448201              -6.6619
        75                         -0.2297865              -6.2528
        76                         -0.1896145              -5.1597
        77                         -0.1412043              -3.8424
        78                         -0.1240200              -3.3748
        79                         -0.1189454              -3.2367
        80                         -0.1183846              -3.2214
        81                         -0.1112302              -3.0267
        82                         -0.1061913              -2.8896
       ...                                ...                  ...
       144                          0.7455023              20.2862
      -------------------------------------------------------------
                  HL-Gap            0.0520134 Eh            1.4154 eV

Wiberg/Mayer (AO) data.
largest (>0.10) Wiberg bond orders for each atom

     #   Z sym  total        # sym  WBO       # sym  WBO       # sym  WBO
 ---------------------------------------------------------------------------
     1   6 C    3.905 --    28 H    0.987    27 H    0.981    29 H    0.981
                             2 O    0.933
     2   8 O    2.122 --     3 C    1.004     1 C    0.933     4 O    0.101
     3   6 C    3.856 --     4 O    1.562     5 C    1.169     2 O    1.004
     4   8 O    1.849 --     3 C    1.562     2 O    0.101
     5   6 C    3.884 --     6 C    1.304     3 C    1.169    26 N    1.078
                             7 O    0.113
     6   6 C    3.921 --     7 O    1.534     5 C    1.304     8 C    0.907
     7   8 O    1.877 --     6 C    1.534     5 C    0.113
     8   6 C    3.887 --     9 C    0.976    10 O    0.972    11 N    0.931
                             6 C    0.907
     9   6 C    3.996 --    32 H    0.986    31 H    0.986    33 H    0.985
                             8 C    0.976
    10   8 O    1.909 --     8 C    0.972    30 H    0.822
    11   7 N    3.124 --    13 C    0.999    12 C    0.947     8 C    0.931
    12   6 C    3.965 --    34 H    0.985    36 H    0.985    35 H    0.985
                            11 N    0.947
    13   6 C    3.949 --    26 N    1.741    11 N    0.999    14 C    0.973
    14   6 C    3.928 --    15 C    0.984    16 C    0.982    13 C    0.973
                            17 N    0.920
    15   6 C    3.993 --    38 H    0.986    14 C    0.984    39 H    0.984
                            37 H    0.983
    16   6 C    3.993 --    41 H    0.986    40 H    0.983    14 C    0.982
                            42 H    0.982
    17   7 N    3.377 --    18 C    1.289    14 C    0.920    43 H    0.883
                            19 O    0.185
    18   6 C    3.923 --    19 O    1.572    17 N    1.289    20 C    0.981
    19   8 O    1.891 --    18 C    1.572    17 N    0.185
    20   6 C    3.870 --    21 N    1.617    25 O    1.062    18 C    0.981
    21   7 N    3.013 --    20 C    1.617    22 N    1.193
    22   7 N    2.980 --    23 C    1.613    21 N    1.193
    23   6 C    3.873 --    22 N    1.613    25 O    1.081    24 C    1.030
    24   6 C    3.987 --    23 C    1.030    44 H    0.983    45 H    0.965
                            46 H    0.964
    25   8 O    2.326 --    23 C    1.081    20 C    1.062
    26   7 N    3.042 --    13 C    1.741     5 C    1.078
    27   1 H    1.015 --     1 C    0.981
    28   1 H    1.017 --     1 C    0.987
    29   1 H    1.016 --     1 C    0.981
    30   1 H    0.888 --    10 O    0.822
    31   1 H    1.009 --     9 C    0.986
    32   1 H    1.008 --     9 C    0.986
    33   1 H    1.012 --     9 C    0.985
    34   1 H    1.015 --    12 C    0.985
    35   1 H    1.003 --    12 C    0.985
    36   1 H    1.023 --    12 C    0.985
    37   1 H    1.019 --    15 C    0.983
    38   1 H    1.007 --    15 C    0.986
    39   1 H    1.010 --    15 C    0.984
    40   1 H    1.009 --    16 C    0.983
    41   1 H    1.009 --    16 C    0.986
    42   1 H    1.012 --    16 C    0.982
    43   1 H    0.977 --    17 N    0.883
    44   1 H    0.999 --    24 C    0.983
    45   1 H    0.997 --    24 C    0.965
    46   1 H    0.997 --    24 C    0.964
 ---------------------------------------------------------------------------

           -------------------------------------------------
          | TOTAL ENERGY              -87.073953138219 Eh   |
          | GRADIENT NORM               0.000188681152 Eh/α |
          | HOMO-LUMO GAP               1.415357130105 eV   |
           -------------------------------------------------

 * finished run on 2023/06/20 at 15:32:41.704
