   * xtb version 6.5.1 (579679a) compiled by 'ehlert@majestix' on 2022-07-11
          program call               : /lustre/hpc/kemi/ree/PhD/git/ReactivityQM/dep/xtb-6.5.1/bin/xtb --gfn 1 /lustre/hpc/kemi/ree/PhD/git/ReactivityQM/calculations/R02deprot/reac01prodN11/conf18/R02deprot_reac01prodN11_conf18_gfn1.xyz --opt --vfukui --chrg 0 --uhf 0 --alpb DMSO

   ID    Z sym.   atoms
    1    6 C      1, 3, 5, 6, 8, 11-15, 17, 19, 22, 23
    2    8 O      2, 4, 7, 9, 18, 24
    3    7 N      10, 16, 20, 21, 25
    4    1 H      26-42

      * Solvation model:               ALPB
        Solvent                        DMSO
        Solvent mass                       7.8130E+01 g/mol
          :  Hamiltonian                  GFN1-xTB          :
 * total energy  :   -82.9204408 Eh     change       -0.6693313E-11 Eh
 * total energy  :   -82.9327712 Eh     change       -0.1233037E-01 Eh
 * total energy  :   -82.9378943 Eh     change       -0.5123145E-02 Eh
 * total energy  :   -82.9390100 Eh     change       -0.1115683E-02 Eh
 * total energy  :   -82.9396402 Eh     change       -0.6301757E-03 Eh
 * total energy  :   -82.9399317 Eh     change       -0.2915786E-03 Eh
 * total energy  :   -82.9401596 Eh     change       -0.2278640E-03 Eh
 * total energy  :   -82.9403562 Eh     change       -0.1965591E-03 Eh
 * total energy  :   -82.9405494 Eh     change       -0.1931958E-03 Eh
 * total energy  :   -82.9407527 Eh     change       -0.2033145E-03 Eh
 * total energy  :   -82.9711465 Eh     change       -0.9959259E-05 Eh
 * total energy  :   -82.9711524 Eh     change       -0.5880683E-05 Eh
 * total energy  :   -82.9711584 Eh     change       -0.6018791E-05 Eh
 * total energy  :   -82.9711659 Eh     change       -0.7485905E-05 Eh
 * total energy  :   -82.9711722 Eh     change       -0.6316363E-05 Eh
 * total energy  :   -82.9711798 Eh     change       -0.7645315E-05 Eh
 * total energy  :   -82.9711902 Eh     change       -0.1037212E-04 Eh
 * total energy  :   -82.9711956 Eh     change       -0.5413825E-05 Eh
 * total energy  :   -82.9711993 Eh     change       -0.3729123E-05 Eh
   *** GEOMETRY OPTIMIZATION CONVERGED AFTER 50 ITERATIONS ***

 final structure:
================
42
 xtb: 6.5.1 (579679a)
C           -6.59643831151547        1.08005078891838        0.47179223948342
O           -5.26512781672658        1.26498185587682       -0.02536478570747
C           -4.42041721739690        0.26583820837137        0.14856657984812
O           -4.69660041091915       -0.77332790998693        0.69521595690419
C           -3.04067893537906        0.54652559938556       -0.41414757793436
C           -2.68025787161057        1.80504816617225       -1.10146243515533
O           -3.42418098417149        2.71718995380117       -1.39245134883786
C           -1.22295407007193        1.89585944539935       -1.42615090249319
O           -0.82102314480570        3.06247633397014       -1.92623094320556
N           -0.39164625096956        0.94744408616331       -1.24952723315214
C           -0.84172216718984       -0.31395402188219       -0.72815578837560
C           -0.75780441289449       -1.33274207824174       -1.88095335973368
C            0.10853002109411       -0.69552402966869        0.45424747020842
C           -0.07933594806401        0.31084966304851        1.59533301845026
C           -0.16058680048551       -2.12067875749984        0.93693693069181
N            1.46227488615006       -0.56831878746729       -0.08184689889316
C            2.57519877114919       -0.91634010404944        0.59787991737877
O            2.60808202331545       -1.52414587671316        1.65258146729155
C            3.79368865751558       -0.47663188818492       -0.13255115698987
N            3.82251518827633        0.18497701674958       -1.25024733230254
N            5.13549017613143        0.38650882692244       -1.55394116132992
C            5.82425155033000       -0.16401889099738       -0.60045812942994
C            7.29629079335759       -0.21120186420217       -0.46197330937049
O            5.03404792536466       -0.72478405661357        0.32667185695907
N           -2.18267763924771       -0.38633260916727       -0.24103089106610
H           -7.14885964419820        1.98238133213083        0.21969582898657
H           -6.57190876318293        0.93592119646301        1.55394387020525
H           -7.05159628949357        0.20726247355218       -0.00091070416498
H           -1.58470621583135        3.65880509509101       -2.02014348771873
H           -1.20174036883456       -2.27816977696707       -1.57969295167004
H            0.28298168741999       -1.48369833439529       -2.15741302481028
H           -1.30499224983315       -0.93834752715229       -2.73454508350019
H           -1.09332291307506        0.23903134774569        1.98515823405306
H            0.09455952543216        1.32413503072266        1.23691071618167
H            0.62628774205847        0.09149832824148        2.39517380913465
H            0.33824677515380       -2.29295255063377        1.88900290392974
H            0.20741402651165       -2.84934279604890        0.21723951018994
H           -1.23233510661212       -2.25888417087712        1.07226063334730
H            1.56865190133861        0.07574127889094       -0.85790781650867
H            7.76048199999948        0.23346934867232       -1.33878820829239
H            7.62835330413392       -1.24335394504153       -0.35397042722383
H            7.60356557779287        0.33675459949569        0.42909801461152

          :  Hamiltonian                  GFN1-xTB          :
         :: total energy             -82.971199338969 Eh    ::
         :: gradient norm              0.000643000436 Eh/a0 ::
         :: HOMO-LUMO gap              1.502398963523 eV    ::
         :: SCC energy               -83.745320154586 Eh    ::
         :: -> Gsolv                  -0.048175972268 Eh    ::
         :: repulsion energy           0.801034285941 Eh    ::

    * Orbital Energies and Occupations

         #    Occupation            Energy/Eh            Energy/eV
      -------------------------------------------------------------
         1        2.0000           -0.8650173             -23.5383
       ...           ...                  ...                  ...
        55        2.0000           -0.5070483             -13.7975
        56        2.0000           -0.5036323             -13.7045
        57        2.0000           -0.5017577             -13.6535
        58        2.0000           -0.4987459             -13.5716
        59        2.0000           -0.4909569             -13.3596
        60        2.0000           -0.4894254             -13.3179
        61        2.0000           -0.4838572             -13.1664
        62        2.0000           -0.4712374             -12.8230
        63        2.0000           -0.4650058             -12.6535
        64        2.0000           -0.4607049             -12.5364
        65        2.0000           -0.4533812             -12.3371
        66        2.0000           -0.4467255             -12.1560
        67        2.0000           -0.4276956             -11.6382 (HOMO)
        68                         -0.3724835             -10.1358 (LUMO)
        69                         -0.3212841              -8.7426
        70                         -0.3118371              -8.4855
        71                         -0.2583763              -7.0308
        72                         -0.2484771              -6.7614
        73                         -0.2002764              -5.4498
        74                         -0.1894976              -5.1565
        75                         -0.1436564              -3.9091
        76                         -0.1398542              -3.8056
        77                         -0.1367236              -3.7204
        78                         -0.1228398              -3.3426
       ...                                ...                  ...
       134                          0.7431188              20.2213
      -------------------------------------------------------------
                  HL-Gap            0.0552121 Eh            1.5024 eV

Wiberg/Mayer (AO) data.
largest (>0.10) Wiberg bond orders for each atom

     #   Z sym  total        # sym  WBO       # sym  WBO       # sym  WBO
 ---------------------------------------------------------------------------
     1   6 C    3.861 --    26 H    0.985    28 H    0.979    27 H    0.978
                             2 O    0.887
     2   8 O    2.227 --     3 C    1.147     1 C    0.887     4 O    0.145
     3   6 C    3.853 --     4 O    1.678     2 O    1.147     5 C    0.951
     4   8 O    1.942 --     3 C    1.678     2 O    0.145
     5   6 C    3.956 --    25 N    1.757     6 C    1.022     3 C    0.951
     6   6 C    3.881 --     7 O    1.730     5 C    1.022     8 C    0.973
     7   8 O    1.998 --     6 C    1.730
     8   6 C    3.903 --    10 N    1.690     9 O    1.112     6 C    0.973
     9   8 O    2.091 --     8 C    1.112    29 H    0.805    10 N    0.120
    10   7 N    3.049 --     8 C    1.690    11 C    0.991     9 O    0.120
    11   6 C    3.932 --    25 N    1.002    10 N    0.991    12 C    0.932
                            13 C    0.909
    12   6 C    3.984 --    32 H    0.983    30 H    0.983    31 H    0.981
                            11 C    0.932
    13   6 C    3.931 --    15 C    1.000    14 C    0.990    16 N    0.932
                            11 C    0.909
    14   6 C    3.991 --    13 C    0.990    34 H    0.984    33 H    0.984
                            35 H    0.982
    15   6 C    3.990 --    13 C    1.000    37 H    0.983    38 H    0.983
                            36 H    0.976
    16   7 N    3.345 --    17 C    1.249    13 C    0.932    39 H    0.886
                            18 O    0.175
    17   6 C    3.917 --    18 O    1.597    16 N    1.249    19 C    0.987
    18   8 O    1.910 --    17 C    1.597    16 N    0.175
    19   6 C    3.874 --    20 N    1.611    24 O    1.064    17 C    0.987
    20   7 N    3.015 --    19 C    1.611    21 N    1.199
    21   7 N    2.980 --    22 C    1.605    20 N    1.199
    22   6 C    3.871 --    21 N    1.605    24 O    1.083    23 C    1.031
    23   6 C    3.986 --    22 C    1.031    40 H    0.983    41 H    0.965
                            42 H    0.962
    24   8 O    2.330 --    22 C    1.083    19 C    1.064
    25   7 N    3.040 --     5 C    1.757    11 C    1.002
    26   1 H    1.009 --     1 C    0.985
    27   1 H    1.005 --     1 C    0.978
    28   1 H    1.005 --     1 C    0.979
    29   1 H    0.841 --     9 O    0.805
    30   1 H    1.002 --    12 C    0.983
    31   1 H    1.002 --    12 C    0.981
    32   1 H    1.001 --    12 C    0.983
    33   1 H    1.003 --    14 C    0.984
    34   1 H    1.005 --    14 C    0.984
    35   1 H    1.004 --    14 C    0.982
    36   1 H    1.011 --    15 C    0.976
    37   1 H    1.002 --    15 C    0.983
    38   1 H    1.010 --    15 C    0.983
    39   1 H    0.971 --    16 N    0.886
    40   1 H    0.998 --    23 C    0.983
    41   1 H    0.997 --    23 C    0.965
    42   1 H    0.997 --    23 C    0.962
 ---------------------------------------------------------------------------

           -------------------------------------------------
          | TOTAL ENERGY              -82.971199338969 Eh   |
          | GRADIENT NORM               0.000643000436 Eh/α |
          | HOMO-LUMO GAP               1.502398963523 eV   |
           -------------------------------------------------

 * finished run on 2023/06/20 at 18:18:05.555
