                         Program Version 5.0.1 -  RELEASE  -
|  1> # ORCA input file
|  2> ! SP r2SCAN-3c CPCM
|  3>
|  4> %maxcore 1875.0
|  5> %pal nprocs 4 end
|  6> %cpcm smd true SMDsolvent "DMSO" end
|  7>
|  8> *xyz 1 1
|  9> C       3.791790    2.460735   -0.271502
| 10> O       2.614288    1.754011    0.154745
| 11> C       2.506001    0.498100   -0.216505
| 12> O       3.318330   -0.104861   -0.874980
| 13> C       1.213208   -0.136778    0.240461
| 14> C       1.118778   -1.651503    0.255381
| 15> O       2.335345   -2.266252    0.548071
| 16> C       0.102779   -2.076347    1.325089
| 17> C       0.579665   -2.106133   -1.120903
| 18> O       0.181137   -3.075389    1.991844
| 19> N      -0.975850   -1.231111    1.417912
| 20> C      -1.011275    0.042608    0.808167
| 21> C      -2.217128    0.552429    0.098607
| 22> C      -2.045617    1.612849   -0.961144
| 23> C      -3.440959   -0.318717   -0.023169
| 24> N      -1.913589    1.014115    1.477257
| 25> N       0.221988    0.627491    0.480549
| 26> H       4.675704    2.011650    0.186770
| 27> H       3.875775    2.411076   -1.359066
| 28> H       3.666054    3.489335    0.059750
| 29> H       3.004409   -2.031500   -0.115659
| 30> H       1.282574   -1.803953   -1.894653
| 31> H      -0.389833   -1.655900   -1.315774
| 32> H       0.486824   -3.190778   -1.120444
| 33> H      -1.684556   -1.457929    2.094227
| 34> H      -2.910150    2.275012   -0.965796
| 35> H      -1.143161    2.194279   -0.781376
| 36> H      -1.968002    1.129959   -1.934606
| 37> H      -4.334688    0.303001   -0.059804
| 38> H      -3.375403   -0.890995   -0.948551
| 39> H      -3.520140   -1.008774    0.813624
| 40> H      -1.549338    1.949828    1.592607
| 41> H      -2.494957    0.680439    2.230654
| 42> **                         ****END OF INPUT****

CARTESIAN COORDINATES (ANGSTROEM)
---------------------------------
  C      3.791790    2.460735   -0.271502
  O      2.614288    1.754011    0.154745
  C      2.506001    0.498100   -0.216505
  O      3.318330   -0.104861   -0.874980
  C      1.213208   -0.136778    0.240461
  C      1.118778   -1.651503    0.255381
  O      2.335345   -2.266252    0.548071
  C      0.102779   -2.076347    1.325089
  C      0.579665   -2.106133   -1.120903
  O      0.181137   -3.075389    1.991844
  N     -0.975850   -1.231111    1.417912
  C     -1.011275    0.042608    0.808167
  C     -2.217128    0.552429    0.098607
  C     -2.045617    1.612849   -0.961144
  C     -3.440959   -0.318717   -0.023169
  N     -1.913589    1.014115    1.477257
  N      0.221988    0.627491    0.480549
  H      4.675704    2.011650    0.186770
  H      3.875775    2.411076   -1.359066
  H      3.666054    3.489335    0.059750
  H      3.004409   -2.031500   -0.115659
  H      1.282574   -1.803953   -1.894653
  H     -0.389833   -1.655900   -1.315774
  H      0.486824   -3.190778   -1.120444
  H     -1.684556   -1.457929    2.094227
  H     -2.910150    2.275012   -0.965796
  H     -1.143161    2.194279   -0.781376
  H     -1.968002    1.129959   -1.934606
  H     -4.334688    0.303001   -0.059804
  H     -3.375403   -0.890995   -0.948551
  H     -3.520140   -1.008774    0.813624
  H     -1.549338    1.949828    1.592607
  H     -2.494957    0.680439    2.230654

 Total Charge           Charge          ....    1
 Multiplicity           Mult            ....    1
 Number of Electrons    NEL             ....  128
 Basis Dimension        Dim             ....  438

ORBITAL ENERGIES
----------------

  NO   OCC          E(Eh)            E(eV)
   0   2.0000     -19.023400      -517.6530
   1   2.0000     -18.968157      -516.1498
   2   2.0000     -18.966230      -516.0974
   3   2.0000     -18.944657      -515.5103
   4   2.0000     -14.278570      -388.5397
   5   2.0000     -14.219709      -386.9379
   6   2.0000     -14.208374      -386.6295
   7   2.0000     -10.193944      -277.3913
   8   2.0000     -10.188374      -277.2397
   9   2.0000     -10.159767      -276.4613
  10   2.0000     -10.132377      -275.7160
  11   2.0000     -10.131983      -275.7053
  12   2.0000     -10.131573      -275.6941
  13   2.0000     -10.087180      -274.4861
  14   2.0000     -10.042965      -273.2830
  15   2.0000     -10.039066      -273.1769
  16   2.0000     -10.038961      -273.1740
  17   2.0000      -1.103620       -30.0310
  18   2.0000      -1.058163       -28.7941
  19   2.0000      -1.036547       -28.2059
  20   2.0000      -1.018293       -27.7092
  21   2.0000      -1.005636       -27.3648
  22   2.0000      -0.954680       -25.9782
  23   2.0000      -0.904330       -24.6081
  24   2.0000      -0.778919       -21.1955
  25   2.0000      -0.767907       -20.8958
  26   2.0000      -0.735573       -20.0160
  27   2.0000      -0.701376       -19.0854
  28   2.0000      -0.691490       -18.8164
  29   2.0000      -0.656576       -17.8663
  30   2.0000      -0.649406       -17.6712
  31   2.0000      -0.610276       -16.6065
  32   2.0000      -0.578469       -15.7409
  33   2.0000      -0.555670       -15.1206
  34   2.0000      -0.551582       -15.0093
  35   2.0000      -0.520383       -14.1604
  36   2.0000      -0.510778       -13.8990
  37   2.0000      -0.496959       -13.5230
  38   2.0000      -0.477766       -13.0007
  39   2.0000      -0.469394       -12.7729
  40   2.0000      -0.464019       -12.6266
  41   2.0000      -0.452213       -12.3053
  42   2.0000      -0.448656       -12.2085
  43   2.0000      -0.434913       -11.8346
  44   2.0000      -0.420975       -11.4553
  45   2.0000      -0.404268       -11.0007
  46   2.0000      -0.401461       -10.9243
  47   2.0000      -0.396627       -10.7928
  48   2.0000      -0.389746       -10.6055
  49   2.0000      -0.371845       -10.1184
  50   2.0000      -0.370598       -10.0845
  51   2.0000      -0.366076        -9.9614
  52   2.0000      -0.364243        -9.9116
  53   2.0000      -0.353288        -9.6134
  54   2.0000      -0.349408        -9.5079
  55   2.0000      -0.341562        -9.2944
  56   2.0000      -0.337870        -9.1939
  57   2.0000      -0.313139        -8.5209
  58   2.0000      -0.305641        -8.3169
  59   2.0000      -0.294806        -8.0221
  60   2.0000      -0.279009        -7.5922
  61   2.0000      -0.262147        -7.1334
  62   2.0000      -0.248582        -6.7643
  63   2.0000      -0.244347        -6.6490
  64   0.0000      -0.118520        -3.2251
  65   0.0000      -0.037243        -1.0134
  66   0.0000       0.007389         0.2011
  67   0.0000       0.034966         0.9515
  68   0.0000       0.047851         1.3021

MULLIKEN ATOMIC CHARGES
-----------------------
   0 C :   -0.305487
   1 O :   -0.165266
   2 C :    0.248576
   3 O :   -0.431988
   4 C :    0.282555
   5 C :    0.164490
   6 O :   -0.423045
   7 C :    0.099009
   8 C :   -0.520689
   9 O :   -0.358914
  10 N :   -0.049675
  11 C :    0.001381
  12 C :    0.192537
  13 C :   -0.555892
  14 C :   -0.518265
  15 N :   -0.162744
  16 N :   -0.171874
  17 H :    0.185614
  18 H :    0.183741
  19 H :    0.184531
  20 H :    0.339011
  21 H :    0.191517
  22 H :    0.205318
  23 H :    0.197226
  24 H :    0.327968
  25 H :    0.196750
  26 H :    0.191063
  27 H :    0.203203
  28 H :    0.200841
  29 H :    0.206839
  30 H :    0.178414
  31 H :    0.338944
  32 H :    0.344311
Sum of atomic charges:    1.0000000

LOEWDIN ATOMIC CHARGES
----------------------
   0 C :   -0.026183
   1 O :   -0.542811
   2 C :    0.401561
   3 O :   -0.414664
   4 C :    0.298909
   5 C :    0.161989
   6 O :   -0.535248
   7 C :    0.383298
   8 C :   -0.319988
   9 O :   -0.396022
  10 N :   -0.473331
  11 C :    0.400096
  12 C :    0.124516
  13 C :   -0.338492
  14 C :   -0.337609
  15 N :   -0.364355
  16 N :   -0.475838
  17 H :    0.187596
  18 H :    0.187982
  19 H :    0.191421
  20 H :    0.298096
  21 H :    0.180132
  22 H :    0.181590
  23 H :    0.183124
  24 H :    0.305377
  25 H :    0.181357
  26 H :    0.187225
  27 H :    0.186861
  28 H :    0.185372
  29 H :    0.188830
  30 H :    0.180953
  31 H :    0.315313
  32 H :    0.312942

  Mayer bond orders larger than 0.100000
B(  0-C ,  1-O ) :   0.8189 B(  0-C , 17-H ) :   0.9503 B(  0-C , 18-H ) :   0.9533
B(  0-C , 19-H ) :   0.9584 B(  1-O ,  2-C ) :   1.1888 B(  2-C ,  3-O ) :   1.7652
B(  2-C ,  4-C ) :   1.0075 B(  4-C ,  5-C ) :   0.8743 B(  4-C , 16-N ) :   1.6141
B(  5-C ,  6-O ) :   0.9606 B(  5-C ,  7-C ) :   0.8724 B(  5-C ,  8-C ) :   1.0157
B(  6-O , 20-H ) :   0.8427 B(  7-C ,  9-O ) :   2.1182 B(  7-C , 10-N ) :   1.0360
B(  8-C , 21-H ) :   0.9255 B(  8-C , 22-H ) :   0.9414 B(  8-C , 23-H ) :   0.9487
B( 10-N , 11-C ) :   0.9641 B( 10-N , 24-H ) :   0.8736 B( 11-C , 12-C ) :   0.9894
B( 11-C , 15-N ) :   0.8261 B( 11-C , 16-N ) :   1.1607 B( 12-C , 13-C ) :   0.8013
B( 12-C , 14-C ) :   0.8164 B( 12-C , 15-N ) :   0.7593 B( 13-C , 25-H ) :   0.9594
B( 13-C , 26-H ) :   0.9705 B( 13-C , 27-H ) :   0.9521 B( 14-C , 28-H ) :   0.9537
B( 14-C , 29-H ) :   0.9534 B( 14-C , 30-H ) :   0.9641 B( 15-N , 31-H ) :   0.8675
B( 15-N , 32-H ) :   0.8773

Dispersion correction           -0.013530963
FINAL SINGLE POINT ENERGY      -855.542852174858

DIPOLE MOMENT
-------------
                                X             Y             Z
Electronic contribution:      7.18476      -4.15095       8.11221
Nuclear contribution   :    -12.01197       7.96431      -7.89247
                        -----------------------------------------
Total Dipole Moment    :     -4.82721       3.81336       0.21974
                        -----------------------------------------
Magnitude (a.u.)       :      6.15564
Magnitude (Debye)      :     15.64640

Rotational constants in cm-1:     0.021045     0.013368     0.009663
Rotational constants in MHz :   630.924363   400.762149   289.694597

                             ****ORCA TERMINATED NORMALLY****
TOTAL RUN TIME: 0 days 0 hours 1 minutes 24 seconds 409 msec
