   * xtb version 6.5.1 (579679a) compiled by 'ehlert@majestix' on 2022-07-11
          program call               : /lustre/hpc/kemi/ree/PhD/git/ReactivityQM/dep/xtb-6.5.1/bin/xtb --gfn 1 /lustre/hpc/kemi/ree/PhD/git/ReactivityQM/calculations/R01/reac02prodN08/conf03/R01_reac02prodN08_conf03_gfn1.xyz --opt --vfukui --chrg 1 --uhf 0 --alpb DMSO

   ID    Z sym.   atoms
    1    6 C      1, 3, 5, 6, 8, 9, 12-15
    2    8 O      2, 4, 7, 10
    3    7 N      11, 16, 17
    4    1 H      18-33

      * Solvation model:               ALPB
        Solvent                        DMSO
        Solvent mass                       7.8130E+01 g/mol
          :  Hamiltonian                  GFN1-xTB          :
 * total energy  :   -57.7150993 Eh     change       -0.1012737E-09 Eh
 * total energy  :   -57.7355585 Eh     change       -0.2045913E-01 Eh
 * total energy  :   -57.7473560 Eh     change       -0.1179754E-01 Eh
 * total energy  :   -57.7501086 Eh     change       -0.2752533E-02 Eh
 * total energy  :   -57.7525583 Eh     change       -0.2449718E-02 Eh
 * total energy  :   -57.7539010 Eh     change       -0.1342779E-02 Eh
 * total energy  :   -57.7553226 Eh     change       -0.1421574E-02 Eh
 * total energy  :   -57.7565952 Eh     change       -0.1272606E-02 Eh
 * total energy  :   -57.7577091 Eh     change       -0.1113916E-02 Eh
 * total energy  :   -57.7588980 Eh     change       -0.1188822E-02 Eh
 * total energy  :   -57.8399276 Eh     change       -0.2132250E-04 Eh
 * total energy  :   -57.8399379 Eh     change       -0.1030640E-04 Eh
 * total energy  :   -57.8399453 Eh     change       -0.7378315E-05 Eh
 * total energy  :   -57.8399520 Eh     change       -0.6775535E-05 Eh
 * total energy  :   -57.8399584 Eh     change       -0.6406570E-05 Eh
 * total energy  :   -57.8399678 Eh     change       -0.9367293E-05 Eh
 * total energy  :   -57.8399731 Eh     change       -0.5270465E-05 Eh
 * total energy  :   -57.8399786 Eh     change       -0.5552385E-05 Eh
 * total energy  :   -57.8399836 Eh     change       -0.4945525E-05 Eh
   *** GEOMETRY OPTIMIZATION CONVERGED AFTER 80 ITERATIONS ***

 final structure:
================
33
 xtb: 6.5.1 (579679a)
C            3.79178992241533        2.46073509039125       -0.27150236983308
O            2.61428776473797        1.75401089067394        0.15474549900981
C            2.50600082520915        0.49809952902582       -0.21650479796503
O            3.31833032486845       -0.10486135704094       -0.87497970262564
C            1.21320779932520       -0.13677789925946        0.24046109465787
C            1.11877765393552       -1.65150315977944        0.25538111587332
O            2.33534482998222       -2.26625169384711        0.54807139496199
C            0.10277938672976       -2.07634672167926        1.32508945931262
C            0.57966532242285       -2.10613262782707       -1.12090329162223
O            0.18113712152922       -3.07538875521767        1.99184354515905
N           -0.97584965542417       -1.23111056299263        1.41791197082368
C           -1.01127470391228        0.04260843679402        0.80816688939992
C           -2.21712845008558        0.55242919318553        0.09860709946563
C           -2.04561720220757        1.61284938235898       -0.96114390944777
C           -3.44095889025027       -0.31871715751291       -0.02316899677825
N           -1.91358891345283        1.01411474931433        1.47725694958605
N            0.22198790231422        0.62749054681105        0.48054935287694
H            4.67570368517011        2.01164956858855        0.18677008526206
H            3.87577462772821        2.41107564382147       -1.35906559791195
H            3.66605383605072        3.48933523907084        0.05974996035254
H            3.00440856871568       -2.03149986277442       -0.11565918387707
H            1.28257427682253       -1.80395274392870       -1.89465338221909
H           -0.38983268092023       -1.65590003846641       -1.31577440472526
H            0.48682398380966       -3.19077767809559       -1.12044395622162
H           -1.68455571648187       -1.45792864367946        2.09422712653160
H           -2.91014952018171        2.27501194915264       -0.96579618976275
H           -1.14316103370005        2.19427943461690       -0.78137630156578
H           -1.96800196382578        1.12995929253390       -1.93460612171519
H           -4.33468759980677        0.30300129481645       -0.05980402736565
H           -3.37540325165921       -0.89099476156091       -0.94855109070149
H           -3.52013998849937       -1.00877416160697        0.81362372107026
H           -1.54933841177050        1.94982831778173        1.59260652862165
H           -2.49495684958489        0.68043926633515        2.23065353137286

          :  Hamiltonian                  GFN1-xTB          :
         :: total energy             -57.839983582171 Eh    ::
         :: gradient norm              0.000798812065 Eh/a0 ::
         :: HOMO-LUMO gap              2.785706270530 eV    ::
         :: SCC energy               -58.406678749693 Eh    ::
         :: -> Gsolv                  -0.121238021292 Eh    ::
         :: repulsion energy           0.586241446865 Eh    ::

    * Orbital Energies and Occupations

         #    Occupation            Energy/Eh            Energy/eV
      -------------------------------------------------------------
         1        2.0000           -0.8963711             -24.3915
       ...           ...                  ...                  ...
        35        2.0000           -0.5525858             -15.0366
        36        2.0000           -0.5508045             -14.9882
        37        2.0000           -0.5451286             -14.8337
        38        2.0000           -0.5436910             -14.7946
        39        2.0000           -0.5398155             -14.6891
        40        2.0000           -0.5310866             -14.4516
        41        2.0000           -0.5249123             -14.2836
        42        2.0000           -0.5200058             -14.1501
        43        2.0000           -0.5153621             -14.0237
        44        2.0000           -0.5115172             -13.9191
        45        2.0000           -0.4865339             -13.2393
        46        2.0000           -0.4788101             -13.0291
        47        2.0000           -0.4668900             -12.7047 (HOMO)
        48                         -0.3645172              -9.9190 (LUMO)
        49                         -0.2907509              -7.9117
        50                         -0.2552619              -6.9460
        51                         -0.2045702              -5.5666
        52                         -0.1791896              -4.8760
        53                         -0.1676320              -4.5615
        54                         -0.1616627              -4.3991
        55                         -0.1484801              -4.0403
        56                         -0.1408204              -3.8319
        57                         -0.1357374              -3.6936
        58                         -0.1124748              -3.0606
       ...                                ...                  ...
       100                          0.7162213              19.4894
      -------------------------------------------------------------
                  HL-Gap            0.1023728 Eh            2.7857 eV

Wiberg/Mayer (AO) data.
largest (>0.10) Wiberg bond orders for each atom

     #   Z sym  total        # sym  WBO       # sym  WBO       # sym  WBO
 ---------------------------------------------------------------------------
     1   6 C    3.849 --    20 H    0.985    19 H    0.978    18 H    0.977
                             2 O    0.875
     2   8 O    2.236 --     3 C    1.165     1 C    0.875     4 O    0.148
     3   6 C    3.855 --     4 O    1.667     2 O    1.165     5 C    0.951
     4   8 O    1.964 --     3 C    1.667     2 O    0.148
     5   6 C    3.932 --    17 N    1.792     6 C    0.965     3 C    0.951
     6   6 C    3.935 --     7 O    0.991     5 C    0.965     9 C    0.933
                             8 C    0.925
     7   8 O    1.909 --     6 C    0.991    21 H    0.827
     8   6 C    3.880 --    10 O    1.697    11 N    1.156     6 C    0.925
     9   6 C    3.984 --    23 H    0.986    22 H    0.980    24 H    0.978
                             6 C    0.933
    10   8 O    1.963 --     8 C    1.697    11 N    0.146
    11   7 N    3.281 --     8 C    1.156    12 C    0.997    25 H    0.875
                            10 O    0.146
    12   6 C    3.870 --    17 N    1.038    11 N    0.997    13 C    0.894
                            16 N    0.838
    13   6 C    3.846 --    15 C    1.011    14 C    1.009    12 C    0.894
                            16 N    0.834
    14   6 C    3.978 --    13 C    1.009    27 H    0.978    26 H    0.975
                            28 H    0.972
    15   6 C    3.979 --    13 C    1.011    31 H    0.979    29 H    0.973
                            30 H    0.971
    16   7 N    3.505 --    33 H    0.870    32 H    0.866    12 C    0.838
                            13 C    0.834
    17   7 N    3.059 --     5 C    1.792    12 C    1.038
    18   1 H    1.002 --     1 C    0.977
    19   1 H    1.003 --     1 C    0.978
    20   1 H    1.007 --     1 C    0.985
    21   1 H    0.865 --     7 O    0.827
    22   1 H    1.000 --     9 C    0.980
    23   1 H    0.999 --     9 C    0.986
    24   1 H    0.997 --     9 C    0.978
    25   1 H    0.914 --    11 N    0.875
    26   1 H    0.993 --    14 C    0.975
    27   1 H    1.004 --    14 C    0.978
    28   1 H    0.994 --    14 C    0.972
    29   1 H    0.990 --    15 C    0.973
    30   1 H    0.994 --    15 C    0.971
    31   1 H    0.993 --    15 C    0.979
    32   1 H    0.903 --    16 N    0.866
    33   1 H    0.897 --    16 N    0.870
 ---------------------------------------------------------------------------

           -------------------------------------------------
          | TOTAL ENERGY              -57.839983582171 Eh   |
          | GRADIENT NORM               0.000798812065 Eh/α |
          | HOMO-LUMO GAP               2.785706270530 eV   |
           -------------------------------------------------

 * finished run on 2023/06/20 at 15:08:39.706
