   * xtb version 6.5.1 (579679a) compiled by 'ehlert@majestix' on 2022-07-11
          program call               : /lustre/hpc/kemi/ree/PhD/git/ReactivityQM/dep/xtb-6.5.1/bin/xtb --gfn 1 /lustre/hpc/kemi/ree/PhD/git/ReactivityQM/calculations/RaltegravirCLI/reac01prodN04/conf09/RaltegravirCLI_reac01prodN04_conf09_gfn1.xyz --opt --vfukui --chrg 1 --uhf 0 --alpb DMSO

   ID    Z sym.   atoms
    1    6 C      1-3, 6, 7
    2    7 N      4, 5
    3    8 O      8, 10
    4   17 Cl     9
    5    1 H      11-16

      * Solvation model:               ALPB
        Solvent                        DMSO
        Solvent mass                       7.8130E+01 g/mol
          :  Hamiltonian                  GFN1-xTB          :
 * total energy  :   -33.3591056 Eh     change       -0.5755396E-12 Eh
 * total energy  :   -33.3657081 Eh     change       -0.6602512E-02 Eh
 * total energy  :   -33.3675817 Eh     change       -0.1873619E-02 Eh
 * total energy  :   -33.3677649 Eh     change       -0.1831652E-03 Eh
 * total energy  :   -33.3678369 Eh     change       -0.7205942E-04 Eh
 * total energy  :   -33.3678467 Eh     change       -0.9751040E-05 Eh
 * total energy  :   -33.3678517 Eh     change       -0.4979692E-05 Eh
   *** GEOMETRY OPTIMIZATION CONVERGED AFTER 7 ITERATIONS ***

 final structure:
================
16
 xtb: 6.5.1 (579679a)
C           -1.28037230474313        1.10349321991833        1.30129193525271
C           -0.63554736241260        0.12308000200251        0.30637062689689
C           -1.58832443983344       -1.02817343010005       -0.06042154986913
N           -0.18293339707726        0.79707778530579       -0.85444220041045
N            1.06777582097254        0.68669993188876       -0.96790950812589
C            1.50988662839766       -0.05836461694364        0.09972532377715
C            2.95863483145440       -0.44120132817287        0.38538965833991
O            3.23127377356982       -1.17634329924872        1.27809960288933
Cl           4.05658017583340        0.29024578312802       -0.67055212709425
O            0.56103424681946       -0.40471609579332        0.86149746545453
H           -0.56219775204818        1.88197097647880        1.54906391514852
H           -2.16127837567374        1.53852181146915        0.83581177701870
H           -1.55914526003125        0.55352193643707        2.19706543507552
H           -2.46647673692022       -0.60782292047105       -0.54435838672867
H           -1.87179369416330       -1.54740957617844        0.85194347793337
H           -1.07711615414415       -1.71057917972031       -0.73588344555822

          :  Hamiltonian                  GFN1-xTB          :
         :: total energy             -33.367851675714 Eh    ::
         :: gradient norm              0.000415786052 Eh/a0 ::
         :: HOMO-LUMO gap              1.512054734005 eV    ::
         :: SCC energy               -33.642644795777 Eh    ::
         :: -> Gsolv                  -0.084597340357 Eh    ::
         :: repulsion energy           0.282340911388 Eh    ::

    * Orbital Energies and Occupations

         #    Occupation            Energy/Eh            Energy/eV
      -------------------------------------------------------------
         1        2.0000           -1.0039406             -27.3186
       ...           ...                  ...                  ...
        15        2.0000           -0.6380099             -17.3611
        16        2.0000           -0.6238848             -16.9768
        17        2.0000           -0.6146504             -16.7255
        18        2.0000           -0.5899405             -16.0531
        19        2.0000           -0.5887144             -16.0197
        20        2.0000           -0.5800687             -15.7845
        21        2.0000           -0.5763976             -15.6846
        22        2.0000           -0.5694798             -15.4963
        23        2.0000           -0.5567104             -15.1489
        24        2.0000           -0.5429732             -14.7751
        25        2.0000           -0.5342079             -14.5365
        26        2.0000           -0.5290579             -14.3964
        27        2.0000           -0.5199238             -14.1478 (HOMO)
        28                         -0.4643568             -12.6358 (LUMO)
        29                         -0.3899810             -10.6119
        30                         -0.3085721              -8.3967
        31                         -0.2556715              -6.9572
        32                         -0.1705701              -4.6414
        33                         -0.1647843              -4.4840
        34                         -0.1349753              -3.6729
        35                         -0.1290946              -3.5128
        36                         -0.1285737              -3.4987
        37                         -0.1207101              -3.2847
        38                         -0.1125591              -3.0629
       ...                                ...                  ...
        57                          0.7122592              19.3816
      -------------------------------------------------------------
                  HL-Gap            0.0555670 Eh            1.5121 eV

Wiberg/Mayer (AO) data.
largest (>0.10) Wiberg bond orders for each atom

     #   Z sym  total        # sym  WBO       # sym  WBO       # sym  WBO
 ---------------------------------------------------------------------------
     1   6 C    3.938 --    11 H    0.977    12 H    0.975    13 H    0.974
                             2 C    0.879
     2   6 C    3.814 --     4 N    1.079     1 C    0.879     3 C    0.878
                            10 O    0.872
     3   6 C    3.938 --    16 H    0.977    14 H    0.975    15 H    0.974
                             2 C    0.878
     4   7 N    2.996 --     5 N    1.669     2 C    1.079
     5   7 N    3.021 --     4 N    1.669     6 C    1.205
     6   6 C    3.802 --    10 O    1.384     5 N    1.205     7 C    0.928
     7   6 C    3.905 --     8 O    1.806     9 Cl   1.131     6 C    0.928
     8   8 O    2.092 --     7 C    1.806     9 Cl   0.200
     9  17 Cl   1.405 --     7 C    1.131     8 O    0.200
    10   8 O    2.444 --     6 C    1.384     2 C    0.872
    11   1 H    0.988 --     1 C    0.977
    12   1 H    0.989 --     1 C    0.975
    13   1 H    0.989 --     1 C    0.974
    14   1 H    0.989 --     3 C    0.975
    15   1 H    0.989 --     3 C    0.974
    16   1 H    0.988 --     3 C    0.977
 ---------------------------------------------------------------------------

           -------------------------------------------------
          | TOTAL ENERGY              -33.367851675714 Eh   |
          | GRADIENT NORM               0.000415786052 Eh/α |
          | HOMO-LUMO GAP               1.512054734005 eV   |
           -------------------------------------------------

 * finished run on 2023/06/20 at 14:54:55.858
