   * xtb version 6.5.1 (579679a) compiled by 'ehlert@majestix' on 2022-07-11
          program call               : /lustre/hpc/kemi/ree/PhD/git/ReactivityQM/dep/xtb-6.5.1/bin/xtb --gfn 1 /lustre/hpc/kemi/ree/PhD/git/ReactivityQM/calculations/R01/reac02prodE06/conf04/R01_reac02prodE06_conf04_gfn1.xyz --opt --vfukui --chrg -1 --uhf 0 --alpb DMSO

   ID    Z sym.   atoms
    1    6 C      1, 3, 5, 6, 8, 9, 12-15
    2    8 O      2, 4, 7, 10
    3    7 N      11, 16, 17
    4    1 H      18-33

      * Solvation model:               ALPB
        Solvent                        DMSO
        Solvent mass                       7.8130E+01 g/mol
          :  Hamiltonian                  GFN1-xTB          :
 * total energy  :   -58.5358161 Eh     change       -0.8903100E-11 Eh
 * total energy  :   -58.5432259 Eh     change       -0.7409810E-02 Eh
 * total energy  :   -58.5459485 Eh     change       -0.2722620E-02 Eh
 * total energy  :   -58.5464073 Eh     change       -0.4588284E-03 Eh
 * total energy  :   -58.5466654 Eh     change       -0.2580377E-03 Eh
 * total energy  :   -58.5467755 Eh     change       -0.1100920E-03 Eh
 * total energy  :   -58.5468887 Eh     change       -0.1131898E-03 Eh
 * total energy  :   -58.5469644 Eh     change       -0.7573728E-04 Eh
 * total energy  :   -58.5470424 Eh     change       -0.7800497E-04 Eh
 * total energy  :   -58.5471233 Eh     change       -0.8086244E-04 Eh
 * total energy  :   -58.5477127 Eh     change       -0.1297173E-04 Eh
 * total energy  :   -58.5477256 Eh     change       -0.1288447E-04 Eh
 * total energy  :   -58.5477353 Eh     change       -0.9697393E-05 Eh
 * total energy  :   -58.5477523 Eh     change       -0.1698204E-04 Eh
 * total energy  :   -58.5477612 Eh     change       -0.8885791E-05 Eh
 * total energy  :   -58.5477669 Eh     change       -0.5733088E-05 Eh
 * total energy  :   -58.5477672 Eh     change       -0.2870885E-06 Eh
 * total energy  :   -58.5477724 Eh     change       -0.5237261E-05 Eh
 * total energy  :   -58.5477761 Eh     change       -0.3691067E-05 Eh
   *** GEOMETRY OPTIMIZATION CONVERGED AFTER 30 ITERATIONS ***

 final structure:
================
33
 xtb: 6.5.1 (579679a)
C            3.99326995458774       -2.33449901170648       -0.36113873005394
O            2.72232890937438       -1.69542051045216       -0.36997274102067
C            2.73747272504422       -0.34619997369360       -0.43536130752087
O            3.80375215397224        0.26836653769994       -0.49083625172878
C            1.42483520918320        0.27452978099147       -0.43171735161246
C            1.28586213729783        1.63176469277543       -0.49816569539596
O            2.33307477397282        2.46915534878453       -0.57244698240182
C           -0.10670450283162        2.31704233830074       -0.63997613932885
C           -0.15688053749034        3.51776614629526        0.36183997633057
O           -0.42579631681050        2.59308117359576       -1.86193484423474
N           -1.06523109357303        1.26761316131772       -0.00212020733682
C           -0.84906951751611       -0.05536567485741       -0.18635566934185
C           -2.05261338897479       -0.98615092349194       -0.07349455962274
C           -2.65925107611231       -0.86956503206098        1.33647912409590
C           -1.62166685829401       -2.43044863280978       -0.34057397863596
N           -3.04253247635766       -0.60808333953077       -1.08704255176969
N            0.31417982282377       -0.58778363882368       -0.36107767290972
H            4.57156813220890       -2.02581136721822        0.51452101365322
H            3.80982575032927       -3.40727142167630       -0.32427052827797
H            4.55742216810813       -2.08370187962492       -1.26428138101393
H            3.17760754178759        1.96158749923964       -0.56073471122956
H            0.58517499234912        4.25680716089957        0.06372073716136
H           -1.14552309784723        3.97035903544061        0.31729509871053
H            0.04528948188793        3.18487614911964        1.37837578670146
H           -2.02648636907983        1.57021533971053       -0.05025154297985
H           -1.92820492837470       -1.16760012489074        2.08816878614767
H           -2.96543797561176        0.15675105322008        1.53306357406179
H           -3.53332818340639       -1.51369454563298        1.42061238889530
H           -2.47344134426089       -3.10225662142344       -0.24117572142685
H           -0.85197031028759       -2.72853490589500        0.37121341335264
H           -1.21593207225153       -2.51861792336666       -1.34908702091910
H           -3.43819924850987        0.29302878467797       -0.84730547818191
H           -3.80339445533549       -1.27193767491457       -1.05230783216717

          :  Hamiltonian                  GFN1-xTB          :
         :: total energy             -58.547776135616 Eh    ::
         :: gradient norm              0.000556049213 Eh/a0 ::
         :: HOMO-LUMO gap              2.246677129339 eV    ::
         :: SCC energy               -59.085511263279 Eh    ::
         :: -> Gsolv                  -0.115481068498 Eh    ::
         :: repulsion energy           0.556336675116 Eh    ::

    * Orbital Energies and Occupations

         #    Occupation            Energy/Eh            Energy/eV
      -------------------------------------------------------------
         1        2.0000           -0.8087492             -22.0072
       ...           ...                  ...                  ...
        36        2.0000           -0.4750178             -12.9259
        37        2.0000           -0.4736548             -12.8888
        38        2.0000           -0.4696797             -12.7806
        39        2.0000           -0.4620657             -12.5734
        40        2.0000           -0.4563838             -12.4188
        41        2.0000           -0.4484939             -12.2041
        42        2.0000           -0.4376192             -11.9082
        43        2.0000           -0.4161834             -11.3249
        44        2.0000           -0.3931678             -10.6986
        45        2.0000           -0.3858219             -10.4987
        46        2.0000           -0.3630487              -9.8791
        47        2.0000           -0.3488322              -9.4922
        48        2.0000           -0.3458908              -9.4122 (HOMO)
        49                         -0.2633269              -7.1655 (LUMO)
        50                         -0.2145875              -5.8392
        51                         -0.1320684              -3.5938
        52                         -0.1265347              -3.4432
        53                         -0.1081706              -2.9435
        54                         -0.1057075              -2.8764
        55                         -0.0883573              -2.4043
        56                         -0.0876846              -2.3860
        57                         -0.0719068              -1.9567
        58                         -0.0638609              -1.7377
        59                         -0.0630177              -1.7148
       ...                                ...                  ...
       100                          0.6983575              19.0033
      -------------------------------------------------------------
                  HL-Gap            0.0825639 Eh            2.2467 eV

Wiberg/Mayer (AO) data.
largest (>0.10) Wiberg bond orders for each atom

     #   Z sym  total        # sym  WBO       # sym  WBO       # sym  WBO
 ---------------------------------------------------------------------------
     1   6 C    3.892 --    19 H    0.987    18 H    0.980    20 H    0.980
                             2 O    0.918
     2   8 O    2.170 --     3 C    1.067     1 C    0.918     4 O    0.106
     3   6 C    3.839 --     4 O    1.543     5 C    1.105     2 O    1.067
     4   8 O    1.897 --     3 C    1.543     2 O    0.106
     5   6 C    3.946 --     6 C    1.537     3 C    1.105    17 N    1.071
     6   6 C    3.863 --     5 C    1.537     7 O    1.106     8 C    0.900
     7   8 O    2.078 --     6 C    1.106    21 H    0.791
     8   6 C    3.924 --    10 O    1.240     9 C    0.938     6 C    0.900
                            11 N    0.778
     9   6 C    3.992 --    24 H    0.991    23 H    0.987    22 H    0.986
                             8 C    0.938
    10   8 O    1.542 --     8 C    1.240
    11   7 N    3.265 --    12 C    1.232    25 H    0.922     8 C    0.778
                            17 N    0.157
    12   6 C    3.947 --    17 N    1.594    11 N    1.232    13 C    0.968
    13   6 C    3.966 --    15 C    1.002    14 C    0.981    16 N    0.977
                            12 C    0.968
    14   6 C    3.995 --    28 H    0.986    26 H    0.985    27 H    0.984
                            13 C    0.981
    15   6 C    3.997 --    13 C    1.002    29 H    0.987    30 H    0.985
                            31 H    0.985
    16   7 N    2.951 --    13 C    0.977    33 H    0.950    32 H    0.948
    17   7 N    2.969 --    12 C    1.594     5 C    1.071    11 N    0.157
    18   1 H    1.012 --     1 C    0.980
    19   1 H    1.015 --     1 C    0.987
    20   1 H    1.013 --     1 C    0.980
    21   1 H    0.876 --     7 O    0.791
    22   1 H    1.016 --     9 C    0.986
    23   1 H    1.013 --     9 C    0.987
    24   1 H    1.014 --     9 C    0.991
    25   1 H    0.967 --    11 N    0.922
    26   1 H    1.005 --    14 C    0.985
    27   1 H    1.008 --    14 C    0.984
    28   1 H    1.005 --    14 C    0.986
    29   1 H    1.004 --    15 C    0.987
    30   1 H    1.019 --    15 C    0.985
    31   1 H    1.018 --    15 C    0.985
    32   1 H    0.966 --    16 N    0.948
    33   1 H    0.966 --    16 N    0.950
 ---------------------------------------------------------------------------

           -------------------------------------------------
          | TOTAL ENERGY              -58.547776135616 Eh   |
          | GRADIENT NORM               0.000556049213 Eh/α |
          | HOMO-LUMO GAP               2.246677129339 eV   |
           -------------------------------------------------

 * finished run on 2023/06/20 at 15:00:28.036
