                         Program Version 5.0.1 -  RELEASE  -
|  1> # ORCA input file
|  2> ! SP r2SCAN-3c CPCM
|  3>
|  4> %maxcore 1875.0
|  5> %pal nprocs 4 end
|  6> %cpcm smd true SMDsolvent "DMSO" end
|  7>
|  8> *xyz 1 1
|  9> C      -2.177198    2.930284   -0.941850
| 10> O      -2.365835    1.699035   -0.201552
| 11> C      -3.215325    0.821977   -0.608423
| 12> O      -4.015231    0.862942   -1.484346
| 13> C      -3.061963   -0.549532    0.266510
| 14> C      -4.280854   -1.421136   -0.036076
| 15> N      -1.868740   -1.087313   -0.306557
| 16> C      -0.735228   -0.932815    0.259343
| 17> C       0.511169   -1.541772   -0.344065
| 18> C       0.859361   -2.810083    0.442638
| 19> C       0.298112   -1.848946   -1.828438
| 20> N       1.608188   -0.591520   -0.175942
| 21> C       1.481416    0.683556   -0.617023
| 22> O       0.424349    1.161342   -0.998433
| 23> C       2.743267    1.446517   -0.556608
| 24> N       2.957675    2.676292   -0.908211
| 25> N       4.275060    2.925772   -0.681849
| 26> C       4.788322    1.832736   -0.205640
| 27> C       6.187371    1.587021    0.203963
| 28> O       3.871256    0.857379   -0.103454
| 29> N      -0.569753   -0.309649    1.484732
| 30> C      -1.594157    0.130598    2.253578
| 31> O      -1.496752    0.628289    3.352666
| 32> C      -2.936080   -0.095257    1.635606
| 33> O      -3.960697    0.187264    2.341665
| 34> H      -2.843178    2.957781   -1.803204
| 35> H      -2.391185    3.750136   -0.257844
| 36> H      -1.131870    2.950444   -1.250334
| 37> H      -4.169835   -2.374572    0.474680
| 38> H      -5.186265   -0.925077    0.306491
| 39> H      -4.335533   -1.588321   -1.109623
| 40> H       1.038121   -2.567297    1.488033
| 41> H       0.038625   -3.522303    0.377605
| 42> H       1.756384   -3.263029    0.024545
| 43> H      -0.498131   -2.583174   -1.936273
| 44> H       0.018023   -0.942074   -2.362221
| 45> H       1.217002   -2.248414   -2.251157
| 46> H       2.521457   -0.954294    0.042606
| 47> H       6.616342    0.789916   -0.403285
| 48> H       6.772414    2.495884    0.082396
| 49> H       6.215091    1.266328    1.245210
| 50> H       0.365577   -0.218380    1.859962
| 51> H      -3.730774    0.543664    3.230180
| 52> **                         ****END OF INPUT****

CARTESIAN COORDINATES (ANGSTROEM)
---------------------------------
  C     -2.177198    2.930284   -0.941850
  O     -2.365835    1.699035   -0.201552
  C     -3.215325    0.821977   -0.608423
  O     -4.015231    0.862942   -1.484346
  C     -3.061963   -0.549532    0.266510
  C     -4.280854   -1.421136   -0.036076
  N     -1.868740   -1.087313   -0.306557
  C     -0.735228   -0.932815    0.259343
  C      0.511169   -1.541772   -0.344065
  C      0.859361   -2.810083    0.442638
  C      0.298112   -1.848946   -1.828438
  N      1.608188   -0.591520   -0.175942
  C      1.481416    0.683556   -0.617023
  O      0.424349    1.161342   -0.998433
  C      2.743267    1.446517   -0.556608
  N      2.957675    2.676292   -0.908211
  N      4.275060    2.925772   -0.681849
  C      4.788322    1.832736   -0.205640
  C      6.187371    1.587021    0.203963
  O      3.871256    0.857379   -0.103454
  N     -0.569753   -0.309649    1.484732
  C     -1.594157    0.130598    2.253578
  O     -1.496752    0.628289    3.352666
  C     -2.936080   -0.095257    1.635606
  O     -3.960697    0.187264    2.341665
  H     -2.843178    2.957781   -1.803204
  H     -2.391185    3.750136   -0.257844
  H     -1.131870    2.950444   -1.250334
  H     -4.169835   -2.374572    0.474680
  H     -5.186265   -0.925077    0.306491
  H     -4.335533   -1.588321   -1.109623
  H      1.038121   -2.567297    1.488033
  H      0.038625   -3.522303    0.377605
  H      1.756384   -3.263029    0.024545
  H     -0.498131   -2.583174   -1.936273
  H      0.018023   -0.942074   -2.362221
  H      1.217002   -2.248414   -2.251157
  H      2.521457   -0.954294    0.042606
  H      6.616342    0.789916   -0.403285
  H      6.772414    2.495884    0.082396
  H      6.215091    1.266328    1.245210
  H      0.365577   -0.218380    1.859962
  H     -3.730774    0.543664    3.230180

 Total Charge           Charge          ....    1
 Multiplicity           Mult            ....    1
 Number of Electrons    NEL             ....  184
 Basis Dimension        Dim             ....  620

ORBITAL ENERGIES
----------------

  NO   OCC          E(Eh)            E(eV)
   0   2.0000     -19.102536      -519.8064
   1   2.0000     -19.071876      -518.9721
   2   2.0000     -19.050340      -518.3861
   3   2.0000     -18.995719      -516.8998
   4   2.0000     -18.989379      -516.7273
   5   2.0000     -18.951557      -515.6981
   6   2.0000     -14.260075      -388.0364
   7   2.0000     -14.214778      -386.8038
   8   2.0000     -14.212368      -386.7382
   9   2.0000     -14.202789      -386.4775
  10   2.0000     -14.190916      -386.1544
  11   2.0000     -10.222067      -278.1566
  12   2.0000     -10.217224      -278.0248
  13   2.0000     -10.202038      -277.6116
  14   2.0000     -10.170540      -276.7544
  15   2.0000     -10.157172      -276.3907
  16   2.0000     -10.153204      -276.2827
  17   2.0000     -10.150184      -276.2005
  18   2.0000     -10.148810      -276.1632
  19   2.0000     -10.117350      -275.3071
  20   2.0000     -10.094350      -274.6812
  21   2.0000     -10.049008      -273.4474
  22   2.0000     -10.048382      -273.4304
  23   2.0000     -10.036698      -273.1124
  24   2.0000     -10.026104      -272.8242
  25   2.0000      -1.161878       -31.6163
  26   2.0000      -1.161408       -31.6035
  27   2.0000      -1.131768       -30.7970
  28   2.0000      -1.075448       -29.2644
  29   2.0000      -1.048139       -28.5213
  30   2.0000      -1.041015       -28.3275
  31   2.0000      -1.001846       -27.2616
  32   2.0000      -0.982638       -26.7389
  33   2.0000      -0.928270       -25.2595
  34   2.0000      -0.917886       -24.9770
  35   2.0000      -0.840744       -22.8778
  36   2.0000      -0.828145       -22.5350
  37   2.0000      -0.774205       -21.0672
  38   2.0000      -0.738889       -20.1062
  39   2.0000      -0.731269       -19.8988
  40   2.0000      -0.718426       -19.5494
  41   2.0000      -0.691397       -18.8139
  42   2.0000      -0.677043       -18.4233
  43   2.0000      -0.673468       -18.3260
  44   2.0000      -0.648156       -17.6372
  45   2.0000      -0.632642       -17.2151
  46   2.0000      -0.609122       -16.5751
  47   2.0000      -0.594987       -16.1904
  48   2.0000      -0.580385       -15.7931
  49   2.0000      -0.575023       -15.6472
  50   2.0000      -0.566693       -15.4205
  51   2.0000      -0.544957       -14.8290
  52   2.0000      -0.542690       -14.7674
  53   2.0000      -0.533002       -14.5037
  54   2.0000      -0.501248       -13.6397
  55   2.0000      -0.500043       -13.6069
  56   2.0000      -0.489983       -13.3331
  57   2.0000      -0.479056       -13.0358
  58   2.0000      -0.474232       -12.9045
  59   2.0000      -0.466899       -12.7050
  60   2.0000      -0.462726       -12.5914
  61   2.0000      -0.445350       -12.1186
  62   2.0000      -0.439081       -11.9480
  63   2.0000      -0.436470       -11.8769
  64   2.0000      -0.428215       -11.6523
  65   2.0000      -0.424863       -11.5611
  66   2.0000      -0.418662       -11.3924
  67   2.0000      -0.409807       -11.1514
  68   2.0000      -0.405261       -11.0277
  69   2.0000      -0.399114       -10.8605
  70   2.0000      -0.391047       -10.6409
  71   2.0000      -0.389386       -10.5957
  72   2.0000      -0.384666       -10.4673
  73   2.0000      -0.380950       -10.3662
  74   2.0000      -0.369451       -10.0533
  75   2.0000      -0.366518        -9.9734
  76   2.0000      -0.361697        -9.8423
  77   2.0000      -0.354686        -9.6515
  78   2.0000      -0.350679        -9.5425
  79   2.0000      -0.348319        -9.4782
  80   2.0000      -0.347718        -9.4619
  81   2.0000      -0.332974        -9.0607
  82   2.0000      -0.320649        -8.7253
  83   2.0000      -0.316142        -8.6027
  84   2.0000      -0.310326        -8.4444
  85   2.0000      -0.297391        -8.0924
  86   2.0000      -0.285253        -7.7621
  87   2.0000      -0.276126        -7.5138
  88   2.0000      -0.271526        -7.3886
  89   2.0000      -0.269987        -7.3467
  90   2.0000      -0.262519        -7.1435
  91   2.0000      -0.256004        -6.9662
  92   0.0000      -0.190760        -5.1909
  93   0.0000      -0.099046        -2.6952
  94   0.0000      -0.084890        -2.3100
  95   0.0000      -0.031332        -0.8526
  96   0.0000      -0.025875        -0.7041

MULLIKEN ATOMIC CHARGES
-----------------------
   0 C :   -0.316635
   1 O :   -0.108895
   2 C :    0.268248
   3 O :   -0.307764
   4 C :    0.072520
   5 C :   -0.478399
   6 N :   -0.220581
   7 C :    0.323118
   8 C :    0.039067
   9 C :   -0.521755
  10 C :   -0.581629
  11 N :   -0.206370
  12 C :   -0.055413
  13 O :   -0.437764
  14 C :    0.402810
  15 N :   -0.158342
  16 N :   -0.281826
  17 C :    0.403711
  18 C :   -0.629226
  19 O :   -0.054342
  20 N :   -0.053039
  21 C :    0.098892
  22 O :   -0.395056
  23 C :    0.393790
  24 O :   -0.279633
  25 H :    0.195140
  26 H :    0.194336
  27 H :    0.203552
  28 H :    0.208786
  29 H :    0.201406
  30 H :    0.207409
  31 H :    0.193663
  32 H :    0.201214
  33 H :    0.198143
  34 H :    0.189126
  35 H :    0.197545
  36 H :    0.191879
  37 H :    0.326779
  38 H :    0.203642
  39 H :    0.206535
  40 H :    0.202064
  41 H :    0.352947
  42 H :    0.410348
Sum of atomic charges:    1.0000000

LOEWDIN ATOMIC CHARGES
----------------------
   0 C :   -0.011313
   1 O :   -0.536497
   2 C :    0.434170
   3 O :   -0.324026
   4 C :    0.135132
   5 C :   -0.297417
   6 N :   -0.549999
   7 C :    0.380138
   8 C :    0.106618
   9 C :   -0.329263
  10 C :   -0.337482
  11 N :   -0.572056
  12 C :    0.393322
  13 O :   -0.438211
  14 C :    0.413382
  15 N :   -0.327047
  16 N :   -0.353739
  17 C :    0.384163
  18 C :   -0.315522
  19 O :   -0.388719
  20 N :   -0.406231
  21 C :    0.377675
  22 O :   -0.381484
  23 C :    0.428923
  24 O :   -0.275577
  25 H :    0.196529
  26 H :    0.195528
  27 H :    0.204382
  28 H :    0.185310
  29 H :    0.186943
  30 H :    0.195616
  31 H :    0.177799
  32 H :    0.181991
  33 H :    0.180410
  34 H :    0.179047
  35 H :    0.182020
  36 H :    0.173779
  37 H :    0.304574
  38 H :    0.193510
  39 H :    0.192151
  40 H :    0.192982
  41 H :    0.322616
  42 H :    0.345875

  Mayer bond orders larger than 0.100000
B(  0-C ,  1-O ) :   0.7941 B(  0-C , 25-H ) :   0.9577 B(  0-C , 26-H ) :   0.9442
B(  0-C , 27-H ) :   0.9400 B(  1-O ,  2-C ) :   1.1734 B(  2-C ,  3-O ) :   1.9299
B(  2-C ,  4-C ) :   0.8964 B(  2-C , 23-C ) :   0.1555 B(  4-C ,  5-C ) :   0.9163
B(  4-C ,  6-N ) :   0.7576 B(  4-C , 23-C ) :   1.0340 B(  5-C , 28-H ) :   0.9657
B(  5-C , 29-H ) :   0.9423 B(  5-C , 30-H ) :   0.9467 B(  6-N ,  7-C ) :   1.7818
B(  7-C ,  8-C ) :   0.8134 B(  7-C , 13-O ) :   0.1320 B(  7-C , 20-N ) :   0.9809
B(  8-C ,  9-C ) :   0.9598 B(  8-C , 10-C ) :   0.9122 B(  8-C , 11-N ) :   0.7435
B(  9-C , 31-H ) :   0.9428 B(  9-C , 32-H ) :   0.9589 B(  9-C , 33-H ) :   0.9596
B( 10-C , 34-H ) :   0.9560 B( 10-C , 35-H ) :   0.9586 B( 10-C , 36-H ) :   0.9693
B( 11-N , 12-C ) :   1.1717 B( 11-N , 37-H ) :   0.8914 B( 12-C , 13-O ) :   1.7277
B( 12-C , 14-C ) :   0.8569 B( 12-C , 16-N ) :   0.1116 B( 14-C , 15-N ) :   1.7338
B( 14-C , 17-C ) :   0.1271 B( 14-C , 19-O ) :   1.0778 B( 15-N , 16-N ) :   1.2697
B( 16-N , 17-C ) :   1.6038 B( 17-C , 18-C ) :   0.8261 B( 17-C , 19-O ) :   1.0668
B( 18-C , 38-H ) :   0.9397 B( 18-C , 39-H ) :   0.9886 B( 18-C , 40-H ) :   0.9432
B( 20-N , 21-C ) :   1.1138 B( 20-N , 41-H ) :   0.8661 B( 21-C , 22-O ) :   1.9808
B( 21-C , 23-C ) :   0.8607 B( 23-C , 24-O ) :   1.2690 B( 24-O , 42-H ) :   0.7856

Dispersion correction           -0.020282512
FINAL SINGLE POINT ENERGY     -1269.049809124758

DIPOLE MOMENT
-------------
                                X             Y             Z
Electronic contribution:     -4.53411       9.15177       6.66783
Nuclear contribution   :      4.09708     -12.36686      -3.75729
                        -----------------------------------------
Total Dipole Moment    :     -0.43703      -3.21508       2.91054
                        -----------------------------------------
Magnitude (a.u.)       :      4.35879
Magnitude (Debye)      :     11.07915

Rotational constants in cm-1:     0.013688     0.004494     0.004275
Rotational constants in MHz :   410.345723   134.727917   128.159929

                             ****ORCA TERMINATED NORMALLY****
TOTAL RUN TIME: 0 days 0 hours 2 minutes 51 seconds 523 msec
