   * xtb version 6.5.1 (579679a) compiled by 'ehlert@majestix' on 2022-07-11
          program call               : /lustre/hpc/kemi/ree/PhD/git/ReactivityQM/dep/xtb-6.5.1/bin/xtb --gfn 1 /lustre/hpc/kemi/ree/PhD/git/ReactivityQM/calculations/R02/reac01prodN09/conf04/R02_reac01prodN09_conf04_gfn1.xyz --opt --vfukui --chrg 1 --uhf 0 --alpb DMSO

   ID    Z sym.   atoms
    1    6 C      1, 3, 5, 6, 8-11, 13, 15, 18, 19, 22, 24
    2    8 O      2, 4, 14, 20, 23, 25
    3    7 N      7, 12, 16, 17, 21
    4    1 H      26-43

      * Solvation model:               ALPB
        Solvent                        DMSO
        Solvent mass                       7.8130E+01 g/mol
          :  Hamiltonian                  GFN1-xTB          :
 * total energy  :   -83.0992411 Eh     change       -0.1947640E-08 Eh
 * total energy  :   -83.1195404 Eh     change       -0.2029929E-01 Eh
 * total energy  :   -83.1281189 Eh     change       -0.8578473E-02 Eh
 * total energy  :   -83.1301568 Eh     change       -0.2037908E-02 Eh
 * total energy  :   -83.1317278 Eh     change       -0.1570967E-02 Eh
 * total energy  :   -83.1325885 Eh     change       -0.8607033E-03 Eh
 * total energy  :   -83.1332919 Eh     change       -0.7034538E-03 Eh
 * total energy  :   -83.1338012 Eh     change       -0.5092841E-03 Eh
 * total energy  :   -83.1340593 Eh     change       -0.2581181E-03 Eh
 * total energy  :   -83.1342138 Eh     change       -0.1544776E-03 Eh
 * total energy  :   -83.1394059 Eh     change       -0.1719686E-04 Eh
 * total energy  :   -83.1394105 Eh     change       -0.4584984E-05 Eh
 * total energy  :   -83.1394256 Eh     change       -0.1508941E-04 Eh
 * total energy  :   -83.1394310 Eh     change       -0.5376770E-05 Eh
 * total energy  :   -83.1394448 Eh     change       -0.1382235E-04 Eh
 * total energy  :   -83.1394558 Eh     change       -0.1100573E-04 Eh
 * total energy  :   -83.1394722 Eh     change       -0.1640018E-04 Eh
 * total energy  :   -83.1394775 Eh     change       -0.5311491E-05 Eh
 * total energy  :   -83.1394813 Eh     change       -0.3780311E-05 Eh
   *** GEOMETRY OPTIMIZATION CONVERGED AFTER 83 ITERATIONS ***

 final structure:
================
43
 xtb: 6.5.1 (579679a)
C           -2.17719828793863        2.93028384217309       -0.94185046906097
O           -2.36583463243894        1.69903452864740       -0.20155249568139
C           -3.21532492205470        0.82197741992352       -0.60842325725383
O           -4.01523116244793        0.86294171600021       -1.48434630168719
C           -3.06196338491297       -0.54953167807938        0.26650956401750
C           -4.28085422714253       -1.42113591301126       -0.03607550143783
N           -1.86873992993179       -1.08731287479894       -0.30655723092132
C           -0.73522826537873       -0.93281477933570        0.25934290174444
C            0.51116935467732       -1.54177244502442       -0.34406461612890
C            0.85936128052598       -2.81008295264914        0.44263798058879
C            0.29811194121777       -1.84894631431169       -1.82843790720865
N            1.60818776973954       -0.59151977969768       -0.17594165120515
C            1.48141552348365        0.68355636271388       -0.61702340049027
O            0.42434865950761        1.16134238733092       -0.99843312398322
C            2.74326678939862        1.44651736693285       -0.55660830551827
N            2.95767479033975        2.67629173462653       -0.90821102040911
N            4.27505983712023        2.92577212684780       -0.68184869974700
C            4.78832243013292        1.83273649541205       -0.20564026766685
C            6.18737068980400        1.58702118339955        0.20396299496691
O            3.87125588811721        0.85737897011759       -0.10345376493657
N           -0.56975271465718       -0.30964926050733        1.48473189853978
C           -1.59415650803841        0.13059842838814        2.25357813256868
O           -1.49675178054637        0.62828945417960        3.35266612646266
C           -2.93607969776124       -0.09525748900285        1.63560579611793
O           -3.96069724955268        0.18726387338148        2.34166531206279
H           -2.84317842644087        2.95778131340423       -1.80320399514810
H           -2.39118544683321        3.75013649571588       -0.25784415453207
H           -1.13186975949053        2.95044353219347       -1.25033424025072
H           -4.16983484102993       -2.37457157796406        0.47468014570294
H           -5.18626479744348       -0.92507664848749        0.30649091448126
H           -4.33553286972386       -1.58832068232158       -1.10962332226212
H            1.03812100438141       -2.56729660908524        1.48803337629524
H            0.03862534103403       -3.52230278310280        0.37760487162663
H            1.75638426217897       -3.26302918966900        0.02454462503031
H           -0.49813100795396       -2.58317428003107       -1.93627316823015
H            0.01802319889941       -0.94207400364757       -2.36222142639277
H            1.21700151993233       -2.24841398574333       -2.25115698482043
H            2.52145683813704       -0.95429385036635        0.04260637943456
H            6.61634217192107        0.78991648642283       -0.40328491442889
H            6.77241356808117        2.49588425107244        0.08239646504417
H            6.21509135729718        1.26632781338091        1.24521044939279
H            0.36557738843530       -0.21838040519862        1.85996187860365
H           -3.73077369264075        0.54366371977407        3.23018040672377

          :  Hamiltonian                  GFN1-xTB          :
         :: total energy             -83.139481316990 Eh    ::
         :: gradient norm              0.000928928335 Eh/a0 ::
         :: HOMO-LUMO gap              0.943057767430 eV    ::
         :: SCC energy               -83.940083846616 Eh    ::
         :: -> Gsolv                  -0.110774131344 Eh    ::
         :: repulsion energy           0.829234819981 Eh    ::

    * Orbital Energies and Occupations

         #    Occupation            Energy/Eh            Energy/eV
      -------------------------------------------------------------
         1        2.0000           -0.9169123             -24.9505
       ...           ...                  ...                  ...
        55        2.0000           -0.5329739             -14.5030
        56        2.0000           -0.5313515             -14.4588
        57        2.0000           -0.5283800             -14.3780
        58        2.0000           -0.5183615             -14.1053
        59        2.0000           -0.5127625             -13.9530
        60        2.0000           -0.5090814             -13.8528
        61        2.0000           -0.4978082             -13.5461
        62        2.0000           -0.4937735             -13.4363
        63        2.0000           -0.4877958             -13.2736
        64        2.0000           -0.4797298             -13.0541
        65        2.0000           -0.4729915             -12.8708
        66        2.0000           -0.4604344             -12.5291
        67        2.0000           -0.4590674             -12.4919 (HOMO)
        68                         -0.4244106             -11.5488 (LUMO)
        69                         -0.3344763              -9.1016
        70                         -0.3239644              -8.8155
        71                         -0.3041350              -8.2759
        72                         -0.2679466              -7.2912
        73                         -0.2628995              -7.1539
        74                         -0.2103200              -5.7231
        75                         -0.1582335              -4.3058
        76                         -0.1552352              -4.2242
        77                         -0.1505598              -4.0969
        78                         -0.1467261              -3.9926
       ...                                ...                  ...
       136                          0.7586041              20.6427
      -------------------------------------------------------------
                  HL-Gap            0.0346567 Eh            0.9431 eV

Wiberg/Mayer (AO) data.
largest (>0.10) Wiberg bond orders for each atom

     #   Z sym  total        # sym  WBO       # sym  WBO       # sym  WBO
 ---------------------------------------------------------------------------
     1   6 C    3.815 --    26 H    0.983    27 H    0.977    28 H    0.970
                             2 O    0.834
     2   8 O    2.261 --     3 C    1.229     1 C    0.834     4 O    0.149
     3   6 C    3.857 --     4 O    1.744     2 O    1.229     5 C    0.701
     4   8 O    2.092 --     3 C    1.744     2 O    0.149
     5   6 C    3.957 --    24 C    1.116     7 N    1.008     6 C    0.956
                             3 C    0.701
     6   6 C    3.968 --    30 H    0.982    31 H    0.978    29 H    0.978
                             5 C    0.956
     7   7 N    3.027 --     8 C    1.685     5 C    1.008
     8   6 C    3.912 --     7 N    1.685    21 N    1.097     9 C    0.976
     9   6 C    3.935 --    11 C    0.988    10 C    0.976     8 C    0.976
                            12 N    0.932
    10   6 C    3.984 --    32 H    0.983    33 H    0.983    34 H    0.979
                             9 C    0.976
    11   6 C    3.985 --     9 C    0.988    37 H    0.984    35 H    0.983
                            36 H    0.981
    12   7 N    3.329 --    13 C    1.236     9 C    0.932    38 H    0.884
                            14 O    0.166
    13   6 C    3.912 --    14 O    1.579    12 N    1.236    15 C    1.006
    14   8 O    1.908 --    13 C    1.579    12 N    0.166
    15   6 C    3.877 --    16 N    1.613    20 O    1.047    13 C    1.006
    16   7 N    3.004 --    15 C    1.613    17 N    1.208
    17   7 N    2.982 --    18 C    1.600    16 N    1.208
    18   6 C    3.865 --    17 N    1.600    20 O    1.075    19 C    1.033
    19   6 C    3.985 --    18 C    1.033    40 H    0.982    41 H    0.962
                            39 H    0.960
    20   8 O    2.319 --    18 C    1.075    15 C    1.047
    21   7 N    3.487 --    22 C    1.202     8 C    1.097    42 H    0.864
                            23 O    0.167
    22   6 C    3.921 --    23 O    1.634    21 N    1.202    24 C    0.974
    23   8 O    1.966 --    22 C    1.634    21 N    0.167
    24   6 C    3.803 --    25 O    1.361     5 C    1.116    22 C    0.974
    25   8 O    2.281 --    24 C    1.361    43 H    0.744
    26   1 H    0.999 --     1 C    0.983
    27   1 H    1.002 --     1 C    0.977
    28   1 H    1.019 --     1 C    0.970
    29   1 H    0.994 --     6 C    0.978
    30   1 H    0.996 --     6 C    0.982
    31   1 H    1.001 --     6 C    0.978
    32   1 H    0.996 --    10 C    0.983
    33   1 H    0.997 --    10 C    0.983
    34   1 H    0.994 --    10 C    0.979
    35   1 H    1.004 --    11 C    0.983
    36   1 H    1.006 --    11 C    0.981
    37   1 H    0.998 --    11 C    0.984
    38   1 H    0.924 --    12 N    0.884
    39   1 H    0.996 --    19 C    0.960
    40   1 H    0.997 --    19 C    0.982
    41   1 H    0.996 --    19 C    0.962
    42   1 H    0.913 --    21 N    0.864
    43   1 H    0.787 --    25 O    0.744
 ---------------------------------------------------------------------------

           -------------------------------------------------
          | TOTAL ENERGY              -83.139481316990 Eh   |
          | GRADIENT NORM               0.000928928335 Eh/α |
          | HOMO-LUMO GAP               0.943057767430 eV   |
           -------------------------------------------------

 * finished run on 2023/06/20 at 15:29:38.567
