   * xtb version 6.5.1 (579679a) compiled by 'ehlert@majestix' on 2022-07-11
          program call               : /lustre/hpc/kemi/ree/PhD/git/ReactivityQM/dep/xtb-6.5.1/bin/xtb --gfn 1 /lustre/hpc/kemi/ree/PhD/git/ReactivityQM/calculations/RaltegravirCLI/reac02prodE11/conf10/RaltegravirCLI_reac02prodE11_conf10_gfn1.xyz --opt --vfukui --chrg -1 --uhf 0 --alpb DMSO

   ID    Z sym.   atoms
    1    6 C      1, 3-6, 9, 10, 13-17, 19-21, 23, 24
    2    7 N      2, 7, 8, 12
    3    8 O      11, 22, 25
    4    9 F      18
    5    1 H      26-47

      * Solvation model:               ALPB
        Solvent                        DMSO
        Solvent mass                       7.8130E+01 g/mol
          :  Hamiltonian                  GFN1-xTB          :
 * total energy  :   -80.1873727 Eh     change       -0.1330136E-10 Eh
 * total energy  :   -80.1969045 Eh     change       -0.9531831E-02 Eh
 * total energy  :   -80.1999313 Eh     change       -0.3026804E-02 Eh
 * total energy  :   -80.2008263 Eh     change       -0.8949840E-03 Eh
 * total energy  :   -80.2021475 Eh     change       -0.1321183E-02 Eh
 * total energy  :   -80.2040986 Eh     change       -0.1951173E-02 Eh
 * total energy  :   -80.2019678 Eh     change        0.2130785E-02 Eh
 * total energy  :   -80.2079758 Eh     change       -0.6007944E-02 Eh
 * total energy  :   -80.2105922 Eh     change       -0.2616433E-02 Eh
 * total energy  :   -80.2148339 Eh     change       -0.4241687E-02 Eh
 * total energy  :   -80.2275646 Eh     change       -0.1761799E-04 Eh
 * total energy  :   -80.2275808 Eh     change       -0.1620733E-04 Eh
 * total energy  :   -80.2275948 Eh     change       -0.1401001E-04 Eh
 * total energy  :   -80.2276132 Eh     change       -0.1836611E-04 Eh
 * total energy  :   -80.2276305 Eh     change       -0.1735092E-04 Eh
 * total energy  :   -80.2276406 Eh     change       -0.1007880E-04 Eh
 * total energy  :   -80.2276484 Eh     change       -0.7818282E-05 Eh
 * total energy  :   -80.2276558 Eh     change       -0.7316389E-05 Eh
 * total energy  :   -80.2276587 Eh     change       -0.2925930E-05 Eh
   *** GEOMETRY OPTIMIZATION CONVERGED AFTER 60 ITERATIONS ***

 final structure:
================
47
 xtb: 6.5.1 (579679a)
C           -3.18396663358458       -0.05337788571545        2.05443562185518
N           -2.07113633624463       -0.27551891651333        1.13881043210819
C           -2.05414709000796        0.19524575676738       -0.18047217679255
C           -3.11213494110102        1.15330329015607       -0.75418304410765
C           -4.56108137285386        0.67770122673899       -0.57779787156562
C           -2.92249260924439        2.56841295673655       -0.18150664371213
N           -2.89399320296588        1.25676984029140       -2.20056996314759
N           -1.07282228680944       -0.05278942974308       -0.96657533301062
C            0.04577572142191       -0.80548735886196       -0.54797260099227
C            1.21266429319129       -0.68669640345408       -1.39881348480028
O            1.28781942555463        0.06373274774242       -2.38470439590406
N            2.27438961652107       -1.52264228879018       -1.08619601920369
C            3.58708228389575       -1.20897249398388       -1.62937361232962
C            4.23700958400194       -0.09362211442043       -0.83591620335031
C            5.07281025427693       -0.38978409702059        0.23902577910711
C            5.63825153967998        0.62452091231947        1.00096395777838
C            5.34565645417983        1.93328875099657        0.66541943787975
F            5.89135172330453        2.92548605789191        1.39703344136385
C            4.51989860802830        2.26660922874472       -0.39364927198673
C            3.96481946874755        1.23913025445476       -1.14314146464183
C           -0.01745290773421       -1.52593500949989        0.63418114796456
O            0.89512374746334       -2.15472131899091        1.23368784045032
C           -1.41090974078575       -1.57311372655876        1.31600587928960
C           -2.24931511304122       -2.71689837012879        0.70061665369861
O           -1.20073867888387       -1.82785883693558        2.68025062911924
H           -4.05876564135572       -0.66327428909930        1.80489333360689
H           -2.85614513002129       -0.31632727016473        3.06175588410412
H           -3.46466238406780        0.99773014512234        2.05880970155970
H           -5.18466678859929        1.16663601136528       -1.32755478704474
H           -4.63047159183361       -0.40019032426804       -0.72233679514235
H           -4.96107263814052        0.93056243337692        0.40114072516113
H           -3.15729201746049        2.60811638604403        0.88012965721156
H           -3.57919248900708        3.26092123963049       -0.70842408403892
H           -1.89034515549122        2.88970333694224       -0.32318364709363
H           -1.89654084341225        1.39661189323929       -2.36468550284271
H           -3.13479288146766        0.36910892839157       -2.62664936847009
H            2.28736445126609       -1.91022620988437       -0.14766949669766
H            4.20295501850469       -2.11190445809738       -1.58647847131789
H            3.46848440183964       -0.91155964265492       -2.67681050325030
H            5.29414799814368       -1.42239018525362        0.48399536635885
H            6.29385708097407        0.40653718769493        1.83351027977053
H            4.32309184284406        3.30590790587779       -0.62426804381182
H            3.31066704734443        1.47544994510254       -1.97607211356954
H           -0.25816139575705       -2.10494643905341        2.73905659862457
H           -3.18396777412666       -2.83553330476791        1.24555010245003
H           -2.46474783994121       -2.50431002020209       -0.34477649808299
H           -1.68220407725112       -3.64340304157607        0.77192092744473

          :  Hamiltonian                  GFN1-xTB          :
         :: total energy             -80.227658681384 Eh    ::
         :: gradient norm              0.000885899083 Eh/a0 ::
         :: HOMO-LUMO gap              1.941739894061 eV    ::
         :: SCC energy               -81.078793761617 Eh    ::
         :: -> Gsolv                  -0.096434452087 Eh    ::
         :: repulsion energy           0.882480191559 Eh    ::

    * Orbital Energies and Occupations

         #    Occupation            Energy/Eh            Energy/eV
      -------------------------------------------------------------
         1        2.0000           -0.8528951             -23.2085
       ...           ...                  ...                  ...
        56        2.0000           -0.4591400             -12.4938
        57        2.0000           -0.4544155             -12.3653
        58        2.0000           -0.4455713             -12.1246
        59        2.0000           -0.4424037             -12.0384
        60        2.0000           -0.4376517             -11.9091
        61        2.0000           -0.4242082             -11.5433
        62        2.0000           -0.4085326             -11.1167
        63        2.0000           -0.3995780             -10.8731
        64        2.0000           -0.3920239             -10.6675
        65        2.0000           -0.3880345             -10.5590
        66        2.0000           -0.3765849             -10.2474
        67        2.0000           -0.3667054              -9.9786
        68        2.0000           -0.3310376              -9.0080 (HOMO)
        69                         -0.2596799              -7.0663 (LUMO)
        70                         -0.2520339              -6.8582
        71                         -0.2255302              -6.1370
        72                         -0.2074379              -5.6447
        73                         -0.1316804              -3.5832
        74                         -0.1233448              -3.3564
        75                         -0.1139685              -3.1012
        76                         -0.1092052              -2.9716
        77                         -0.1013088              -2.7568
        78                         -0.1005684              -2.7366
        79                         -0.0973575              -2.6492
       ...                                ...                  ...
       144                          0.7049102              19.1816
      -------------------------------------------------------------
                  HL-Gap            0.0713576 Eh            1.9417 eV

Wiberg/Mayer (AO) data.
largest (>0.10) Wiberg bond orders for each atom

     #   Z sym  total        # sym  WBO       # sym  WBO       # sym  WBO
 ---------------------------------------------------------------------------
     1   6 C    3.967 --    27 H    0.980    28 H    0.980    26 H    0.979
                             2 N    0.963
     2   7 N    3.234 --     3 C    1.083     1 C    0.963    23 C    0.927
                             8 N    0.135
     3   6 C    3.939 --     8 N    1.676     2 N    1.083     4 C    0.961
     4   6 C    3.967 --     5 C    0.994     7 N    0.988     6 C    0.987
                             3 C    0.961
     5   6 C    3.995 --     4 C    0.994    30 H    0.986    29 H    0.985
                            31 H    0.983
     6   6 C    3.995 --     4 C    0.987    33 H    0.986    34 H    0.986
                            32 H    0.980
     7   7 N    2.957 --     4 C    0.988    36 H    0.952    35 H    0.938
     8   7 N    3.033 --     3 C    1.676     9 C    1.058     2 N    0.135
     9   6 C    3.900 --    21 C    1.392    10 C    1.140     8 N    1.058
                            22 O    0.125
    10   6 C    3.900 --    11 O    1.507     9 C    1.140    12 N    1.133
    11   8 O    1.816 --    10 C    1.507    12 N    0.114
    12   7 N    3.224 --    10 C    1.133    13 C    0.961    37 H    0.892
                            11 O    0.114
    13   6 C    3.970 --    14 C    0.994    38 H    0.979    39 H    0.973
                            12 N    0.961
    14   6 C    3.987 --    15 C    1.419    20 C    1.413    13 C    0.994
    15   6 C    3.994 --    16 C    1.439    14 C    1.419    40 H    0.972
                            19 C    0.110
    16   6 C    3.992 --    15 C    1.439    17 C    1.405    41 H    0.970
                            20 C    0.111
    17   6 C    3.856 --    16 C    1.405    19 C    1.400    18 F    0.914
    18   9 F    1.039 --    17 C    0.914
    19   6 C    3.992 --    20 C    1.446    17 C    1.400    42 H    0.971
                            15 C    0.110
    20   6 C    3.992 --    19 C    1.446    14 C    1.413    43 H    0.968
                            16 C    0.111
    21   6 C    3.934 --    22 O    1.441     9 C    1.392    23 C    0.914
    22   8 O    1.854 --    21 C    1.441     9 C    0.125
    23   6 C    3.883 --    25 O    0.967    24 C    0.967     2 N    0.927
                            21 C    0.914
    24   6 C    3.994 --    46 H    0.987    47 H    0.986    45 H    0.984
                            23 C    0.967
    25   8 O    1.900 --    23 C    0.967    44 H    0.818
    26   1 H    1.008 --     1 C    0.979
    27   1 H    1.020 --     1 C    0.980
    28   1 H    1.016 --     1 C    0.980
    29   1 H    1.009 --     5 C    0.985
    30   1 H    1.006 --     5 C    0.986
    31   1 H    1.008 --     5 C    0.983
    32   1 H    1.009 --     6 C    0.980
    33   1 H    1.011 --     6 C    0.986
    34   1 H    1.008 --     6 C    0.986
    35   1 H    0.993 --     7 N    0.938
    36   1 H    0.976 --     7 N    0.952
    37   1 H    0.969 --    12 N    0.892
    38   1 H    1.010 --    13 C    0.979
    39   1 H    1.020 --    13 C    0.973
    40   1 H    1.001 --    15 C    0.972
    41   1 H    0.999 --    16 C    0.970
    42   1 H    1.000 --    19 C    0.971
    43   1 H    1.018 --    20 C    0.968
    44   1 H    0.889 --    25 O    0.818
    45   1 H    1.007 --    24 C    0.984
    46   1 H    1.008 --    24 C    0.987
    47   1 H    1.009 --    24 C    0.986
 ---------------------------------------------------------------------------

           -------------------------------------------------
          | TOTAL ENERGY              -80.227658681384 Eh   |
          | GRADIENT NORM               0.000885899083 Eh/α |
          | HOMO-LUMO GAP               1.941739894061 eV   |
           -------------------------------------------------

 * finished run on 2023/06/20 at 15:13:18.428
