   * xtb version 6.5.1 (579679a) compiled by 'ehlert@majestix' on 2022-07-11
          program call               : /lustre/hpc/kemi/ree/PhD/git/ReactivityQM/dep/xtb-6.5.1/bin/xtb --gfn 1 /lustre/hpc/kemi/ree/PhD/git/ReactivityQM/calculations/R02deprot/reac01prodE04/conf06/R02deprot_reac01prodE04_conf06_gfn1.xyz --opt --vfukui --chrg -2 --uhf 0 --alpb DMSO

   ID    Z sym.   atoms
    1    6 C      1, 3, 5, 6, 8-11, 13, 15, 18, 19, 22, 24
    2    8 O      2, 4, 14, 20, 23, 25
    3    7 N      7, 12, 16, 17, 21
    4    1 H      26-42

      * Solvation model:               ALPB
        Solvent                        DMSO
        Solvent mass                       7.8130E+01 g/mol
          :  Hamiltonian                  GFN1-xTB          :
 * total energy  :   -83.5714633 Eh     change       -0.1378453E-10 Eh
 * total energy  :   -83.5888690 Eh     change       -0.1740573E-01 Eh
 * total energy  :   -83.5955656 Eh     change       -0.6696605E-02 Eh
 * total energy  :   -83.5970092 Eh     change       -0.1443648E-02 Eh
 * total energy  :   -83.5977699 Eh     change       -0.7606564E-03 Eh
 * total energy  :   -83.5980870 Eh     change       -0.3170570E-03 Eh
 * total energy  :   -83.5982885 Eh     change       -0.2014946E-03 Eh
 * total energy  :   -83.5984802 Eh     change       -0.1917925E-03 Eh
 * total energy  :   -83.5986798 Eh     change       -0.1995670E-03 Eh
 * total energy  :   -83.5989230 Eh     change       -0.2431414E-03 Eh
 * total energy  :   -83.6018287 Eh     change       -0.2275716E-04 Eh
 * total energy  :   -83.6018391 Eh     change       -0.1046722E-04 Eh
 * total energy  :   -83.6018491 Eh     change       -0.9994731E-05 Eh
 * total energy  :   -83.6018669 Eh     change       -0.1780235E-04 Eh
 * total energy  :   -83.6018763 Eh     change       -0.9335201E-05 Eh
 * total energy  :   -83.6018922 Eh     change       -0.1594910E-04 Eh
 * total energy  :   -83.6019007 Eh     change       -0.8476035E-05 Eh
 * total energy  :   -83.6019137 Eh     change       -0.1304589E-04 Eh
 * total energy  :   -83.6019179 Eh     change       -0.4186449E-05 Eh
   *** GEOMETRY OPTIMIZATION CONVERGED AFTER 51 ITERATIONS ***

 final structure:
================
42
 xtb: 6.5.1 (579679a)
C           -4.41241140347193       -1.86997733362083        2.10735438415496
O           -3.72741880482615       -1.79415755229124        0.86512969656415
C           -2.73807046970384       -0.85951507367272        0.77938132086398
O           -2.43729403306060       -0.17573407559745        1.74724962949074
C           -2.23664331024871       -0.65996718177744       -0.66097717641543
C           -2.18873338806550       -1.99358535355180       -1.42925486709645
N           -0.91764057143523       -0.05731541250212       -0.64329767288660
C           -0.84758444443316        1.24595447467206       -0.78362085460892
C            0.55998669593715        1.85640882901377       -0.65473700982979
C            0.54013574822107        2.92174668813064        0.45129319145559
C            0.95173314327594        2.48995984470060       -1.99845514608999
N            1.48788180277250        0.78574942997131       -0.30892476398223
C            2.81384258093133        0.92632424559437       -0.11685256517226
O            3.43441069438483        1.99633862916273       -0.19469499084494
C            3.45097528389596       -0.35252045286753        0.21450793041767
N            2.84390437332256       -1.50855195102356        0.38003659106743
N            3.81477298399655       -2.42098885157778        0.68884094088172
C            4.94096521651040       -1.78424341522488        0.69476608451529
C            6.28645043037317       -2.34295607700052        0.96691639966130
O            4.79739059650766       -0.47499486387406        0.40659465559365
N           -1.78458490378088        2.14528944697333       -1.04622329096890
C           -3.07274889847918        1.66188296224324       -1.30573013779203
O           -3.99733871876487        2.44184138509285       -1.70581495623085
C           -3.27723522114037        0.28897889104371       -1.16727838612666
O           -4.54726685240228       -0.24364920230198       -1.47822323079886
H           -4.90584860918358       -0.92069919539203        2.34142183579464
H           -3.71894204560776       -2.11517481744468        2.91867752679962
H           -5.15873733169370       -2.65785364155787        2.01528508827136
H           -3.17754124024274       -2.44763299997634       -1.47302889074620
H           -1.49956260548690       -2.68313587785659       -0.94204168266104
H           -1.83939074945237       -1.80795739171729       -2.44458689174570
H           -0.24854212549689        3.64196630753519        0.22992289092744
H            1.49412344974075        3.44454504761570        0.50962140641819
H            0.33232725300746        2.45711798592547        1.41589260334202
H            0.17285063360220        3.19379096507617       -2.29470208246434
H            1.03965422705191        1.71935503883332       -2.76453937531874
H            1.90087590532231        3.01943085640447       -1.92125476118506
H            1.07095006977780       -0.14552689140788       -0.26762811286519
H            6.19188571475677       -3.37174274972799        1.30541629149429
H            6.79310458462421       -1.75302189333913        1.72953758415299
H            6.89489584608184       -2.31860432610607        0.06274916036904
H           -5.07958150712154        0.52282655343088       -1.75377036640494

          :  Hamiltonian                  GFN1-xTB          :
         :: total energy             -83.601917919572 Eh    ::
         :: gradient norm              0.000559004260 Eh/a0 ::
         :: HOMO-LUMO gap              0.092132791784 eV    ::
         :: SCC energy               -84.326780213979 Eh    ::
         :: -> Gsolv                  -0.278585437217 Eh    ::
         :: repulsion energy           0.751126092869 Eh    ::

    * Orbital Energies and Occupations

         #    Occupation            Energy/Eh            Energy/eV
      -------------------------------------------------------------
         1        2.0000           -0.8252148             -22.4552
       ...           ...                  ...                  ...
        56        2.0000           -0.4371193             -11.8946
        57        2.0000           -0.4331025             -11.7853
        58        2.0000           -0.4237665             -11.5313
        59        2.0000           -0.4233629             -11.5203
        60        2.0000           -0.4184689             -11.3871
        61        2.0000           -0.4091201             -11.1327
        62        2.0000           -0.4035422             -10.9809
        63        2.0000           -0.3933155             -10.7027
        64        2.0000           -0.3825951             -10.4109
        65        2.0000           -0.3510697              -9.5531
        66        2.0000           -0.3237686              -8.8102
        67        2.0000           -0.3225316              -8.7765
        68        1.7119           -0.2771023              -7.5403 (HOMO)
        69        0.2881           -0.2737165              -7.4482 (LUMO)
        70                         -0.2273435              -6.1863
        71                         -0.2113652              -5.7515
        72                         -0.1696717              -4.6170
        73                         -0.1552259              -4.2239
        74                         -0.1315576              -3.5799
        75                         -0.1199519              -3.2641
        76                         -0.0935672              -2.5461
        77                         -0.0896968              -2.4408
        78                         -0.0872606              -2.3745
        79                         -0.0816646              -2.2222
       ...                                ...                  ...
       134                          0.7113677              19.3573
      -------------------------------------------------------------
                  HL-Gap            0.0033858 Eh            0.0921 eV

Wiberg/Mayer (AO) data.
largest (>0.10) Wiberg bond orders for each atom

     #   Z sym  total        # sym  WBO       # sym  WBO       # sym  WBO
 ---------------------------------------------------------------------------
     1   6 C    3.902 --    28 H    0.987    27 H    0.981    26 H    0.981
                             2 O    0.925
     2   8 O    2.147 --     3 C    1.035     1 C    0.925     4 O    0.106
     3   6 C    3.768 --     4 O    1.605     2 O    1.035     5 C    0.910
                            24 C    0.110
     4   8 O    1.861 --     3 C    1.605     2 O    0.106
     5   6 C    3.972 --     7 N    0.992     6 C    0.977    24 C    0.964
                             3 C    0.910
     6   6 C    3.984 --    30 H    0.988    31 H    0.987    29 H    0.986
                             5 C    0.977
     7   7 N    2.890 --     8 C    1.490     5 C    0.992    21 N    0.173
     8   6 C    3.957 --     7 N    1.490    21 N    1.397     9 C    0.953
     9   6 C    3.925 --    10 C    0.987    11 C    0.985     8 C    0.953
                            12 N    0.926
    10   6 C    3.995 --    34 H    0.987     9 C    0.987    33 H    0.985
                            32 H    0.984
    11   6 C    3.994 --    36 H    0.987     9 C    0.985    37 H    0.985
                            35 H    0.984
    12   7 N    3.312 --    13 C    1.251     9 C    0.926    38 H    0.879
                            14 O    0.163
    13   6 C    3.852 --    14 O    1.489    12 N    1.251    15 C    1.041
    14   8 O    1.774 --    13 C    1.489    12 N    0.163
    15   6 C    3.749 --    16 N    1.512    13 C    1.041    20 O    1.015
    16   7 N    2.868 --    15 C    1.512    17 N    1.185
    17   7 N    2.980 --    18 C    1.625    16 N    1.185
    18   6 C    3.845 --    17 N    1.625    20 O    1.065    19 C    1.026
    19   6 C    3.992 --    18 C    1.026    39 H    0.984    40 H    0.971
                            41 H    0.966
    20   8 O    2.245 --    18 C    1.065    15 C    1.015
    21   7 N    2.869 --     8 C    1.397    22 C    1.091     7 N    0.173
    22   6 C    3.914 --    23 O    1.358    24 C    1.342    21 N    1.091
    23   8 O    1.655 --    22 C    1.358    24 C    0.103
    24   6 C    3.610 --    22 C    1.342     5 C    0.964    25 O    0.954
                             3 C    0.110    23 O    0.103
    25   8 O    1.898 --    24 C    0.954    42 H    0.853
    26   1 H    1.013 --     1 C    0.981
    27   1 H    1.015 --     1 C    0.981
    28   1 H    1.016 --     1 C    0.987
    29   1 H    1.018 --     6 C    0.986
    30   1 H    1.013 --     6 C    0.988
    31   1 H    1.017 --     6 C    0.987
    32   1 H    1.028 --    10 C    0.984
    33   1 H    1.017 --    10 C    0.985
    34   1 H    1.009 --    10 C    0.987
    35   1 H    1.025 --    11 C    0.984
    36   1 H    1.009 --    11 C    0.987
    37   1 H    1.016 --    11 C    0.985
    38   1 H    1.001 --    12 N    0.879
    39   1 H    1.002 --    19 C    0.984
    40   1 H    1.000 --    19 C    0.971
    41   1 H    0.999 --    19 C    0.966
    42   1 H    0.905 --    25 O    0.853
 ---------------------------------------------------------------------------

           -------------------------------------------------
          | TOTAL ENERGY              -83.601917919572 Eh   |
          | GRADIENT NORM               0.000559004260 Eh/α |
          | HOMO-LUMO GAP               0.092132791784 eV   |
           -------------------------------------------------

 * finished run on 2023/06/20 at 17:37:32.735
