                         Program Version 5.0.1 -  RELEASE  -
|  1> # ORCA input file
|  2> ! SP r2SCAN-3c CPCM
|  3>
|  4> %maxcore 1875.0
|  5> %pal nprocs 4 end
|  6> %cpcm smd true SMDsolvent "DMSO" end
|  7>
|  8> *xyz 1 1
|  9> C       5.868157    0.965559    1.816099
| 10> O       4.629729    0.471320    1.290778
| 11> C       4.561844    0.318842   -0.022310
| 12> O       5.486421    0.578143   -0.773366
| 13> C       3.262725   -0.206971   -0.503190
| 14> N       2.293439   -0.450683    0.439510
| 15> C       1.159427   -0.920071    0.051300
| 16> C       0.104112   -1.260519    1.080840
| 17> C       0.240574   -0.350138    2.303719
| 18> C       0.253612   -2.736042    1.466438
| 19> N      -1.232302   -1.097185    0.486906
| 20> C      -1.649301    0.067475   -0.024351
| 21> O      -0.982945    1.072936   -0.173612
| 22> C      -3.082409   -0.006216   -0.442820
| 23> N      -3.889356   -0.997539   -0.394803
| 24> N      -5.100784   -0.604821   -0.890034
| 25> C      -5.030811    0.623711   -1.237116
| 26> C      -6.069439    1.488129   -1.817286
| 27> O      -3.738570    1.100555   -0.981319
| 28> C      -3.177300    2.439700   -1.179819
| 29> N       0.894653   -1.211587   -1.253346
| 30> C       1.774831   -0.992455   -2.298728
| 31> O       1.462690   -1.253994   -3.445517
| 32> C       3.057683   -0.443544   -1.841695
| 33> O       3.966688   -0.213049   -2.786735
| 34> H       5.748989    1.012667    2.896431
| 35> H       6.074620    1.958389    1.410329
| 36> H       6.682306    0.287573    1.550084
| 37> H      -0.529662   -0.592023    3.032673
| 38> H       1.223270   -0.498823    2.749001
| 39> H       0.142623    0.692882    2.008318
| 40> H      -0.494114   -3.002348    2.211108
| 41> H       0.125315   -3.367668    0.588892
| 42> H       1.245481   -2.903738    1.883927
| 43> H      -1.901195   -1.840020    0.612032
| 44> H      -6.974655    0.898274   -1.952686
| 45> H      -5.744373    1.884362   -2.779721
| 46> H      -6.279379    2.328396   -1.154533
| 47> H      -2.335190    2.340327   -1.861570
| 48> H      -3.969962    3.049356   -1.601674
| 49> H      -2.860074    2.804799   -0.205325
| 50> H      -0.009057   -1.584074   -1.497247
| 51> H       4.791688    0.150111   -2.383741
| 52> **                         ****END OF INPUT****

CARTESIAN COORDINATES (ANGSTROEM)
---------------------------------
  C      5.868157    0.965559    1.816099
  O      4.629729    0.471320    1.290778
  C      4.561844    0.318842   -0.022310
  O      5.486421    0.578143   -0.773366
  C      3.262725   -0.206971   -0.503190
  N      2.293439   -0.450683    0.439510
  C      1.159427   -0.920071    0.051300
  C      0.104112   -1.260519    1.080840
  C      0.240574   -0.350138    2.303719
  C      0.253612   -2.736042    1.466438
  N     -1.232302   -1.097185    0.486906
  C     -1.649301    0.067475   -0.024351
  O     -0.982945    1.072936   -0.173612
  C     -3.082409   -0.006216   -0.442820
  N     -3.889356   -0.997539   -0.394803
  N     -5.100784   -0.604821   -0.890034
  C     -5.030811    0.623711   -1.237116
  C     -6.069439    1.488129   -1.817286
  O     -3.738570    1.100555   -0.981319
  C     -3.177300    2.439700   -1.179819
  N      0.894653   -1.211587   -1.253346
  C      1.774831   -0.992455   -2.298728
  O      1.462690   -1.253994   -3.445517
  C      3.057683   -0.443544   -1.841695
  O      3.966688   -0.213049   -2.786735
  H      5.748989    1.012667    2.896431
  H      6.074620    1.958389    1.410329
  H      6.682306    0.287573    1.550084
  H     -0.529662   -0.592023    3.032673
  H      1.223270   -0.498823    2.749001
  H      0.142623    0.692882    2.008318
  H     -0.494114   -3.002348    2.211108
  H      0.125315   -3.367668    0.588892
  H      1.245481   -2.903738    1.883927
  H     -1.901195   -1.840020    0.612032
  H     -6.974655    0.898274   -1.952686
  H     -5.744373    1.884362   -2.779721
  H     -6.279379    2.328396   -1.154533
  H     -2.335190    2.340327   -1.861570
  H     -3.969962    3.049356   -1.601674
  H     -2.860074    2.804799   -0.205325
  H     -0.009057   -1.584074   -1.497247
  H      4.791688    0.150111   -2.383741

 Total Charge           Charge          ....    1
 Multiplicity           Mult            ....    1
 Number of Electrons    NEL             ....  184
 Basis Dimension        Dim             ....  620

ORBITAL ENERGIES
----------------

  NO   OCC          E(Eh)            E(eV)
   0   2.0000     -19.187134      -522.1085
   1   2.0000     -19.013035      -517.3710
   2   2.0000     -18.999021      -516.9897
   3   2.0000     -18.964732      -516.0566
   4   2.0000     -18.959605      -515.9171
   5   2.0000     -18.935688      -515.2663
   6   2.0000     -14.254318      -387.8797
   7   2.0000     -14.243981      -387.5984
   8   2.0000     -14.229897      -387.2152
   9   2.0000     -14.222244      -387.0069
  10   2.0000     -14.169568      -385.5735
  11   2.0000     -10.204014      -277.6653
  12   2.0000     -10.200706      -277.5753
  13   2.0000     -10.189225      -277.2629
  14   2.0000     -10.177014      -276.9306
  15   2.0000     -10.154888      -276.3286
  16   2.0000     -10.139485      -275.9094
  17   2.0000     -10.130393      -275.6620
  18   2.0000     -10.128268      -275.6042
  19   2.0000     -10.114384      -275.2264
  20   2.0000     -10.096044      -274.7273
  21   2.0000     -10.082095      -274.3478
  22   2.0000     -10.070415      -274.0299
  23   2.0000     -10.033606      -273.0283
  24   2.0000     -10.024525      -272.7812
  25   2.0000      -1.236396       -33.6441
  26   2.0000      -1.092602       -29.7312
  27   2.0000      -1.057491       -28.7758
  28   2.0000      -1.055402       -28.7190
  29   2.0000      -1.047207       -28.4959
  30   2.0000      -1.024831       -27.8871
  31   2.0000      -1.000615       -27.2281
  32   2.0000      -0.973599       -26.4930
  33   2.0000      -0.936446       -25.4820
  34   2.0000      -0.887117       -24.1397
  35   2.0000      -0.884478       -24.0679
  36   2.0000      -0.799824       -21.7643
  37   2.0000      -0.789838       -21.4926
  38   2.0000      -0.757141       -20.6029
  39   2.0000      -0.746313       -20.3082
  40   2.0000      -0.717803       -19.5324
  41   2.0000      -0.716566       -19.4988
  42   2.0000      -0.673009       -18.3135
  43   2.0000      -0.660325       -17.9684
  44   2.0000      -0.655439       -17.8354
  45   2.0000      -0.644696       -17.5431
  46   2.0000      -0.615430       -16.7467
  47   2.0000      -0.572770       -15.5859
  48   2.0000      -0.571823       -15.5601
  49   2.0000      -0.568952       -15.4820
  50   2.0000      -0.568057       -15.4576
  51   2.0000      -0.553189       -15.0530
  52   2.0000      -0.548996       -14.9389
  53   2.0000      -0.539609       -14.6835
  54   2.0000      -0.502411       -13.6713
  55   2.0000      -0.491190       -13.3660
  56   2.0000      -0.467630       -12.7249
  57   2.0000      -0.464261       -12.6332
  58   2.0000      -0.458353       -12.4724
  59   2.0000      -0.454036       -12.3549
  60   2.0000      -0.449845       -12.2409
  61   2.0000      -0.447247       -12.1702
  62   2.0000      -0.441927       -12.0254
  63   2.0000      -0.432061       -11.7570
  64   2.0000      -0.429940       -11.6993
  65   2.0000      -0.425387       -11.5754
  66   2.0000      -0.413608       -11.2549
  67   2.0000      -0.410298       -11.1648
  68   2.0000      -0.405676       -11.0390
  69   2.0000      -0.398574       -10.8457
  70   2.0000      -0.391412       -10.6509
  71   2.0000      -0.384841       -10.4721
  72   2.0000      -0.378880       -10.3098
  73   2.0000      -0.371616       -10.1122
  74   2.0000      -0.369736       -10.0610
  75   2.0000      -0.367467        -9.9993
  76   2.0000      -0.363002        -9.8778
  77   2.0000      -0.359483        -9.7820
  78   2.0000      -0.346833        -9.4378
  79   2.0000      -0.345587        -9.4039
  80   2.0000      -0.331770        -9.0279
  81   2.0000      -0.330625        -8.9968
  82   2.0000      -0.308688        -8.3998
  83   2.0000      -0.304753        -8.2928
  84   2.0000      -0.292642        -7.9632
  85   2.0000      -0.285851        -7.7784
  86   2.0000      -0.284468        -7.7408
  87   2.0000      -0.275314        -7.4917
  88   2.0000      -0.270111        -7.3501
  89   2.0000      -0.249812        -6.7977
  90   2.0000      -0.247470        -6.7340
  91   2.0000      -0.215092        -5.8530
  92   0.0000      -0.132472        -3.6047
  93   0.0000      -0.098981        -2.6934
  94   0.0000      -0.061974        -1.6864
  95   0.0000      -0.043098        -1.1728
  96   0.0000      -0.024147        -0.6571

MULLIKEN ATOMIC CHARGES
-----------------------
   0 C :   -0.310426
   1 O :   -0.185935
   2 C :    0.222325
   3 O :   -0.481202
   4 C :    0.123663
   5 N :   -0.149401
   6 C :    0.259645
   7 C :    0.036016
   8 C :   -0.591019
   9 C :   -0.549760
  10 N :   -0.131221
  11 C :   -0.003594
  12 O :   -0.468002
  13 C :    0.404200
  14 N :   -0.078130
  15 N :   -0.230348
  16 C :    0.476858
  17 C :   -0.667335
  18 O :    0.106647
  19 C :   -0.234963
  20 N :   -0.047628
  21 C :    0.061289
  22 O :   -0.392234
  23 C :    0.053900
  24 O :   -0.357133
  25 H :    0.180588
  26 H :    0.180774
  27 H :    0.180287
  28 H :    0.191937
  29 H :    0.190954
  30 H :    0.197425
  31 H :    0.193795
  32 H :    0.195251
  33 H :    0.200784
  34 H :    0.336545
  35 H :    0.227645
  36 H :    0.230834
  37 H :    0.233341
  38 H :    0.231630
  39 H :    0.225849
  40 H :    0.230770
  41 H :    0.328712
  42 H :    0.376669
Sum of atomic charges:    1.0000000

LOEWDIN ATOMIC CHARGES
----------------------
   0 C :   -0.030986
   1 O :   -0.555963
   2 C :    0.408934
   3 O :   -0.463400
   4 C :    0.195740
   5 N :   -0.553308
   6 C :    0.352000
   7 C :    0.109479
   8 C :   -0.339058
   9 C :   -0.332487
  10 N :   -0.551106
  11 C :    0.386556
  12 O :   -0.436439
  13 C :    0.483358
  14 N :   -0.276886
  15 N :   -0.282892
  16 C :    0.447403
  17 C :   -0.297863
  18 O :   -0.544049
  19 C :    0.082044
  20 N :   -0.439683
  21 C :    0.374010
  22 O :   -0.434358
  23 C :    0.283297
  24 O :   -0.439794
  25 H :    0.188541
  26 H :    0.184880
  27 H :    0.184951
  28 H :    0.172119
  29 H :    0.180990
  30 H :    0.181625
  31 H :    0.177317
  32 H :    0.177123
  33 H :    0.181306
  34 H :    0.308780
  35 H :    0.210501
  36 H :    0.207279
  37 H :    0.208214
  38 H :    0.222716
  39 H :    0.220442
  40 H :    0.221969
  41 H :    0.310824
  42 H :    0.315875

  Mayer bond orders larger than 0.100000
B(  0-C ,  1-O ) :   0.8233 B(  0-C , 25-H ) :   0.9607 B(  0-C , 26-H ) :   0.9539
B(  0-C , 27-H ) :   0.9542 B(  1-O ,  2-C ) :   1.2054 B(  2-C ,  3-O ) :   1.7206
B(  2-C ,  4-C ) :   1.0722 B(  4-C ,  5-N ) :   1.0182 B(  4-C , 23-C ) :   1.3180
B(  5-N ,  6-C ) :   1.6750 B(  6-C ,  7-C ) :   0.7751 B(  6-C , 20-N ) :   1.0880
B(  6-C , 23-C ) :   0.1113 B(  7-C ,  8-C ) :   0.9224 B(  7-C ,  9-C ) :   0.9372
B(  7-C , 10-N ) :   0.7767 B(  8-C , 28-H ) :   0.9709 B(  8-C , 29-H ) :   0.9551
B(  8-C , 30-H ) :   0.9594 B(  9-C , 31-H ) :   0.9587 B(  9-C , 32-H ) :   0.9537
B(  9-C , 33-H ) :   0.9611 B( 10-N , 11-C ) :   1.1946 B( 10-N , 12-O ) :   0.1178
B( 10-N , 34-H ) :   0.8874 B( 11-C , 12-O ) :   1.6990 B( 11-C , 13-C ) :   0.8469
B( 13-C , 14-N ) :   1.7515 B( 13-C , 18-O ) :   0.9927 B( 14-N , 15-N ) :   1.0433
B( 15-N , 16-C ) :   1.6622 B( 16-C , 17-C ) :   0.8380 B( 16-C , 18-O ) :   0.9034
B( 17-C , 35-H ) :   0.9433 B( 17-C , 36-H ) :   0.9291 B( 17-C , 37-H ) :   0.9256
B( 18-O , 19-C ) :   0.7894 B( 19-C , 38-H ) :   0.9135 B( 19-C , 39-H ) :   0.9150
B( 19-C , 40-H ) :   0.9138 B( 20-N , 21-C ) :   1.0204 B( 20-N , 41-H ) :   0.8829
B( 21-C , 22-O ) :   2.0634 B( 21-C , 23-C ) :   0.9797 B( 23-C , 24-O ) :   1.1650
B( 24-O , 42-H ) :   0.7638

Dispersion correction           -0.019087125
FINAL SINGLE POINT ENERGY     -1269.016197926391

DIPOLE MOMENT
-------------
                                X             Y             Z
Electronic contribution:      0.60342      -2.69429     -11.18362
Nuclear contribution   :     -8.72330       5.40033      12.71681
                        -----------------------------------------
Total Dipole Moment    :     -8.11988       2.70604       1.53318
                        -----------------------------------------
Magnitude (a.u.)       :      8.69515
Magnitude (Debye)      :     22.10133

Rotational constants in cm-1:     0.014658     0.003546     0.003349
Rotational constants in MHz :   439.433199   106.320802   100.413220

                             ****ORCA TERMINATED NORMALLY****
TOTAL RUN TIME: 0 days 0 hours 2 minutes 28 seconds 407 msec
