   * xtb version 6.5.1 (579679a) compiled by 'ehlert@majestix' on 2022-07-11
          program call               : /lustre/hpc/kemi/ree/PhD/git/ReactivityQM/dep/xtb-6.5.1/bin/xtb --gfn 1 /lustre/hpc/kemi/ree/PhD/git/ReactivityQM/calculations/R02/reac01prodN01/conf12/R02_reac01prodN01_conf12_gfn1.xyz --opt --vfukui --chrg 1 --uhf 0 --alpb DMSO

   ID    Z sym.   atoms
    1    6 C      1, 3, 5, 7-10, 12, 14, 17, 18, 20, 22, 24
    2    8 O      2, 4, 13, 19, 23, 25
    3    7 N      6, 11, 15, 16, 21
    4    1 H      26-43

      * Solvation model:               ALPB
        Solvent                        DMSO
        Solvent mass                       7.8130E+01 g/mol
          :  Hamiltonian                  GFN1-xTB          :
 * total energy  :   -83.0838006 Eh     change       -0.1762146E-11 Eh
 * total energy  :   -83.1026078 Eh     change       -0.1880727E-01 Eh
 * total energy  :   -83.1115050 Eh     change       -0.8897189E-02 Eh
 * total energy  :   -83.1144599 Eh     change       -0.2954841E-02 Eh
 * total energy  :   -83.1163683 Eh     change       -0.1908470E-02 Eh
 * total energy  :   -83.1173283 Eh     change       -0.9599492E-03 Eh
 * total energy  :   -83.1180402 Eh     change       -0.7119499E-03 Eh
 * total energy  :   -83.1185939 Eh     change       -0.5537045E-03 Eh
 * total energy  :   -83.1189460 Eh     change       -0.3520868E-03 Eh
 * total energy  :   -83.1191837 Eh     change       -0.2377379E-03 Eh
 * total energy  :   -83.1207991 Eh     change       -0.5697191E-05 Eh
 * total energy  :   -83.1208070 Eh     change       -0.7984893E-05 Eh
 * total energy  :   -83.1208157 Eh     change       -0.8667087E-05 Eh
 * total energy  :   -83.1208243 Eh     change       -0.8586291E-05 Eh
 * total energy  :   -83.1208332 Eh     change       -0.8881677E-05 Eh
 * total energy  :   -83.1208423 Eh     change       -0.9096366E-05 Eh
 * total energy  :   -83.1208507 Eh     change       -0.8408529E-05 Eh
 * total energy  :   -83.1208575 Eh     change       -0.6784682E-05 Eh
 * total energy  :   -83.1208611 Eh     change       -0.3621523E-05 Eh
   *** GEOMETRY OPTIMIZATION CONVERGED AFTER 44 ITERATIONS ***

 final structure:
================
43
 xtb: 6.5.1 (579679a)
C            5.86815712006676        0.96555922788114        1.81609885018466
O            4.62972865146938        0.47131981116783        1.29077800394834
C            4.56184405776290        0.31884164788591       -0.02231004534711
O            5.48642068057990        0.57814314876203       -0.77336557028372
C            3.26272488281644       -0.20697082756900       -0.50319034627602
N            2.29343913849318       -0.45068258829434        0.43950979847597
C            1.15942746573293       -0.92007085307244        0.05129956823000
C            0.10411238961254       -1.26051914254926        1.08084002931763
C            0.24057377908699       -0.35013754567023        2.30371855819945
C            0.25361164860083       -2.73604216272970        1.46643770521055
N           -1.23230181701558       -1.09718480830928        0.48690556177773
C           -1.64930132429565        0.06747512982692       -0.02435071688830
O           -0.98294514833502        1.07293644552779       -0.17361207955108
C           -3.08240917955447       -0.00621626056873       -0.44282028208062
N           -3.88935598753544       -0.99753866300102       -0.39480307105253
N           -5.10078369720575       -0.60482137832321       -0.89003444253443
C           -5.03081127192374        0.62371148737328       -1.23711570042806
C           -6.06943909554217        1.48812907925962       -1.81728611094756
O           -3.73856971014905        1.10055501217710       -0.98131922613957
C           -3.17729951282998        2.43969964729300       -1.17981880395926
N            0.89465336276486       -1.21158697475424       -1.25334622011276
C            1.77483118637080       -0.99245536687811       -2.29872776663093
O            1.46268973562314       -1.25399421028384       -3.44551664838190
C            3.05768304701942       -0.44354397458570       -1.84169491117746
O            3.96668833687220       -0.21304910861950       -2.78673540637769
H            5.74898879026797        1.01266700693564        2.89643118549896
H            6.07461953193269        1.95838911865215        1.41032872698754
H            6.68230587434214        0.28757302425743        1.55008362315139
H           -0.52966235844152       -0.59202276658915        3.03267254474593
H            1.22327015255264       -0.49882256554258        2.74900098345187
H            0.14262303756221        0.69288227546356        2.00831816643156
H           -0.49411392957219       -3.00234787817443        2.21110801778217
H            0.12531547035520       -3.36766774790677        0.58889196078439
H            1.24548111974398       -2.90373797668520        1.88392741698275
H           -1.90119465999449       -1.84002009946849        0.61203218574548
H           -6.97465467386810        0.89827388539940       -1.95268647496022
H           -5.74437341748123        1.88436154172023       -2.77972098760643
H           -6.27937919231805        2.32839649625742       -1.15453323721636
H           -2.33518972265481        2.34032685316012       -1.86157018731843
H           -3.96996232792033        3.04935634277493       -1.60167367594836
H           -2.86007429585915        2.80479910841796       -0.20532488897289
H           -0.00905696202018       -1.58407440270842       -1.49724653007995
H            4.79168782489094        0.15011101209252       -2.38374055663719

          :  Hamiltonian                  GFN1-xTB          :
         :: total energy             -83.120861094382 Eh    ::
         :: gradient norm              0.000323278113 Eh/a0 ::
         :: HOMO-LUMO gap              1.830884943289 eV    ::
         :: SCC energy               -83.922631398800 Eh    ::
         :: -> Gsolv                  -0.128098859216 Eh    ::
         :: repulsion energy           0.828516172582 Eh    ::

    * Orbital Energies and Occupations

         #    Occupation            Energy/Eh            Energy/eV
      -------------------------------------------------------------
         1        2.0000           -0.9707545             -26.4156
       ...           ...                  ...                  ...
        55        2.0000           -0.5232583             -14.2386
        56        2.0000           -0.5196037             -14.1391
        57        2.0000           -0.5180153             -14.0959
        58        2.0000           -0.5170637             -14.0700
        59        2.0000           -0.5117116             -13.9244
        60        2.0000           -0.5040621             -13.7162
        61        2.0000           -0.5005081             -13.6195
        62        2.0000           -0.4959985             -13.4968
        63        2.0000           -0.4932532             -13.4221
        64        2.0000           -0.4873415             -13.2612
        65        2.0000           -0.4664105             -12.6917
        66        2.0000           -0.4537876             -12.3482
        67        2.0000           -0.4364616             -11.8767 (HOMO)
        68                         -0.3691778             -10.0458 (LUMO)
        69                         -0.3315436              -9.0218
        70                         -0.3164142              -8.6101
        71                         -0.2912552              -7.9255
        72                         -0.2498044              -6.7975
        73                         -0.2478297              -6.7438
        74                         -0.1923432              -5.2339
        75                         -0.1768641              -4.8127
        76                         -0.1656850              -4.5085
        77                         -0.1460433              -3.9740
        78                         -0.1401288              -3.8131
       ...                                ...                  ...
       136                          0.7183279              19.5467
      -------------------------------------------------------------
                  HL-Gap            0.0672838 Eh            1.8309 eV

Wiberg/Mayer (AO) data.
largest (>0.10) Wiberg bond orders for each atom

     #   Z sym  total        # sym  WBO       # sym  WBO       # sym  WBO
 ---------------------------------------------------------------------------
     1   6 C    3.864 --    26 H    0.986    28 H    0.979    27 H    0.979
                             2 O    0.890
     2   8 O    2.219 --     3 C    1.139     1 C    0.890     4 O    0.130
     3   6 C    3.849 --     4 O    1.605     2 O    1.139     5 C    1.019
     4   8 O    1.947 --     3 C    1.605     2 O    0.130
     5   6 C    3.963 --    24 C    1.487     6 N    1.172     3 C    1.019
     6   7 N    3.026 --     7 C    1.595     5 C    1.172
     7   6 C    3.935 --     6 N    1.595    21 N    1.170     8 C    0.977
     8   6 C    3.919 --     9 C    0.987    10 C    0.982     7 C    0.977
                            11 N    0.908
     9   6 C    3.986 --     8 C    0.987    29 H    0.985    30 H    0.981
                            31 H    0.981
    10   6 C    3.986 --    33 H    0.984     8 C    0.982    34 H    0.982
                            32 H    0.981
    11   7 N    3.378 --    12 C    1.291     8 C    0.908    35 H    0.886
                            13 O    0.192
    12   6 C    3.927 --    13 O    1.590    11 N    1.291    14 C    0.971
    13   8 O    1.934 --    12 C    1.590    11 N    0.192
    14   6 C    3.804 --    15 N    1.703    12 C    0.971    19 O    0.888
    15   7 N    3.045 --    14 C    1.703    16 N    1.149
    16   7 N    3.025 --    17 C    1.694    15 N    1.149
    17   6 C    3.801 --    16 N    1.694    18 C    1.044    19 O    0.876
    18   6 C    3.968 --    17 C    1.044    36 H    0.969    37 H    0.951
                            38 H    0.949
    19   8 O    2.655 --    14 C    0.888    17 C    0.876    20 C    0.745
    20   6 C    3.722 --    40 H    0.974    41 H    0.968    39 H    0.968
                            19 O    0.745
    21   7 N    3.459 --     7 C    1.170    22 C    1.116    42 H    0.885
                            23 O    0.135
    22   6 C    3.906 --    23 O    1.607    21 N    1.116    24 C    1.053
    23   8 O    1.905 --    22 C    1.607    21 N    0.135
    24   6 C    3.922 --     5 C    1.487    25 O    1.133    22 C    1.053
    25   8 O    2.098 --    24 C    1.133    43 H    0.771
    26   1 H    1.010 --     1 C    0.986
    27   1 H    1.006 --     1 C    0.979
    28   1 H    1.006 --     1 C    0.979
    29   1 H    0.999 --     9 C    0.985
    30   1 H    1.008 --     9 C    0.981
    31   1 H    1.006 --     9 C    0.981
    32   1 H    0.995 --    10 C    0.981
    33   1 H    0.997 --    10 C    0.984
    34   1 H    0.999 --    10 C    0.982
    35   1 H    0.930 --    11 N    0.886
    36   1 H    0.989 --    18 C    0.969
    37   1 H    0.988 --    18 C    0.951
    38   1 H    0.987 --    18 C    0.949
    39   1 H    0.999 --    20 C    0.968
    40   1 H    0.990 --    20 C    0.974
    41   1 H    0.997 --    20 C    0.968
    42   1 H    0.931 --    21 N    0.885
    43   1 H    0.849 --    25 O    0.771
 ---------------------------------------------------------------------------

           -------------------------------------------------
          | TOTAL ENERGY              -83.120861094382 Eh   |
          | GRADIENT NORM               0.000323278113 Eh/α |
          | HOMO-LUMO GAP               1.830884943289 eV   |
           -------------------------------------------------

 * finished run on 2023/06/20 at 15:18:26.529
