                         Program Version 5.0.1 -  RELEASE  -
|  1> # ORCA input file
|  2> ! SP r2SCAN-3c CPCM
|  3>
|  4> %maxcore 1875.0
|  5> %pal nprocs 4 end
|  6> %cpcm smd true SMDsolvent "DMSO" end
|  7>
|  8> *xyz 1 1
|  9> C      -3.621239   -0.275087    0.180533
| 10> O      -2.241477   -0.231008    0.572605
| 11> C      -1.280505   -0.023347   -0.246034
| 12> Cl     -1.533723    0.227535   -1.868101
| 13> C       0.034771   -0.019844    0.294509
| 14> N       0.405738   -0.202070    1.546954
| 15> N       1.727003   -0.121577    1.577514
| 16> C       2.136903    0.107431    0.343993
| 17> C       3.520501    0.272127   -0.125033
| 18> O       1.111642    0.179678   -0.496266
| 19> H      -4.179666   -0.481145    1.090921
| 20> H      -3.761822   -1.065851   -0.556919
| 21> H      -3.905736    0.686517   -0.247552
| 22> H       4.211646    0.171980    0.708409
| 23> H       3.740763   -0.478056   -0.885709
| 24> H       3.635198    1.252716   -0.588943
| 25> **                         ****END OF INPUT****

CARTESIAN COORDINATES (ANGSTROEM)
---------------------------------
  C     -3.621239   -0.275087    0.180533
  O     -2.241477   -0.231008    0.572605
  C     -1.280505   -0.023347   -0.246034
  Cl    -1.533723    0.227535   -1.868101
  C      0.034771   -0.019844    0.294509
  N      0.405738   -0.202070    1.546954
  N      1.727003   -0.121577    1.577514
  C      2.136903    0.107431    0.343993
  C      3.520501    0.272127   -0.125033
  O      1.111642    0.179678   -0.496266
  H     -4.179666   -0.481145    1.090921
  H     -3.761822   -1.065851   -0.556919
  H     -3.905736    0.686517   -0.247552
  H      4.211646    0.171980    0.708409
  H      3.740763   -0.478056   -0.885709
  H      3.635198    1.252716   -0.588943

 Total Charge           Charge          ....    1
 Multiplicity           Mult            ....    1
 Number of Electrons    NEL             ....   82
 Basis Dimension        Dim             ....  248

ORBITAL ENERGIES
----------------

  NO   OCC          E(Eh)            E(eV)
   0   2.0000    -101.316404     -2756.9595
   1   2.0000     -19.107173      -519.9326
   2   2.0000     -19.105724      -519.8932
   3   2.0000     -14.258596      -387.9961
   4   2.0000     -14.238231      -387.4420
   5   2.0000     -10.275487      -279.6102
   6   2.0000     -10.195540      -277.4348
   7   2.0000     -10.192228      -277.3446
   8   2.0000     -10.121246      -275.4131
   9   2.0000     -10.061078      -273.7759
  10   2.0000      -9.471792      -257.7406
  11   2.0000      -7.218937      -196.4373
  12   2.0000      -7.208763      -196.1604
  13   2.0000      -7.206006      -196.0854
  14   2.0000      -1.200633       -32.6709
  15   2.0000      -1.165090       -31.7037
  16   2.0000      -1.026637       -27.9362
  17   2.0000      -0.936628       -25.4870
  18   2.0000      -0.870343       -23.6832
  19   2.0000      -0.790613       -21.5137
  20   2.0000      -0.734665       -19.9913
  21   2.0000      -0.711309       -19.3557
  22   2.0000      -0.640072       -17.4173
  23   2.0000      -0.622894       -16.9498
  24   2.0000      -0.582435       -15.8489
  25   2.0000      -0.554406       -15.0861
  26   2.0000      -0.542694       -14.7675
  27   2.0000      -0.512292       -13.9402
  28   2.0000      -0.495644       -13.4872
  29   2.0000      -0.453276       -12.3343
  30   2.0000      -0.433013       -11.7829
  31   2.0000      -0.422833       -11.5059
  32   2.0000      -0.404101       -10.9961
  33   2.0000      -0.398323       -10.8389
  34   2.0000      -0.386986       -10.5304
  35   2.0000      -0.379938       -10.3386
  36   2.0000      -0.377217       -10.2646
  37   2.0000      -0.367352        -9.9962
  38   2.0000      -0.352336        -9.5876
  39   2.0000      -0.301899        -8.2151
  40   2.0000      -0.294075        -8.0022
  41   0.0000      -0.190506        -5.1839
  42   0.0000      -0.062328        -1.6960
  43   0.0000      -0.044942        -1.2229
  44   0.0000      -0.024530        -0.6675
  45   0.0000       0.018408         0.5009

MULLIKEN ATOMIC CHARGES
-----------------------
   0 C :   -0.267933
   1 O :   -0.069458
   2 C :   -0.044382
   3 Cl:    0.138668
   4 C :    0.408738
   5 N :   -0.091768
   6 N :   -0.188265
   7 C :    0.433440
   8 C :   -0.618888
   9 O :   -0.015793
  10 H :    0.217613
  11 H :    0.219324
  12 H :    0.219192
  13 H :    0.218342
  14 H :    0.220541
  15 H :    0.220627
Sum of atomic charges:    1.0000000

LOEWDIN ATOMIC CHARGES
----------------------
   0 C :    0.001221
   1 O :   -0.523951
   2 C :    0.230849
   3 Cl:    0.440746
   4 C :    0.378857
   5 N :   -0.255119
   6 N :   -0.285960
   7 C :    0.435714
   8 C :   -0.300509
   9 O :   -0.362810
  10 H :    0.212932
  11 H :    0.207055
  12 H :    0.206930
  13 H :    0.200085
  14 H :    0.206929
  15 H :    0.207027

  Mayer bond orders larger than 0.100000
B(  0-C ,  1-O ) :   0.7902 B(  0-C , 10-H ) :   0.9382 B(  0-C , 11-H ) :   0.9245
B(  0-C , 12-H ) :   0.9242 B(  1-O ,  2-C ) :   1.3651 B(  2-C ,  3-Cl) :   1.3769
B(  2-C ,  4-C ) :   1.0545 B(  4-C ,  5-N ) :   1.4916 B(  4-C ,  7-C ) :   0.1035
B(  4-C ,  9-O ) :   1.0853 B(  5-N ,  6-N ) :   1.3291 B(  6-N ,  7-C ) :   1.4097
B(  7-C ,  8-C ) :   0.8709 B(  7-C ,  9-O ) :   1.1300 B(  8-C , 13-H ) :   0.9742
B(  8-C , 14-H ) :   0.9237 B(  8-C , 15-H ) :   0.9228

Dispersion correction           -0.004940245
FINAL SINGLE POINT ENERGY      -913.938230114694

DIPOLE MOMENT
-------------
                                X             Y             Z
Electronic contribution:     -3.95452       0.49627      -4.19507
Nuclear contribution   :      2.70318      -0.32179       2.51342
                        -----------------------------------------
Total Dipole Moment    :     -1.25135       0.17448      -1.68165
                        -----------------------------------------
Magnitude (a.u.)       :      2.10339
Magnitude (Debye)      :      5.34639

Rotational constants in cm-1:     0.088174     0.023336     0.018581
Rotational constants in MHz :  2643.395896   699.593062   557.058014

                             ****ORCA TERMINATED NORMALLY****
TOTAL RUN TIME: 0 days 0 hours 0 minutes 23 seconds 993 msec
