   * xtb version 6.5.1 (579679a) compiled by 'ehlert@majestix' on 2022-07-11
          program call               : /lustre/hpc/kemi/ree/PhD/git/ReactivityQM/dep/xtb-6.5.1/bin/xtb --gfn 1 /lustre/hpc/kemi/ree/PhD/git/ReactivityQM/calculations/RaltegravirCLI/reac01prodN07/conf06/RaltegravirCLI_reac01prodN07_conf06_gfn1.xyz --opt --vfukui --chrg 1 --uhf 0 --alpb DMSO

   ID    Z sym.   atoms
    1    6 C      1, 3, 5, 8, 9
    2    8 O      2, 10
    3   17 Cl     4
    4    7 N      6, 7
    5    1 H      11-16

      * Solvation model:               ALPB
        Solvent                        DMSO
        Solvent mass                       7.8130E+01 g/mol
          :  Hamiltonian                  GFN1-xTB          :
 * total energy  :   -33.4100759 Eh     change       -0.3460343E-11 Eh
 * total energy  :   -33.4179951 Eh     change       -0.7919225E-02 Eh
 * total energy  :   -33.4203949 Eh     change       -0.2399775E-02 Eh
 * total energy  :   -33.4206846 Eh     change       -0.2897655E-03 Eh
 * total energy  :   -33.4207844 Eh     change       -0.9975089E-04 Eh
 * total energy  :   -33.4207948 Eh     change       -0.1040213E-04 Eh
 * total energy  :   -33.4208001 Eh     change       -0.5278612E-05 Eh
 * total energy  :   -33.4208015 Eh     change       -0.1381278E-05 Eh
   *** GEOMETRY OPTIMIZATION CONVERGED AFTER 8 ITERATIONS ***

 final structure:
================
16
 xtb: 6.5.1 (579679a)
C           -3.62123867321490       -0.27508732247746        0.18053338618853
O           -2.24147659428284       -0.23100779848441        0.57260458140311
C           -1.28050542788894       -0.02334658036545       -0.24603355075137
Cl          -1.53372321661643        0.22753530021160       -1.86810063118169
C            0.03477132904511       -0.01984374450504        0.29450947449980
N            0.40573847756356       -0.20206982221409        1.54695362164633
N            1.72700306345761       -0.12157687537563        1.57751375485698
C            2.13690336401626        0.10743124758317        0.34399288053060
C            3.52050098853637        0.27212705888262       -0.12503344777680
O            1.11164210780604        0.17967772211096       -0.49626563495759
H           -4.17966609246320       -0.48114486420449        1.09092103966077
H           -3.76182207241677       -1.06585079114128       -0.55691867518631
H           -3.90573605086687        0.68651687645382       -0.24755159910504
H            4.21164646229078        0.17197973880049        0.70840851371597
H            3.74076318632027       -0.47805555736792       -0.88570941173206
H            3.63519814871391        1.25271641209303       -0.58894330181136

          :  Hamiltonian                  GFN1-xTB          :
         :: total energy             -33.420801451171 Eh    ::
         :: gradient norm              0.000446270273 Eh/a0 ::
         :: HOMO-LUMO gap              2.372476671450 eV    ::
         :: SCC energy               -33.699114839927 Eh    ::
         :: -> Gsolv                  -0.081978347481 Eh    ::
         :: repulsion energy           0.285079748495 Eh    ::

    * Orbital Energies and Occupations

         #    Occupation            Energy/Eh            Energy/eV
      -------------------------------------------------------------
         1        2.0000           -1.0208555             -27.7789
       ...           ...                  ...                  ...
        15        2.0000           -0.6354514             -17.2915
        16        2.0000           -0.5992104             -16.3053
        17        2.0000           -0.5848714             -15.9152
        18        2.0000           -0.5808234             -15.8050
        19        2.0000           -0.5712108             -15.5434
        20        2.0000           -0.5599817             -15.2379
        21        2.0000           -0.5586270             -15.2010
        22        2.0000           -0.5570267             -15.1575
        23        2.0000           -0.5446381             -14.8204
        24        2.0000           -0.5348785             -14.5548
        25        2.0000           -0.5279693             -14.3668
        26        2.0000           -0.5019943             -13.6600
        27        2.0000           -0.4986546             -13.5691 (HOMO)
        28                         -0.4114677             -11.1966 (LUMO)
        29                         -0.3047807              -8.2935
        30                         -0.2830792              -7.7030
        31                         -0.2637999              -7.1784
        32                         -0.1744111              -4.7460
        33                         -0.1613935              -4.3917
        34                         -0.1467452              -3.9931
        35                         -0.1447901              -3.9399
        36                         -0.1442979              -3.9265
        37                         -0.1087891              -2.9603
        38                         -0.1033996              -2.8136
       ...                                ...                  ...
        57                          0.5301996              14.4275
      -------------------------------------------------------------
                  HL-Gap            0.0871869 Eh            2.3725 eV

Wiberg/Mayer (AO) data.
largest (>0.10) Wiberg bond orders for each atom

     #   Z sym  total        # sym  WBO       # sym  WBO       # sym  WBO
 ---------------------------------------------------------------------------
     1   6 C    3.807 --    11 H    0.977    12 H    0.966    13 H    0.965
                             2 O    0.848
     2   8 O    2.355 --     3 C    1.302     1 C    0.848     4 Cl   0.107
     3   6 C    3.883 --     2 O    1.302     4 Cl   1.231     5 C    1.174
     4  17 Cl   1.481 --     3 C    1.231     2 O    0.107
     5   6 C    3.886 --     6 N    1.461     3 C    1.174    10 O    1.039
     6   7 N    3.023 --     5 C    1.461     7 N    1.338
     7   7 N    2.997 --     8 C    1.461     6 N    1.338
     8   6 C    3.840 --     7 N    1.461    10 O    1.125     9 C    1.049
     9   6 C    3.972 --     8 C    1.049    14 H    0.978    15 H    0.946
                            16 H    0.945
    10   8 O    2.347 --     8 C    1.125     5 C    1.039
    11   1 H    0.997 --     1 C    0.977
    12   1 H    0.995 --     1 C    0.966
    13   1 H    0.995 --     1 C    0.965
    14   1 H    0.993 --     9 C    0.978
    15   1 H    0.987 --     9 C    0.946
    16   1 H    0.987 --     9 C    0.945
 ---------------------------------------------------------------------------

           -------------------------------------------------
          | TOTAL ENERGY              -33.420801451171 Eh   |
          | GRADIENT NORM               0.000446270273 Eh/α |
          | HOMO-LUMO GAP               2.372476671450 eV   |
           -------------------------------------------------

 * finished run on 2023/06/20 at 14:55:32.305
