   * xtb version 6.5.1 (579679a) compiled by 'ehlert@majestix' on 2022-07-11
          program call               : /lustre/hpc/kemi/ree/PhD/git/ReactivityQM/dep/xtb-6.5.1/bin/xtb --gfn 1 /lustre/hpc/kemi/ree/PhD/git/ReactivityQM/calculations/R02deprot/reac01prodE06/conf06/R02deprot_reac01prodE06_conf06_gfn1.xyz --opt --vfukui --chrg -2 --uhf 0 --alpb DMSO

   ID    Z sym.   atoms
    1    6 C      1, 3, 5, 6, 8, 11-15, 17, 19, 22, 23
    2    8 O      2, 4, 7, 9, 18, 24
    3    7 N      10, 16, 20, 21, 25
    4    1 H      26-42

      * Solvation model:               ALPB
        Solvent                        DMSO
        Solvent mass                       7.8130E+01 g/mol
          :  Hamiltonian                  GFN1-xTB          :
 * total energy  :   -83.5874742 Eh     change       -0.6881749E-09 Eh
 * total energy  :   -83.5984303 Eh     change       -0.1095611E-01 Eh
 * total energy  :   -83.6027066 Eh     change       -0.4276325E-02 Eh
 * total energy  :   -83.6037146 Eh     change       -0.1008032E-02 Eh
 * total energy  :   -83.6044885 Eh     change       -0.7738591E-03 Eh
 * total energy  :   -83.6047982 Eh     change       -0.3096957E-03 Eh
 * total energy  :   -83.6050021 Eh     change       -0.2038688E-03 Eh
 * total energy  :   -83.6051855 Eh     change       -0.1834721E-03 Eh
 * total energy  :   -83.6053606 Eh     change       -0.1750583E-03 Eh
 * total energy  :   -83.6055380 Eh     change       -0.1774121E-03 Eh
 * total energy  :   -83.6060187 Eh     change       -0.2817752E-04 Eh
 * total energy  :   -83.6060323 Eh     change       -0.1364415E-04 Eh
 * total energy  :   -83.6060529 Eh     change       -0.2056874E-04 Eh
 * total energy  :   -83.6060666 Eh     change       -0.1375734E-04 Eh
 * total energy  :   -83.6060830 Eh     change       -0.1634708E-04 Eh
 * total energy  :   -83.6060904 Eh     change       -0.7454408E-05 Eh
 * total energy  :   -83.6060978 Eh     change       -0.7385796E-05 Eh
 * total energy  :   -83.6061030 Eh     change       -0.5152474E-05 Eh
 * total energy  :   -83.6061079 Eh     change       -0.4931789E-05 Eh
   *** GEOMETRY OPTIMIZATION CONVERGED AFTER 25 ITERATIONS ***

 final structure:
================
42
 xtb: 6.5.1 (579679a)
C           -5.97809012220335        0.76044127264105        1.29657306414711
O           -4.64092343919259        0.56417166493268        0.86504729657413
C           -4.46789005070294       -0.31314113677560       -0.15652020870159
O           -5.44369958326016       -0.87633933200151       -0.65328862537515
C           -3.07111895765299       -0.49411659337947       -0.55851703334056
C           -2.73286985777599       -1.44897052575390       -1.51074940743404
O           -3.66900998534077       -2.21614840913820       -2.17819918402522
C           -1.30316817028411       -1.79396722023136       -1.72387660153456
O           -0.98612267183520       -2.81098860751409       -2.40522480942640
N           -0.39866807639754       -1.02237843465084       -1.13185760126010
C           -0.80877576877072        0.18330221943805       -0.44499789235637
C           -0.57692394840423        1.38207210544907       -1.41663803841407
C            0.15730422831613        0.32320501063134        0.79825760966531
C            0.00287332931614        1.67995233349455        1.48557695051027
C           -0.18064760745875       -0.80611702215674        1.78340131779323
N            1.50529117567919        0.10699684544388        0.28581840499594
C            2.67179738599387        0.51115433229007        0.81668619044087
O            2.80553966810510        1.20988198128587        1.83049156508485
C            3.81394980506059        0.03301010757798        0.01947880773179
N            3.75516367837275       -0.68765900256967       -1.07557234734790
N            5.04691821912876       -0.92870828203485       -1.45827258978269
C            5.80839515524772       -0.35213196777717       -0.58615383394234
C            7.28993223375417       -0.32716289181805       -0.56732558556064
O            5.10659480243408        0.27464976071256        0.37794140282725
N           -2.16008382496833        0.27894717305454        0.06771184243757
H           -5.94872259557927        1.46886203574451        2.12369098482006
H           -6.59225502303953        1.16499139450819        0.48585230706702
H           -6.42013358269032       -0.18246441867081        1.63401968461789
H           -4.56258250394769       -1.96636780058492       -1.87696988622599
H            0.48411730980825        1.49130754718967       -1.64184060202725
H           -1.11479270019519        1.19049649805936       -2.34504398791681
H           -0.95563754761977        2.30603130208695       -0.98231737017949
H           -1.06275857552341        1.89713714810590        1.58012893148201
H            0.47592792155499        2.47261840016841        0.90729737758538
H            0.44602282851893        1.67272989670575        2.48117170891996
H           -0.08446385232963       -1.77218802383599        1.28501719811136
H           -1.21046912180465       -0.68486402789781        2.12232142633967
H            0.48483161250215       -0.78275709069324        2.64614031814121
H            1.52695648613718       -0.55043313009062       -0.49886413114183
H            7.67350615082262       -0.90358376586025       -1.40533051941596
H            7.66369045364112       -0.74999879029070        0.36459087320562
H            7.65099612258411        0.69852844420632       -0.63965200708608

          :  Hamiltonian                  GFN1-xTB          :
         :: total energy             -83.606107910260 Eh    ::
         :: gradient norm              0.000855218561 Eh/a0 ::
         :: HOMO-LUMO gap              0.175501177945 eV    ::
         :: SCC energy               -84.326988935576 Eh    ::
         :: -> Gsolv                  -0.277313464217 Eh    ::
         :: repulsion energy           0.747784471861 Eh    ::

    * Orbital Energies and Occupations

         #    Occupation            Energy/Eh            Energy/eV
      -------------------------------------------------------------
         1        2.0000           -0.8282640             -22.5382
       ...           ...                  ...                  ...
        56        2.0000           -0.4392526             -11.9527
        57        2.0000           -0.4295208             -11.6879
        58        2.0000           -0.4256262             -11.5819
        59        2.0000           -0.4206903             -11.4476
        60        2.0000           -0.4173684             -11.3572
        61        2.0000           -0.4064045             -11.0588
        62        2.0000           -0.4000802             -10.8867
        63        2.0000           -0.3910184             -10.6402
        64        2.0000           -0.3742348             -10.1834
        65        2.0000           -0.3473884              -9.4529
        66        2.0000           -0.3233200              -8.7980
        67        2.0000           -0.3140095              -8.5446
        68        1.9351           -0.2798231              -7.6144 (HOMO)
        69        0.0649           -0.2733735              -7.4389 (LUMO)
        70                         -0.2406515              -6.5485
        71                         -0.2292732              -6.2388
        72                         -0.1569762              -4.2715
        73                         -0.1423745              -3.8742
        74                         -0.1325215              -3.6061
        75                         -0.1173339              -3.1928
        76                         -0.0931006              -2.5334
        77                         -0.0862750              -2.3477
        78                         -0.0783772              -2.1328
        79                         -0.0723999              -1.9701
       ...                                ...                  ...
       134                          0.7352702              20.0077
      -------------------------------------------------------------
                  HL-Gap            0.0064495 Eh            0.1755 eV

Wiberg/Mayer (AO) data.
largest (>0.10) Wiberg bond orders for each atom

     #   Z sym  total        # sym  WBO       # sym  WBO       # sym  WBO
 ---------------------------------------------------------------------------
     1   6 C    3.902 --    26 H    0.987    27 H    0.980    28 H    0.980
                             2 O    0.928
     2   8 O    2.164 --     3 C    1.053     1 C    0.928     4 O    0.105
     3   6 C    3.813 --     4 O    1.556     5 C    1.071     2 O    1.053
     4   8 O    1.888 --     3 C    1.556     2 O    0.105
     5   6 C    3.960 --     6 C    1.376    25 N    1.304     3 C    1.071
     6   6 C    3.793 --     5 C    1.376     8 C    1.036     7 O    1.010
                            25 N    0.161
     7   8 O    1.975 --     6 C    1.010    29 H    0.828
     8   6 C    3.936 --    10 N    1.406     9 O    1.400     6 C    1.036
     9   8 O    1.679 --     8 C    1.400    10 N    0.171
    10   7 N    2.903 --     8 C    1.406    11 C    1.001     9 O    0.171
    11   6 C    3.960 --    25 N    1.001    10 N    1.001    12 C    0.955
                            13 C    0.922
    12   6 C    3.983 --    31 H    0.986    30 H    0.986    32 H    0.986
                            11 C    0.955
    13   6 C    3.915 --    14 C    1.003    15 C    0.988    16 N    0.925
                            11 C    0.922
    14   6 C    3.997 --    13 C    1.003    34 H    0.985    35 H    0.983
                            33 H    0.983
    15   6 C    3.995 --    38 H    0.988    13 C    0.988    36 H    0.983
                            37 H    0.982
    16   7 N    3.368 --    17 C    1.264    13 C    0.925    39 H    0.882
                            18 O    0.169
    17   6 C    3.899 --    18 O    1.491    16 N    1.264    19 C    1.029
    18   8 O    1.787 --    17 C    1.491    16 N    0.169
    19   6 C    3.785 --    20 N    1.534    17 C    1.029    24 O    1.022
    20   7 N    2.910 --    19 C    1.534    21 N    1.182
    21   7 N    2.979 --    22 C    1.627    20 N    1.182
    22   6 C    3.852 --    21 N    1.627    24 O    1.067    23 C    1.026
    23   6 C    3.992 --    22 C    1.026    40 H    0.985    41 H    0.969
                            42 H    0.968
    24   8 O    2.258 --    22 C    1.067    19 C    1.022
    25   7 N    2.747 --     5 C    1.304    11 C    1.001     6 C    0.161
    26   1 H    1.016 --     1 C    0.987
    27   1 H    1.014 --     1 C    0.980
    28   1 H    1.015 --     1 C    0.980
    29   1 H    0.898 --     7 O    0.828
    30   1 H    1.016 --    12 C    0.986
    31   1 H    1.018 --    12 C    0.986
    32   1 H    1.018 --    12 C    0.986
    33   1 H    1.028 --    14 C    0.983
    34   1 H    1.011 --    14 C    0.985
    35   1 H    1.021 --    14 C    0.983
    36   1 H    1.025 --    15 C    0.983
    37   1 H    1.027 --    15 C    0.982
    38   1 H    1.008 --    15 C    0.988
    39   1 H    1.007 --    16 N    0.882
    40   1 H    1.002 --    23 C    0.985
    41   1 H    0.999 --    23 C    0.969
    42   1 H    0.999 --    23 C    0.968
 ---------------------------------------------------------------------------

           -------------------------------------------------
          | TOTAL ENERGY              -83.606107910260 Eh   |
          | GRADIENT NORM               0.000855218561 Eh/α |
          | HOMO-LUMO GAP               0.175501177945 eV   |
           -------------------------------------------------

 * finished run on 2023/06/20 at 17:45:06.465
