   * xtb version 6.5.1 (579679a) compiled by 'ehlert@majestix' on 2022-07-11
          program call               : /lustre/hpc/kemi/ree/PhD/git/ReactivityQM/dep/xtb-6.5.1/bin/xtb --gfn 1 /lustre/hpc/kemi/ree/PhD/git/ReactivityQM/calculations/R01/reac01prodN03/conf03/R01_reac01prodN03_conf03_gfn1.xyz --opt --vfukui --chrg 1 --uhf 0 --alpb DMSO

   ID    Z sym.   atoms
    1    6 C      1, 3, 5, 7, 8, 11
    2    8 O      2, 4, 6
    3    7 N      9, 10
    4    1 H      12-20

      * Solvation model:               ALPB
        Solvent                        DMSO
        Solvent mass                       7.8130E+01 g/mol
          :  Hamiltonian                  GFN1-xTB          :
 * total energy  :   -37.6216273 Eh     change       -0.5350387E-11 Eh
 * total energy  :   -37.6364767 Eh     change       -0.1484947E-01 Eh
 * total energy  :   -37.6416986 Eh     change       -0.5221834E-02 Eh
 * total energy  :   -37.6431200 Eh     change       -0.1421410E-02 Eh
 * total energy  :   -37.6440956 Eh     change       -0.9755727E-03 Eh
 * total energy  :   -37.6445072 Eh     change       -0.4116099E-03 Eh
 * total energy  :   -37.6447873 Eh     change       -0.2801543E-03 Eh
 * total energy  :   -37.6450079 Eh     change       -0.2205406E-03 Eh
 * total energy  :   -37.6451078 Eh     change       -0.9994635E-04 Eh
 * total energy  :   -37.6451304 Eh     change       -0.2254043E-04 Eh
 * total energy  :   -37.6452035 Eh     change       -0.2189681E-04 Eh
 * total energy  :   -37.6452206 Eh     change       -0.1718460E-04 Eh
 * total energy  :   -37.6452200 Eh     change        0.6101433E-06 Eh
 * total energy  :   -37.6452368 Eh     change       -0.1673164E-04 Eh
 * total energy  :   -37.6452444 Eh     change       -0.7653267E-05 Eh
 * total energy  :   -37.6452572 Eh     change       -0.1278351E-04 Eh
 * total energy  :   -37.6452699 Eh     change       -0.1269149E-04 Eh
 * total energy  :   -37.6452761 Eh     change       -0.6181730E-05 Eh
 * total energy  :   -37.6452810 Eh     change       -0.4902241E-05 Eh
   *** GEOMETRY OPTIMIZATION CONVERGED AFTER 23 ITERATIONS ***

 final structure:
================
20
 xtb: 6.5.1 (579679a)
C            3.36014201632345       -1.41550675416605        0.26889447379491
O            1.95295189302119       -1.17162266915948        0.06897251689951
C            1.53715662535370        0.05977605356648        0.15997142667372
O            2.19284001833483        1.03927366023371        0.38640858393837
C            0.04518946662581        0.14041577893111       -0.05856691340485
O           -0.70206296482403       -0.91105131521095       -0.35362525305484
C           -1.95943223476120       -0.46086909828601       -0.45502832499249
C           -3.06622357481013       -1.36811292166560       -0.79888475266234
N           -2.01148705332490        0.82426844696340       -0.23191225520437
N           -0.74491950665599        1.18790518520994        0.01525875446542
C           -0.45932177717077        2.57637341494580        0.30426403793504
H            3.94092812976511       -0.75543846015523       -0.37670748016320
H            3.61134690382325       -1.22821801956626        1.31383655982382
H            3.52288505470774       -2.45940472111495        0.01150936046052
H           -2.87432365863568       -2.35840470806663       -0.39029789513578
H           -4.00467710288322       -0.97067296483285       -0.41873499136784
H           -3.13681141676793       -1.45446015311359       -1.88519242389430
H            0.60178494644876        2.68577520390265        0.50936265619150
H           -0.74993367631653        3.16825438206899       -0.56254583866489
H           -1.05603408825360        2.87171965951576        1.16575875836212

          :  Hamiltonian                  GFN1-xTB          :
         :: total energy             -37.645280970703 Eh    ::
         :: gradient norm              0.000692875371 Eh/a0 ::
         :: HOMO-LUMO gap              3.666909986495 eV    ::
         :: SCC energy               -38.000159101025 Eh    ::
         :: -> Gsolv                  -0.077954206745 Eh    ::
         :: repulsion energy           0.362988416945 Eh    ::

    * Orbital Energies and Occupations

         #    Occupation            Energy/Eh            Energy/eV
      -------------------------------------------------------------
         1        2.0000           -0.9437069             -25.6796
       ...           ...                  ...                  ...
        18        2.0000           -0.6261556             -17.0386
        19        2.0000           -0.6071563             -16.5216
        20        2.0000           -0.6043929             -16.4464
        21        2.0000           -0.5966848             -16.2366
        22        2.0000           -0.5881022             -16.0031
        23        2.0000           -0.5753674             -15.6565
        24        2.0000           -0.5695705             -15.4988
        25        2.0000           -0.5588176             -15.2062
        26        2.0000           -0.5493717             -14.9492
        27        2.0000           -0.5436219             -14.7927
        28        2.0000           -0.5329052             -14.5011
        29        2.0000           -0.5313789             -14.4596
        30        2.0000           -0.5223918             -14.2150 (HOMO)
        31                         -0.3876353             -10.5481 (LUMO)
        32                         -0.3291419              -8.9564
        33                         -0.2703295              -7.3560
        34                         -0.1749228              -4.7599
        35                         -0.1694992              -4.6123
        36                         -0.1565406              -4.2597
        37                         -0.1099424              -2.9917
        38                         -0.1010785              -2.7505
        39                         -0.0998731              -2.7177
        40                         -0.0990461              -2.6952
        41                         -0.0920530              -2.5049
       ...                                ...                  ...
        62                          0.7210560              19.6209
      -------------------------------------------------------------
                  HL-Gap            0.1347565 Eh            3.6669 eV

Wiberg/Mayer (AO) data.
largest (>0.10) Wiberg bond orders for each atom

     #   Z sym  total        # sym  WBO       # sym  WBO       # sym  WBO
 ---------------------------------------------------------------------------
     1   6 C    3.827 --    14 H    0.983    12 H    0.977    13 H    0.975
                             2 O    0.857
     2   8 O    2.259 --     3 C    1.192     1 C    0.857     4 O    0.160
     3   6 C    3.883 --     4 O    1.677     2 O    1.192     5 C    0.942
     4   8 O    1.985 --     3 C    1.677     2 O    0.160
     5   6 C    3.853 --    10 N    1.454     6 O    1.132     3 C    0.942
     6   8 O    2.386 --     5 C    1.132     7 C    1.085
     7   6 C    3.837 --     9 N    1.553     6 O    1.085     8 C    1.044
     8   6 C    3.967 --     7 C    1.044    16 H    0.969    15 H    0.965
                            17 H    0.937
     9   7 N    2.964 --     7 C    1.553    10 N    1.172
    10   7 N    3.670 --     5 C    1.454     9 N    1.172    11 C    0.908
    11   6 C    3.873 --    18 H    0.974    20 H    0.962    19 H    0.960
                            10 N    0.908
    12   1 H    0.999 --     1 C    0.977
    13   1 H    0.998 --     1 C    0.975
    14   1 H    1.003 --     1 C    0.983
    15   1 H    0.988 --     8 C    0.965
    16   1 H    0.989 --     8 C    0.969
    17   1 H    0.987 --     8 C    0.937
    18   1 H    1.000 --    11 C    0.974
    19   1 H    0.989 --    11 C    0.960
    20   1 H    0.989 --    11 C    0.962
 ---------------------------------------------------------------------------

           -------------------------------------------------
          | TOTAL ENERGY              -37.645280970703 Eh   |
          | GRADIENT NORM               0.000692875371 Eh/α |
          | HOMO-LUMO GAP               3.666909986495 eV   |
           -------------------------------------------------

 * finished run on 2023/06/20 at 14:55:25.936
