   * xtb version 6.5.1 (579679a) compiled by 'ehlert@majestix' on 2022-07-11
          program call               : /lustre/hpc/kemi/ree/PhD/git/ReactivityQM/dep/xtb-6.5.1/bin/xtb --gfn 1 /lustre/hpc/kemi/ree/PhD/git/ReactivityQM/calculations/R01/reac01prodN05/conf01/R01_reac01prodN05_conf01_gfn1.xyz --opt --vfukui --chrg 1 --uhf 0 --alpb DMSO

   ID    Z sym.   atoms
    1    6 C      1, 3, 4, 6, 9, 10
    2    8 O      2, 5, 11
    3    7 N      7, 8
    4    1 H      12-20

      * Solvation model:               ALPB
        Solvent                        DMSO
        Solvent mass                       7.8130E+01 g/mol
          :  Hamiltonian                  GFN1-xTB          :
 * total energy  :   -37.4469974 Eh     change       -0.6224354E-11 Eh
 * total energy  :   -37.4638641 Eh     change       -0.1686666E-01 Eh
 * total energy  :   -37.4767597 Eh     change       -0.1289559E-01 Eh
 * total energy  :   -37.4807018 Eh     change       -0.3942106E-02 Eh
 * total energy  :   -37.4832634 Eh     change       -0.2561616E-02 Eh
 * total energy  :   -37.4854559 Eh     change       -0.2192508E-02 Eh
 * total energy  :   -37.4931021 Eh     change       -0.7646206E-02 Eh
 * total energy  :   -37.5097209 Eh     change       -0.1661877E-01 Eh
 * total energy  :   -37.5356371 Eh     change       -0.2591618E-01 Eh
 * total energy  :   -37.5006031 Eh     change        0.3503398E-01 Eh
 * total energy  :   -37.6263393 Eh     change       -0.7954511E-05 Eh
 * total energy  :   -37.6263466 Eh     change       -0.7289506E-05 Eh
 * total energy  :   -37.6263600 Eh     change       -0.1337209E-04 Eh
 * total energy  :   -37.6263682 Eh     change       -0.8261260E-05 Eh
 * total energy  :   -37.6263807 Eh     change       -0.1250092E-04 Eh
 * total energy  :   -37.6263751 Eh     change        0.5662634E-05 Eh
 * total energy  :   -37.6263873 Eh     change       -0.1219385E-04 Eh
 * total energy  :   -37.6263868 Eh     change        0.4696394E-06 Eh
 * total energy  :   -37.6263903 Eh     change       -0.3478740E-05 Eh
   *** GEOMETRY OPTIMIZATION CONVERGED AFTER 80 ITERATIONS ***

 final structure:
================
20
 xtb: 6.5.1 (579679a)
C           -2.66996657955928        2.11932595775165        0.41083841956400
O           -2.84698443490858        0.69797833594118        0.21603965150142
C           -1.86219943376865       -0.08276024426892        0.06309509018520
C           -2.10371302720025       -1.51737142194852       -0.14254530422331
O           -0.67070970602230        0.44420254506644        0.09492446828755
C            0.49655195642049       -0.22898145837070       -0.05595531755771
N            0.68964835103477       -1.48471587704182       -0.27351979501124
N            2.04451784401090       -1.63188383553232       -0.34613698280673
C            2.56973765674210       -0.45961717057192       -0.16740914585534
C            3.99816729261049       -0.08849276720104       -0.15427034553912
O            1.61835952429182        0.48351039388376        0.02417562199708
H           -3.67035715976766        2.52422744984940        0.54119418224242
H           -2.05423056076312        2.28502573256402        1.29426914608642
H           -2.18234633573801        2.53734036830099       -0.46931145791388
H           -1.66776861224147       -1.81889408584223       -1.09807911323157
H           -1.57625492126441       -2.08462344464082        0.62777152068659
H           -3.17031668310265       -1.72879904467239       -0.11986870368845
H            4.60542935286893       -0.96583765463117       -0.36445011532632
H            4.18733510347834        0.68168216235193       -0.90218332917925
H            4.26509937287889        0.31868305901205        0.82142050978198

          :  Hamiltonian                  GFN1-xTB          :
         :: total energy             -37.626390282321 Eh    ::
         :: gradient norm              0.000158697898 Eh/a0 ::
         :: HOMO-LUMO gap              2.892194775365 eV    ::
         :: SCC energy               -37.972891044442 Eh    ::
         :: -> Gsolv                  -0.079155015764 Eh    ::
         :: repulsion energy           0.354392108756 Eh    ::

    * Orbital Energies and Occupations

         #    Occupation            Energy/Eh            Energy/eV
      -------------------------------------------------------------
         1        2.0000           -0.9508752             -25.8746
       ...           ...                  ...                  ...
        18        2.0000           -0.6237217             -16.9723
        19        2.0000           -0.5976715             -16.2635
        20        2.0000           -0.5957229             -16.2104
        21        2.0000           -0.5871354             -15.9768
        22        2.0000           -0.5694157             -15.4946
        23        2.0000           -0.5646259             -15.3643
        24        2.0000           -0.5617915             -15.2871
        25        2.0000           -0.5588349             -15.2067
        26        2.0000           -0.5507933             -14.9878
        27        2.0000           -0.5436168             -14.7926
        28        2.0000           -0.5188093             -14.1175
        29        2.0000           -0.4933602             -13.4250
        30        2.0000           -0.4863256             -13.2336 (HOMO)
        31                         -0.3800394             -10.3414 (LUMO)
        32                         -0.2949405              -8.0257
        33                         -0.2830186              -7.7013
        34                         -0.1815244              -4.9395
        35                         -0.1672789              -4.5519
        36                         -0.1544269              -4.2022
        37                         -0.1157239              -3.1490
        38                         -0.1080417              -2.9400
        39                         -0.1076220              -2.9285
        40                         -0.1036972              -2.8217
        41                         -0.0858439              -2.3359
       ...                                ...                  ...
        62                          0.5785109              15.7421
      -------------------------------------------------------------
                  HL-Gap            0.1062862 Eh            2.8922 eV

Wiberg/Mayer (AO) data.
largest (>0.10) Wiberg bond orders for each atom

     #   Z sym  total        # sym  WBO       # sym  WBO       # sym  WBO
 ---------------------------------------------------------------------------
     1   6 C    3.799 --    12 H    0.980    13 H    0.970    14 H    0.969
                             2 O    0.831
     2   8 O    2.352 --     3 C    1.348     1 C    0.831
     3   6 C    3.768 --     2 O    1.348     5 O    1.182     4 C    1.051
     4   6 C    3.960 --     3 C    1.051    17 H    0.972    16 H    0.927
                            15 H    0.925
     5   8 O    2.359 --     3 C    1.182     6 C    0.961
     6   6 C    3.818 --     7 N    1.594    11 O    1.086     5 O    0.961
     7   7 N    3.022 --     6 C    1.594     8 N    1.178
     8   7 N    2.979 --     9 C    1.622     7 N    1.178
     9   6 C    3.842 --     8 N    1.622    11 O    1.041    10 C    1.037
    10   6 C    3.977 --     9 C    1.037    18 H    0.979    19 H    0.958
                            20 H    0.955
    11   8 O    2.330 --     6 C    1.086     9 C    1.041
    12   1 H    0.998 --     1 C    0.980
    13   1 H    0.993 --     1 C    0.970
    14   1 H    0.993 --     1 C    0.969
    15   1 H    0.993 --     4 C    0.925
    16   1 H    0.993 --     4 C    0.927
    17   1 H    0.985 --     4 C    0.972
    18   1 H    0.994 --    10 C    0.979
    19   1 H    0.992 --    10 C    0.958
    20   1 H    0.992 --    10 C    0.955
 ---------------------------------------------------------------------------

           -------------------------------------------------
          | TOTAL ENERGY              -37.626390282321 Eh   |
          | GRADIENT NORM               0.000158697898 Eh/α |
          | HOMO-LUMO GAP               2.892194775365 eV   |
           -------------------------------------------------

 * finished run on 2023/06/20 at 14:56:08.422
