   * xtb version 6.5.1 (579679a) compiled by 'ehlert@majestix' on 2022-07-11
          program call               : /lustre/hpc/kemi/ree/PhD/git/ReactivityQM/dep/xtb-6.5.1/bin/xtb --gfn 1 /lustre/hpc/kemi/ree/PhD/git/ReactivityQM/calculations/R03/reac01prodE02/conf02/R03_reac01prodE02_conf02_gfn1.xyz --opt --vfukui --chrg -1 --uhf 0 --alpb DMSO

   ID    Z sym.   atoms
    1    6 C      1-4, 6-9
    2    9 F      5
    3    7 N      10
    4    1 H      11-21

      * Solvation model:               ALPB
        Solvent                        DMSO
        Solvent mass                       7.8130E+01 g/mol
          :  Hamiltonian                  GFN1-xTB          :
 * total energy  :   -31.4570962 Eh     change       -0.4366285E-11 Eh
 * total energy  :   -31.4623960 Eh     change       -0.5299785E-02 Eh
 * total energy  :   -31.4634531 Eh     change       -0.1057193E-02 Eh
 * total energy  :   -31.4636075 Eh     change       -0.1543483E-03 Eh
 * total energy  :   -31.4637435 Eh     change       -0.1359854E-03 Eh
 * total energy  :   -31.4638411 Eh     change       -0.9764196E-04 Eh
 * total energy  :   -31.4639443 Eh     change       -0.1031745E-03 Eh
 * total energy  :   -31.4640228 Eh     change       -0.7850613E-04 Eh
 * total energy  :   -31.4640559 Eh     change       -0.3310497E-04 Eh
 * total energy  :   -31.4640673 Eh     change       -0.1142327E-04 Eh
 * total energy  :   -31.4640731 Eh     change       -0.5771993E-05 Eh
 * total energy  :   -31.4640799 Eh     change       -0.6845211E-05 Eh
 * total energy  :   -31.4640861 Eh     change       -0.6130178E-05 Eh
 * total energy  :   -31.4640904 Eh     change       -0.4371180E-05 Eh
   *** GEOMETRY OPTIMIZATION CONVERGED AFTER 14 ITERATIONS ***

 final structure:
================
21
 xtb: 6.5.1 (579679a)
C            0.03011758370719        2.15649244812077       -0.22423215416695
C            0.24665809660887        0.81631090318876        0.55065219172343
C            1.72409728663586        0.56741789436193        0.77947113010700
C            2.38461983502805       -0.33310140703669        0.00892284136405
F            3.74853042721980       -0.43387477131977        0.18466265650761
C            1.80203546904191       -1.22291418576956       -0.89935031221454
C            0.38652876052091       -1.23395755750717       -0.91133214669449
C           -0.37576267044676       -0.34755267119936       -0.20781521739524
C           -1.87853830836338       -0.49722007615089       -0.15868728078529
N           -2.28552484420832       -1.65341342491893        0.67977300139356
H           -1.03465060278692        2.36485384219955       -0.33910092171228
H            0.49084984683507        2.98320449243998        0.31902720908625
H            0.48283390699711        2.09409058209832       -1.21523540755084
H           -0.26189954199332        0.94809950803851        1.52557350756458
H            2.24237226417419        1.17423848361256        1.51290213626237
H            2.39225516943038       -1.93439367745521       -1.46055475864575
H           -0.11363974739107       -2.01540859930122       -1.48628457453891
H           -2.35162544273800        0.42103655304356        0.22705706353685
H           -2.28507761211268       -0.67897829651283       -1.16415628297229
H           -3.29162480964761       -1.72837212293991        0.63480820773960
H           -2.05255706651137       -1.44655891699240        1.64389711139129

          :  Hamiltonian                  GFN1-xTB          :
         :: total energy             -31.464090448109 Eh    ::
         :: gradient norm              0.000452368320 Eh/a0 ::
         :: HOMO-LUMO gap              2.681866061231 eV    ::
         :: SCC energy               -31.835619580523 Eh    ::
         :: -> Gsolv                  -0.083482261565 Eh    ::
         :: repulsion energy           0.381717292008 Eh    ::

    * Orbital Energies and Occupations

         #    Occupation            Energy/Eh            Energy/eV
      -------------------------------------------------------------
         1        2.0000           -0.7895625             -21.4851
       ...           ...                  ...                  ...
        16        2.0000           -0.4858610             -13.2210
        17        2.0000           -0.4779726             -13.0063
        18        2.0000           -0.4744061             -12.9092
        19        2.0000           -0.4611596             -12.5488
        20        2.0000           -0.4545731             -12.3696
        21        2.0000           -0.4447369             -12.1019
        22        2.0000           -0.4359534             -11.8629
        23        2.0000           -0.4136474             -11.2559
        24        2.0000           -0.4039873             -10.9931
        25        2.0000           -0.3993358             -10.8665
        26        2.0000           -0.3732409             -10.1564
        27        2.0000           -0.3597552              -9.7894
        28        2.0000           -0.2777178              -7.5571 (HOMO)
        29                         -0.1791610              -4.8752 (LUMO)
        30                         -0.1093762              -2.9763
        31                         -0.0852535              -2.3199
        32                         -0.0777827              -2.1166
        33                         -0.0708288              -1.9274
        34                         -0.0574321              -1.5628
        35                         -0.0473006              -1.2871
        36                         -0.0421327              -1.1465
        37                         -0.0276690              -0.7529
        38                         -0.0228055              -0.6206
        39                         -0.0187549              -0.5103
       ...                                ...                  ...
        62                          0.6576662              17.8960
      -------------------------------------------------------------
                  HL-Gap            0.0985568 Eh            2.6819 eV

Wiberg/Mayer (AO) data.
largest (>0.10) Wiberg bond orders for each atom

     #   Z sym  total        # sym  WBO       # sym  WBO       # sym  WBO
 ---------------------------------------------------------------------------
     1   6 C    3.992 --    13 H    0.989    12 H    0.988    11 H    0.986
                             2 C    0.966
     2   6 C    3.992 --     3 C    1.006     8 C    0.998    14 H    0.971
                             1 C    0.966
     3   6 C    3.900 --     4 C    1.583     2 C    1.006    15 H    0.975
                             6 C    0.110
     4   6 C    3.824 --     3 C    1.583     6 C    1.302     5 F    0.851
     5   9 F    0.958 --     4 C    0.851
     6   6 C    3.872 --     4 C    1.302     7 C    1.286    16 H    0.977
                             3 C    0.110     8 C    0.105
     7   6 C    3.994 --     8 C    1.627     6 C    1.286    17 H    0.972
     8   6 C    3.932 --     7 C    1.627     9 C    1.008     2 C    0.998
                             6 C    0.105
     9   6 C    3.969 --     8 C    1.008    19 H    0.979    18 H    0.977
                            10 N    0.966
    10   7 N    2.932 --     9 C    0.966    21 H    0.960    20 H    0.959
    11   1 H    1.014 --     1 C    0.986
    12   1 H    1.015 --     1 C    0.988
    13   1 H    1.022 --     1 C    0.989
    14   1 H    1.021 --     2 C    0.971
    15   1 H    1.004 --     3 C    0.975
    16   1 H    1.005 --     6 C    0.977
    17   1 H    1.008 --     7 C    0.972
    18   1 H    1.009 --     9 C    0.977
    19   1 H    1.020 --     9 C    0.979
    20   1 H    0.972 --    10 N    0.959
    21   1 H    0.978 --    10 N    0.960
 ---------------------------------------------------------------------------

           -------------------------------------------------
          | TOTAL ENERGY              -31.464090448109 Eh   |
          | GRADIENT NORM               0.000452368320 Eh/α |
          | HOMO-LUMO GAP               2.681866061231 eV   |
           -------------------------------------------------

 * finished run on 2023/06/20 at 15:12:57.856
