   * xtb version 6.5.1 (579679a) compiled by 'ehlert@majestix' on 2022-07-11
          program call               : /lustre/hpc/kemi/ree/PhD/git/ReactivityQM/dep/xtb-6.5.1/bin/xtb --gfn 1 /lustre/hpc/kemi/ree/PhD/git/ReactivityQM/calculations/R02/reac01prodE11/conf03/R02_reac01prodE11_conf03_gfn1.xyz --opt --vfukui --chrg -1 --uhf 0 --alpb DMSO

   ID    Z sym.   atoms
    1    6 C      1, 3, 5, 7-10, 12, 14, 17-19, 22, 24
    2    8 O      2, 4, 13, 20, 23, 25
    3    7 N      6, 11, 15, 16, 21
    4    1 H      26-43

      * Solvation model:               ALPB
        Solvent                        DMSO
        Solvent mass                       7.8130E+01 g/mol
          :  Hamiltonian                  GFN1-xTB          :
 * total energy  :   -83.8733085 Eh     change       -0.1667928E-09 Eh
 * total energy  :   -83.8820826 Eh     change       -0.8774075E-02 Eh
 * total energy  :   -83.8853271 Eh     change       -0.3244465E-02 Eh
 * total energy  :   -83.8860021 Eh     change       -0.6750246E-03 Eh
 * total energy  :   -83.8867454 Eh     change       -0.7432950E-03 Eh
 * total energy  :   -83.8871773 Eh     change       -0.4318498E-03 Eh
 * total energy  :   -83.8875417 Eh     change       -0.3644702E-03 Eh
 * total energy  :   -83.8878045 Eh     change       -0.2627325E-03 Eh
 * total energy  :   -83.8879513 Eh     change       -0.1468727E-03 Eh
 * total energy  :   -83.8880379 Eh     change       -0.8654789E-04 Eh
 * total energy  :   -83.8901685 Eh     change       -0.4484484E-04 Eh
 * total energy  :   -83.8902257 Eh     change       -0.5716566E-04 Eh
 * total energy  :   -83.8902724 Eh     change       -0.4669482E-04 Eh
 * total energy  :   -83.8902996 Eh     change       -0.2719263E-04 Eh
 * total energy  :   -83.8903164 Eh     change       -0.1677343E-04 Eh
 * total energy  :   -83.8903271 Eh     change       -0.1078117E-04 Eh
 * total energy  :   -83.8903357 Eh     change       -0.8549434E-05 Eh
 * total energy  :   -83.8903438 Eh     change       -0.8119025E-05 Eh
 * total energy  :   -83.8903484 Eh     change       -0.4618030E-05 Eh
   *** GEOMETRY OPTIMIZATION CONVERGED AFTER 47 ITERATIONS ***

 final structure:
================
43
 xtb: 6.5.1 (579679a)
C           -5.87557749817377        1.64984856571237       -2.00829882075544
O           -4.67097994386763        1.10945935463146       -1.46294237972474
C           -4.55193415351341        1.14777271817256       -0.13670182771737
O           -5.41428046509153        1.62588145186954        0.58674053957473
C           -3.30058529808269        0.55854026590658        0.37312750796073
N           -2.40988014129809        0.07737780989077       -0.55216108205633
C           -1.30366585261866       -0.44492372846981       -0.13666269939504
C           -0.30219449551417       -1.02593097355605       -1.11899790043593
C           -0.44855205454482       -2.55208180918947       -1.11007288979459
C           -0.57427886686420       -0.46756791949130       -2.52155373589040
N            1.04763986969402       -0.69147530883823       -0.70350422150336
C            1.33220450769400        0.60676956331979       -0.26036669971113
O            0.49713737467288        1.52257404141163       -0.41126543705089
C            2.61036666309750        0.75033026537076        0.32060796842991
N            3.15974580268738        1.86119814083489        0.79326301041373
N            4.35159538588659        1.63381117858925        1.25038046207395
C            4.64265914399769        0.20575640215229        1.05740712103242
C            4.91135042213126       -0.46221224171757        2.41403633101891
C            5.84723399161459        0.04591198639628        0.11629154998550
O            3.47611135909669       -0.34749119086049        0.45844029493397
N           -1.01079215674332       -0.56471468256583        1.19046282322237
C           -1.81327710301265       -0.10607883321254        2.21450562479908
O           -1.48039918488829       -0.23901814835060        3.38433327036711
C           -3.04738984435339        0.50690888040071        1.72750778347468
O           -3.88463742737259        0.97855219982630        2.66376271695140
H           -5.85839743845104        1.43984086619821       -3.07585983303348
H           -5.91733232385950        2.72828722709254       -1.83548897911795
H           -6.74437414799524        1.17805458158063       -1.54317240683223
H           -1.45400648834985       -2.83151998018977       -1.42110951527535
H            0.26910099175888       -2.99646022494913       -1.79725266271043
H           -0.26808882641214       -2.94391657183985       -0.11026788906646
H           -1.58000969350695       -0.73840420444810       -2.83929378449947
H           -0.48779074849080        0.61903891212666       -2.51024750274538
H            0.14805653877875       -0.87879522103527       -3.22401550145117
H            1.63671452586619       -1.44020202824111       -0.38046680570690
H            4.04893110834039       -0.32119853854458        3.06345118059660
H            5.78565154042870       -0.01137216251400        2.87941063759906
H            5.08348223290557       -1.52809096230667        2.27832162719045
H            5.62544479363820        0.52433081342466       -0.83638751798458
H            6.05240710269953       -1.00904543646514       -0.05492848053213
H            6.72298348844211        0.51798349487708        0.55726431311330
H           -0.15460422347394       -1.02931151598315        1.45998137109734
H           -4.69578846693504        1.34158296294474        2.24296543916395

          :  Hamiltonian                  GFN1-xTB          :
         :: total energy             -83.890348432346 Eh    ::
         :: gradient norm              0.000585851790 Eh/a0 ::
         :: HOMO-LUMO gap              0.185826256290 eV    ::
         :: SCC energy               -84.647776387894 Eh    ::
         :: -> Gsolv                  -0.120857996699 Eh    ::
         :: repulsion energy           0.784183802486 Eh    ::

    * Orbital Energies and Occupations

         #    Occupation            Energy/Eh            Energy/eV
      -------------------------------------------------------------
         1        2.0000           -0.8344286             -22.7060
       ...           ...                  ...                  ...
        56        2.0000           -0.4763309             -12.9616
        57        2.0000           -0.4722879             -12.8516
        58        2.0000           -0.4702790             -12.7969
        59        2.0000           -0.4505628             -12.2604
        60        2.0000           -0.4457058             -12.1283
        61        2.0000           -0.4396245             -11.9628
        62        2.0000           -0.4320510             -11.7567
        63        2.0000           -0.4204813             -11.4419
        64        2.0000           -0.4163485             -11.3294
        65        2.0000           -0.4061596             -11.0522
        66        2.0000           -0.4015917             -10.9279
        67        2.0000           -0.3748178             -10.1993
        68        1.9465           -0.3206377              -8.7250 (HOMO)
        69        0.0535           -0.3138087              -8.5392 (LUMO)
        70                         -0.2649054              -7.2084
        71                         -0.2421828              -6.5901
        72                         -0.2294691              -6.2442
        73                         -0.1445287              -3.9328
        74                         -0.1350892              -3.6760
        75                         -0.1302684              -3.5448
        76                         -0.1223502              -3.3293
        77                         -0.1116448              -3.0380
        78                         -0.1046201              -2.8469
        79                         -0.0987984              -2.6884
       ...                                ...                  ...
       136                          0.7215477              19.6343
      -------------------------------------------------------------
                  HL-Gap            0.0068290 Eh            0.1858 eV

Wiberg/Mayer (AO) data.
largest (>0.10) Wiberg bond orders for each atom

     #   Z sym  total        # sym  WBO       # sym  WBO       # sym  WBO
 ---------------------------------------------------------------------------
     1   6 C    3.874 --    26 H    0.986    28 H    0.979    27 H    0.979
                             2 O    0.900
     2   8 O    2.200 --     3 C    1.116     1 C    0.900     4 O    0.123
     3   6 C    3.826 --     4 O    1.588     2 O    1.116     5 C    1.037
     4   8 O    1.917 --     3 C    1.588     2 O    0.123
     5   6 C    3.947 --    24 C    1.461     6 N    1.181     3 C    1.037
     6   7 N    3.018 --     7 C    1.574     5 C    1.181
     7   6 C    3.915 --     6 N    1.574    21 N    1.165     8 C    0.971
     8   6 C    3.959 --    10 C    0.991     9 C    0.982     7 C    0.971
                            11 N    0.959
     9   6 C    3.993 --    29 H    0.986    31 H    0.984    30 H    0.983
                             8 C    0.982
    10   6 C    3.993 --     8 C    0.991    34 H    0.987    32 H    0.986
                            33 H    0.981
    11   7 N    3.197 --    12 C    1.075     8 C    0.959    35 H    0.908
                            13 O    0.106
    12   6 C    3.916 --    13 O    1.449    14 C    1.219    11 N    1.075
    13   8 O    1.774 --    12 C    1.449    11 N    0.106
    14   6 C    3.815 --    15 N    1.388    12 C    1.219    20 O    0.934
                            16 N    0.139
    15   7 N    3.023 --    16 N    1.479    14 C    1.388
    16   7 N    2.845 --    15 N    1.479    17 C    0.982    14 C    0.139
    17   6 C    3.895 --    16 N    0.982    18 C    0.978    19 C    0.977
                            20 O    0.918
    18   6 C    3.989 --    37 H    0.988    38 H    0.986    36 H    0.985
                            17 C    0.978
    19   6 C    3.989 --    41 H    0.988    40 H    0.986    39 H    0.985
                            17 C    0.977
    20   8 O    2.051 --    14 C    0.934    17 C    0.918
    21   7 N    3.455 --     7 C    1.165    22 C    1.125    42 H    0.889
                            23 O    0.132
    22   6 C    3.901 --    23 O    1.573    21 N    1.125    24 C    1.074
    23   8 O    1.867 --    22 C    1.573    21 N    0.132
    24   6 C    3.889 --     5 C    1.461    25 O    1.104    22 C    1.074
    25   8 O    2.066 --    24 C    1.104    43 H    0.785
    26   1 H    1.011 --     1 C    0.986
    27   1 H    1.007 --     1 C    0.979
    28   1 H    1.008 --     1 C    0.979
    29   1 H    1.003 --     9 C    0.986
    30   1 H    1.000 --     9 C    0.983
    31   1 H    1.001 --     9 C    0.984
    32   1 H    1.013 --    10 C    0.986
    33   1 H    1.020 --    10 C    0.981
    34   1 H    1.007 --    10 C    0.987
    35   1 H    0.953 --    11 N    0.908
    36   1 H    1.013 --    18 C    0.985
    37   1 H    1.009 --    18 C    0.988
    38   1 H    1.007 --    18 C    0.986
    39   1 H    1.013 --    19 C    0.985
    40   1 H    1.007 --    19 C    0.986
    41   1 H    1.009 --    19 C    0.988
    42   1 H    0.940 --    21 N    0.889
    43   1 H    0.860 --    25 O    0.785
 ---------------------------------------------------------------------------

           -------------------------------------------------
          | TOTAL ENERGY              -83.890348432346 Eh   |
          | GRADIENT NORM               0.000585851790 Eh/α |
          | HOMO-LUMO GAP               0.185826256290 eV   |
           -------------------------------------------------

 * finished run on 2023/06/20 at 15:13:32.577
