   * xtb version 6.5.1 (579679a) compiled by 'ehlert@majestix' on 2022-07-11
          program call               : /lustre/hpc/kemi/ree/PhD/git/ReactivityQM/dep/xtb-6.5.1/bin/xtb --gfn 1 /lustre/hpc/kemi/ree/PhD/git/ReactivityQM/calculations/R01/reac01prodE03/conf04/R01_reac01prodE03_conf04_gfn1.xyz --opt --vfukui --chrg -1 --uhf 0 --alpb DMSO

   ID    Z sym.   atoms
    1    6 C      1, 3, 5, 6, 9, 10
    2    8 O      2, 4, 11
    3    7 N      7, 8
    4    1 H      12-20

      * Solvation model:               ALPB
        Solvent                        DMSO
        Solvent mass                       7.8130E+01 g/mol
          :  Hamiltonian                  GFN1-xTB          :
 * total energy  :   -38.3106587 Eh     change       -0.2501110E-10 Eh
 * total energy  :   -38.3220499 Eh     change       -0.1139118E-01 Eh
 * total energy  :   -38.3255734 Eh     change       -0.3523570E-02 Eh
 * total energy  :   -38.3261254 Eh     change       -0.5519788E-03 Eh
 * total energy  :   -38.3266760 Eh     change       -0.5505600E-03 Eh
 * total energy  :   -38.3270159 Eh     change       -0.3399033E-03 Eh
 * total energy  :   -38.3275546 Eh     change       -0.5387115E-03 Eh
 * total energy  :   -38.3280075 Eh     change       -0.4528981E-03 Eh
 * total energy  :   -38.3283010 Eh     change       -0.2935108E-03 Eh
 * total energy  :   -38.3280325 Eh     change        0.2684921E-03 Eh
 * total energy  :   -38.3290247 Eh     change       -0.2999913E-04 Eh
 * total energy  :   -38.3290465 Eh     change       -0.2182298E-04 Eh
 * total energy  :   -38.3290549 Eh     change       -0.8309782E-05 Eh
 * total energy  :   -38.3290669 Eh     change       -0.1204508E-04 Eh
 * total energy  :   -38.3290767 Eh     change       -0.9789897E-05 Eh
 * total energy  :   -38.3290986 Eh     change       -0.2194661E-04 Eh
 * total energy  :   -38.3291130 Eh     change       -0.1436359E-04 Eh
 * total energy  :   -38.3291189 Eh     change       -0.5890923E-05 Eh
 * total energy  :   -38.3291228 Eh     change       -0.3932190E-05 Eh
   *** GEOMETRY OPTIMIZATION CONVERGED AFTER 26 ITERATIONS ***

 final structure:
================
20
 xtb: 6.5.1 (579679a)
C           -2.64593386825883        1.46770409696371       -0.35113616335966
O           -1.35097077995030        0.89589996172809       -0.47348851768505
C           -1.29790984118744       -0.46275868677992       -0.44423381409575
O           -2.31906659367618       -1.14124044721990       -0.35920779987929
C            0.11104029066593       -1.01466782157964       -0.25601592548708
C            0.27859748259465       -2.42004849753029       -0.83676630387824
N            0.09246586755701       -0.97306399581788        1.20605718422525
N            0.99923761867138       -0.00036545717383        1.54493300210803
C            1.57223616130663        0.45621970707731        0.49744586785060
C            2.64503097198349        1.48441331763877        0.41727241788178
O            1.12729915505052       -0.13166390231032       -0.69596377669660
H           -2.51891795194979        2.54927994350135       -0.32269479622826
H           -3.27012050399330        1.19401820787039       -1.20821151772664
H           -3.14020389795836        1.12799188383200        0.56551975831249
H            1.20660594313436       -2.85223238200031       -0.46842882730072
H           -0.55852461173388       -3.04016959165464       -0.52162211880211
H            0.31007762262508       -2.37751069824487       -1.92414688734048
H            2.31872593556150        2.34860371109104       -0.16494086691910
H            3.53673994909002        1.07670203008123       -0.06315021186461
H            2.90359105046773        1.81289062052723        1.42243329688518

          :  Hamiltonian                  GFN1-xTB          :
         :: total energy             -38.329122820344 Eh    ::
         :: gradient norm              0.000409768601 Eh/a0 ::
         :: HOMO-LUMO gap              2.060220386588 eV    ::
         :: SCC energy               -38.635821308776 Eh    ::
         :: -> Gsolv                  -0.104121381719 Eh    ::
         :: repulsion energy           0.315574787278 Eh    ::

    * Orbital Energies and Occupations

         #    Occupation            Energy/Eh            Energy/eV
      -------------------------------------------------------------
         1        2.0000           -0.7921131             -21.5545
       ...           ...                  ...                  ...
        19        2.0000           -0.5036910             -13.7061
        20        2.0000           -0.4984825             -13.5644
        21        2.0000           -0.4935632             -13.4305
        22        2.0000           -0.4883358             -13.2883
        23        2.0000           -0.4756427             -12.9429
        24        2.0000           -0.4682385             -12.7414
        25        2.0000           -0.4607520             -12.5377
        26        2.0000           -0.4578561             -12.4589
        27        2.0000           -0.4196780             -11.4200
        28        2.0000           -0.4134854             -11.2515
        29        2.0000           -0.3891098             -10.5882
        30        2.0000           -0.3627136              -9.8699
        31        2.0000           -0.2894963              -7.8776 (HOMO)
        32                         -0.2137846              -5.8174 (LUMO)
        33                         -0.1708445              -4.6489
        34                         -0.1206265              -3.2824
        35                         -0.1131961              -3.0802
        36                         -0.0979629              -2.6657
        37                         -0.0585972              -1.5945
        38                         -0.0569521              -1.5497
        39                         -0.0469693              -1.2781
        40                         -0.0454872              -1.2378
        41                         -0.0393054              -1.0696
        42                         -0.0342509              -0.9320
       ...                                ...                  ...
        62                          0.6691954              18.2097
      -------------------------------------------------------------
                  HL-Gap            0.0757117 Eh            2.0602 eV

Wiberg/Mayer (AO) data.
largest (>0.10) Wiberg bond orders for each atom

     #   Z sym  total        # sym  WBO       # sym  WBO       # sym  WBO
 ---------------------------------------------------------------------------
     1   6 C    3.903 --    12 H    0.987    13 H    0.981    14 H    0.981
                             2 O    0.926
     2   8 O    2.152 --     3 C    1.043     1 C    0.926     4 O    0.104
     3   6 C    3.815 --     4 O    1.570     2 O    1.043     5 C    0.922
                             7 N    0.178
     4   8 O    1.855 --     3 C    1.570     2 O    0.104
     5   6 C    3.901 --     6 C    0.980     7 N    0.967    11 O    0.928
                             3 C    0.922
     6   6 C    3.996 --    17 H    0.987    15 H    0.986    16 H    0.986
                             5 C    0.980
     7   7 N    2.658 --     8 N    1.161     5 C    0.967     3 C    0.178
                             9 C    0.162
     8   7 N    3.014 --     9 C    1.688     7 N    1.161
     9   6 C    3.879 --     8 N    1.688    10 C    1.018    11 O    0.938
                             7 N    0.162
    10   6 C    3.996 --     9 C    1.018    20 H    0.987    18 H    0.976
                            19 H    0.976
    11   8 O    2.066 --     9 C    0.938     5 C    0.928
    12   1 H    1.016 --     1 C    0.987
    13   1 H    1.015 --     1 C    0.981
    14   1 H    1.014 --     1 C    0.981
    15   1 H    1.018 --     6 C    0.986
    16   1 H    1.017 --     6 C    0.986
    17   1 H    1.009 --     6 C    0.987
    18   1 H    1.008 --    10 C    0.976
    19   1 H    1.007 --    10 C    0.976
    20   1 H    1.009 --    10 C    0.987
 ---------------------------------------------------------------------------

           -------------------------------------------------
          | TOTAL ENERGY              -38.329122820344 Eh   |
          | GRADIENT NORM               0.000409768601 Eh/α |
          | HOMO-LUMO GAP               2.060220386588 eV   |
           -------------------------------------------------

 * finished run on 2023/06/20 at 14:53:19.854
