   * xtb version 6.5.1 (579679a) compiled by 'ehlert@majestix' on 2022-07-11
          program call               : /lustre/hpc/kemi/ree/PhD/git/ReactivityQM/dep/xtb-6.5.1/bin/xtb --gfn 1 /lustre/hpc/kemi/ree/PhD/git/ReactivityQM/calculations/R02oxygendeprot/reac01prodE07/conf17/R02oxygendeprot_reac01prodE07_conf17_gfn1.xyz --opt --vfukui --chrg -2 --uhf 0 --alpb DMSO

   ID    Z sym.   atoms
    1    6 C      1, 3, 5, 7-10, 12, 14, 15, 18, 19, 22, 24
    2    8 O      2, 4, 13, 20, 23, 25
    3    7 N      6, 11, 16, 17, 21
    4    1 H      26-42

      * Solvation model:               ALPB
        Solvent                        DMSO
        Solvent mass                       7.8130E+01 g/mol
          :  Hamiltonian                  GFN1-xTB          :
 * total energy  :   -83.5821698 Eh     change       -0.8819256E-10 Eh
 * total energy  :   -83.5974305 Eh     change       -0.1526068E-01 Eh
 * total energy  :   -83.6043086 Eh     change       -0.6878080E-02 Eh
 * total energy  :   -83.6056262 Eh     change       -0.1317644E-02 Eh
 * total energy  :   -83.6066255 Eh     change       -0.9992536E-03 Eh
 * total energy  :   -83.6070227 Eh     change       -0.3972232E-03 Eh
 * total energy  :   -83.6073240 Eh     change       -0.3012695E-03 Eh
 * total energy  :   -83.6075797 Eh     change       -0.2557017E-03 Eh
 * total energy  :   -83.6078448 Eh     change       -0.2650842E-03 Eh
 * total energy  :   -83.6081459 Eh     change       -0.3011246E-03 Eh
 * total energy  :   -83.6184059 Eh     change       -0.3545090E-04 Eh
 * total energy  :   -83.6184171 Eh     change       -0.1122011E-04 Eh
 * total energy  :   -83.6184333 Eh     change       -0.1620032E-04 Eh
 * total energy  :   -83.6184445 Eh     change       -0.1111747E-04 Eh
 * total energy  :   -83.6184670 Eh     change       -0.2249003E-04 Eh
 * total energy  :   -83.6184773 Eh     change       -0.1033504E-04 Eh
 * total energy  :   -83.6184770 Eh     change        0.3147266E-06 Eh
 * total energy  :   -83.6184850 Eh     change       -0.8059729E-05 Eh
 * total energy  :   -83.6184892 Eh     change       -0.4219656E-05 Eh
   *** GEOMETRY OPTIMIZATION CONVERGED AFTER 87 ITERATIONS ***

 final structure:
================
42
 xtb: 6.5.1 (579679a)
C            6.72419299466168        1.47754805950818        0.44137911242735
O            5.63299234685437        0.70536973465988        0.91410515984437
C            4.49290415823255        0.77669321807141        0.17190054598306
O            4.45897899483394        1.47346186643157       -0.83869261877704
C            3.38533295022644       -0.01372700625515        0.67784537460049
N            2.24570845970439        0.09900621201861       -0.10455020629291
C            1.17419092063874       -0.52787356746149        0.21719800594792
C           -0.06745052600569       -0.46685464243750       -0.65199673750489
C            0.06774042138152       -1.53698182848941       -1.74658128129004
C           -0.18432173466785        0.92932330869426       -1.28298025913361
N           -1.23619082529390       -0.77891434458590        0.19293708547591
C           -2.46867743493969       -0.95148791426058       -0.56921634582227
O           -2.79962456671126       -2.29548831992308       -0.85001420013610
C           -3.57910427831969       -2.95598985594721        0.13858190906707
C           -3.46900234213401       -0.01099359745607       -0.48234876480283
N           -4.75901884470089       -0.11542001007147       -0.87077713401528
N           -5.30579142246044        1.14629927770259       -0.71467930020291
C           -4.38712214190684        1.92498577921757       -0.26777641700708
C           -4.50373051683931        3.37397391748097        0.04998948910797
O           -3.18106853040567        1.28901968427652       -0.08835235219893
N            1.11624890562114       -1.34286491314277        1.32624425650569
C            2.15915106677997       -1.55369108061749        2.17975552508229
O            2.02200980584103       -2.29921539459530        3.15247843001284
C            3.44026488314612       -0.82419048219326        1.84132509937228
O            4.42951184037641       -0.98103299673347        2.58740335577454
H            7.55321014460228        1.31814432119466        1.13012538710097
H            6.46675376816991        2.54155516929341        0.41573103228606
H            7.01738129946336        1.16403769010712       -0.56601031711628
H            0.98738806697116       -1.38069500900010       -2.31009544086907
H           -0.78066572650336       -1.48168707593750       -2.42887990912771
H            0.08959139005449       -2.52970813366751       -1.29639768565981
H           -0.33293695209319        1.67844384014606       -0.50557820320499
H            0.72757406567716        1.16677608785125       -1.83152692758401
H           -1.03241469640093        0.96113338766859       -1.96580660946116
H           -1.36701008521881        0.00405322198936        0.83346635223587
H           -3.70146474914275       -3.99560886411271       -0.17639258327069
H           -3.08769041353570       -2.93578707281256        1.12068707523146
H           -4.57244458144935       -2.49261982313553        0.23176518108573
H           -4.18760025356888        3.57191448571484        1.07501974040308
H           -3.87751292036107        3.97113309470051       -0.61532377008105
H           -5.53977816269028        3.68453289783072       -0.06880505221025
H            0.22949722207456       -1.78657232177153        1.53484499822353

          :  Hamiltonian                  GFN1-xTB          :
         :: total energy             -83.618489249957 Eh    ::
         :: gradient norm              0.000642315517 Eh/a0 ::
         :: HOMO-LUMO gap              0.600969371641 eV    ::
         :: SCC energy               -84.349571972701 Eh    ::
         :: -> Gsolv                  -0.255442177484 Eh    ::
         :: repulsion energy           0.756854528323 Eh    ::

    * Orbital Energies and Occupations

         #    Occupation            Energy/Eh            Energy/eV
      -------------------------------------------------------------
         1        2.0000           -0.7899879             -21.4967
       ...           ...                  ...                  ...
        56        2.0000           -0.4416432             -12.0177
        57        2.0000           -0.4267828             -11.6134
        58        2.0000           -0.4232461             -11.5171
        59        2.0000           -0.4151925             -11.2980
        60        2.0000           -0.4091528             -11.1336
        61        2.0000           -0.3996254             -10.8744
        62        2.0000           -0.3949121             -10.7461
        63        2.0000           -0.3842486             -10.4559
        64        2.0000           -0.3720456             -10.1239
        65        2.0000           -0.3658700              -9.9558
        66        2.0000           -0.3620916              -9.8530
        67        2.0000           -0.3515815              -9.5670
        68        2.0000           -0.2805999              -7.6355 (HOMO)
        69        0.0000           -0.2585147              -7.0345 (LUMO)
        70                         -0.2199076              -5.9840
        71                         -0.1854955              -5.0476
        72                         -0.1817407              -4.9454
        73                         -0.1401085              -3.8125
        74                         -0.1178105              -3.2058
        75                         -0.1124741              -3.0606
        76                         -0.1015406              -2.7631
        77                         -0.0973674              -2.6495
        78                         -0.0938119              -2.5528
        79                         -0.0895227              -2.4360
       ...                                ...                  ...
       134                          0.7581877              20.6313
      -------------------------------------------------------------
                  HL-Gap            0.0220852 Eh            0.6010 eV

Wiberg/Mayer (AO) data.
largest (>0.10) Wiberg bond orders for each atom

     #   Z sym  total        # sym  WBO       # sym  WBO       # sym  WBO
 ---------------------------------------------------------------------------
     1   6 C    3.903 --    26 H    0.987    28 H    0.980    27 H    0.980
                             2 O    0.930
     2   8 O    2.153 --     3 C    1.036     1 C    0.930     4 O    0.106
     3   6 C    3.848 --     4 O    1.566     5 C    1.127     2 O    1.036
     4   8 O    1.844 --     3 C    1.566     2 O    0.106
     5   6 C    3.919 --    24 C    1.279     6 N    1.145     3 C    1.127
                            25 O    0.130
     6   7 N    3.020 --     7 C    1.631     5 C    1.145
     7   6 C    3.926 --     6 N    1.631    21 N    1.100     8 C    0.977
     8   6 C    3.973 --    10 C    0.987     9 C    0.982     7 C    0.977
                            11 N    0.966
     9   6 C    3.994 --    29 H    0.988    31 H    0.986     8 C    0.982
                            30 H    0.981
    10   6 C    3.996 --     8 C    0.987    34 H    0.985    32 H    0.985
                            33 H    0.985
    11   7 N    3.037 --     8 C    0.966    12 C    0.946    35 H    0.945
    12   6 C    3.659 --    15 C    1.452    11 N    0.946    13 O    0.921
                            16 N    0.151
    13   8 O    1.993 --    14 C    0.949    12 C    0.921
    14   6 C    3.939 --    36 H    0.986    37 H    0.982    38 H    0.980
                            13 O    0.949
    15   6 C    3.863 --    12 C    1.452    16 N    1.307    20 O    0.961
    16   7 N    2.820 --    15 C    1.307    17 N    1.146    12 C    0.151
                            18 C    0.112
    17   7 N    2.986 --    18 C    1.678    16 N    1.146
    18   6 C    3.886 --    17 N    1.678    19 C    1.018    20 O    0.995
                            16 N    0.112
    19   6 C    3.996 --    18 C    1.018    41 H    0.987    39 H    0.976
                            40 H    0.974
    20   8 O    2.190 --    18 C    0.995    15 C    0.961
    21   7 N    3.442 --    22 C    1.181     7 C    1.100    42 H    0.888
                            23 O    0.136
    22   6 C    3.884 --    23 O    1.556    21 N    1.181    24 C    0.973
    23   8 O    1.837 --    22 C    1.556    21 N    0.136
    24   6 C    3.944 --    25 O    1.503     5 C    1.279    22 C    0.973
    25   8 O    1.808 --    24 C    1.503     5 C    0.130
    26   1 H    1.016 --     1 C    0.987
    27   1 H    1.015 --     1 C    0.980
    28   1 H    1.015 --     1 C    0.980
    29   1 H    1.010 --     9 C    0.988
    30   1 H    1.019 --     9 C    0.981
    31   1 H    1.013 --     9 C    0.986
    32   1 H    1.012 --    10 C    0.985
    33   1 H    1.018 --    10 C    0.985
    34   1 H    1.014 --    10 C    0.985
    35   1 H    0.979 --    11 N    0.945
    36   1 H    1.023 --    14 C    0.986
    37   1 H    1.019 --    14 C    0.982
    38   1 H    1.032 --    14 C    0.980
    39   1 H    1.006 --    19 C    0.976
    40   1 H    1.007 --    19 C    0.974
    41   1 H    1.008 --    19 C    0.987
    42   1 H    0.972 --    21 N    0.888
 ---------------------------------------------------------------------------

           -------------------------------------------------
          | TOTAL ENERGY              -83.618489249957 Eh   |
          | GRADIENT NORM               0.000642315517 Eh/α |
          | HOMO-LUMO GAP               0.600969371641 eV   |
           -------------------------------------------------

 * finished run on 2023/06/21 at 17:08:44.772
