   * xtb version 6.5.1 (579679a) compiled by 'ehlert@majestix' on 2022-07-11
          program call               : /lustre/hpc/kemi/ree/PhD/git/ReactivityQM/dep/xtb-6.5.1/bin/xtb --gfn 1 /lustre/hpc/kemi/ree/PhD/git/ReactivityQM/calculations/R01/reac02prodE05/conf12/R01_reac02prodE05_conf12_gfn1.xyz --opt --vfukui --chrg -1 --uhf 0 --alpb DMSO

   ID    Z sym.   atoms
    1    6 C      1, 3, 5, 6, 8, 11-15
    2    8 O      2, 4, 7, 9
    3    7 N      10, 16, 17
    4    1 H      18-33

      * Solvation model:               ALPB
        Solvent                        DMSO
        Solvent mass                       7.8130E+01 g/mol
          :  Hamiltonian                  GFN1-xTB          :
 * total energy  :   -58.5535999 Eh     change       -0.6082246E-11 Eh
 * total energy  :   -58.5601782 Eh     change       -0.6578327E-02 Eh
 * total energy  :   -58.5618666 Eh     change       -0.1688430E-02 Eh
 * total energy  :   -58.5621174 Eh     change       -0.2507570E-03 Eh
 * total energy  :   -58.5623312 Eh     change       -0.2137748E-03 Eh
 * total energy  :   -58.5624052 Eh     change       -0.7400738E-04 Eh
 * total energy  :   -58.5624775 Eh     change       -0.7233787E-04 Eh
 * total energy  :   -58.5625245 Eh     change       -0.4692945E-04 Eh
 * total energy  :   -58.5625446 Eh     change       -0.2013846E-04 Eh
 * total energy  :   -58.5625543 Eh     change       -0.9705638E-05 Eh
 * total energy  :   -58.5625634 Eh     change       -0.9053839E-05 Eh
 * total energy  :   -58.5625624 Eh     change        0.9207960E-06 Eh
 * total energy  :   -58.5625689 Eh     change       -0.6430816E-05 Eh
 * total energy  :   -58.5625772 Eh     change       -0.8343665E-05 Eh
 * total energy  :   -58.5625816 Eh     change       -0.4435983E-05 Eh
   *** GEOMETRY OPTIMIZATION CONVERGED AFTER 15 ITERATIONS ***

 final structure:
================
33
 xtb: 6.5.1 (579679a)
C            3.96004909015501        2.02869576576164        0.37552553432560
O            2.71850590207530        1.34311276486731        0.25617830277297
C            2.75511945915846        0.14855246030922       -0.35974457902878
O            3.80699085547459       -0.29842679395447       -0.79557745305654
C            1.43713729118969       -0.52227516851144       -0.43538628157450
C            1.31160157593451       -1.74265357226481       -1.11339335340878
O            2.39530115201190       -2.43883899391941       -1.65047052164464
C            0.01282460518425       -2.29045978788222       -1.34560905498155
O           -0.25792244180424       -3.32486026113217       -1.98101448114554
N           -1.03233611094695       -1.49236883524860       -0.87663994947108
C           -0.82767073280572       -0.57820262825674        0.24468559246092
C           -0.87433865481926       -1.38127377080094        1.57144878314134
C           -1.96174338300069        0.49417873495019        0.21123983468389
C           -1.93085955960289        1.21247864562908       -1.14717979448998
C           -1.75932155830803        1.51506152916217        1.33526608492601
N           -3.25473736942662       -0.16457304844189        0.41826945046568
N            0.43616364464684        0.11894034949362        0.15875884686521
H            4.66121560760787        1.44613233345423        0.98016116296042
H            3.75307412636472        2.98065197466176        0.86171092789159
H            4.40044655126503        2.20098114318549       -0.61077774224986
H            3.20797543159672       -1.92417195736259       -1.49532546283284
H           -1.92087459829780       -1.97170311054652       -0.85428781865284
H           -0.21675023821983       -2.24739781059348        1.50097316828028
H           -1.89109284606745       -1.71979423823639        1.76689035923040
H           -0.53743594306214       -0.75585513654447        2.39673923516945
H           -2.07223159619071        0.49499640714285       -1.95624694324861
H           -2.72218856712412        1.95904010772694       -1.19914201915273
H           -0.96593843302761        1.70518855081812       -1.27946906511287
H           -2.43199606422846        2.36238770582543        1.20036039475664
H           -1.96755513053970        1.06681524286789        2.30659254327148
H           -0.73031912142958        1.87825162895590        1.32531513903872
H           -3.54368791125358       -0.63470588740953       -0.43082027337214
H           -3.95740403250964        0.53209465629301        0.62097043318207

          :  Hamiltonian                  GFN1-xTB          :
         :: total energy             -58.562581640943 Eh    ::
         :: gradient norm              0.000926360181 Eh/a0 ::
         :: HOMO-LUMO gap              1.252714625599 eV    ::
         :: SCC energy               -59.095649150406 Eh    ::
         :: -> Gsolv                  -0.102813987416 Eh    ::
         :: repulsion energy           0.553018370942 Eh    ::

    * Orbital Energies and Occupations

         #    Occupation            Energy/Eh            Energy/eV
      -------------------------------------------------------------
         1        2.0000           -0.8105445             -22.0560
       ...           ...                  ...                  ...
        36        2.0000           -0.4812342             -13.0950
        37        2.0000           -0.4764604             -12.9651
        38        2.0000           -0.4757398             -12.9455
        39        2.0000           -0.4691714             -12.7668
        40        2.0000           -0.4557042             -12.4003
        41        2.0000           -0.4475511             -12.1785
        42        2.0000           -0.4372549             -11.8983
        43        2.0000           -0.4232267             -11.5166
        44        2.0000           -0.3984800             -10.8432
        45        2.0000           -0.3919672             -10.6660
        46        2.0000           -0.3818066             -10.3895
        47        2.0000           -0.3704610             -10.0808
        48        2.0000           -0.3142994              -8.5525 (HOMO)
        49                         -0.2682630              -7.2998 (LUMO)
        50                         -0.1867800              -5.0825
        51                         -0.1261345              -3.4323
        52                         -0.1106980              -3.0122
        53                         -0.1034539              -2.8151
        54                         -0.0999626              -2.7201
        55                         -0.0914182              -2.4876
        56                         -0.0845861              -2.3017
        57                         -0.0635819              -1.7302
        58                         -0.0625734              -1.7027
        59                         -0.0612782              -1.6675
       ...                                ...                  ...
       100                          0.7322543              19.9257
      -------------------------------------------------------------
                  HL-Gap            0.0460364 Eh            1.2527 eV

Wiberg/Mayer (AO) data.
largest (>0.10) Wiberg bond orders for each atom

     #   Z sym  total        # sym  WBO       # sym  WBO       # sym  WBO
 ---------------------------------------------------------------------------
     1   6 C    3.891 --    19 H    0.987    18 H    0.980    20 H    0.980
                             2 O    0.916
     2   8 O    2.187 --     3 C    1.088     1 C    0.916     4 O    0.117
     3   6 C    3.817 --     4 O    1.598     2 O    1.088     5 C    1.027
     4   8 O    1.917 --     3 C    1.598     2 O    0.117
     5   6 C    3.970 --    17 N    1.407     6 C    1.321     3 C    1.027
     6   6 C    3.873 --     5 C    1.321     8 C    1.186     7 O    0.984
                            17 N    0.190
     7   8 O    1.954 --     6 C    0.984    21 H    0.830
     8   6 C    3.917 --     9 O    1.485     6 C    1.186    10 N    1.092
     9   8 O    1.787 --     8 C    1.485    10 N    0.107
    10   7 N    3.209 --     8 C    1.092    11 C    0.935    22 H    0.922
                             9 O    0.107
    11   6 C    3.941 --    17 N    1.002    12 C    0.970    13 C    0.952
                            10 N    0.935
    12   6 C    3.995 --    23 H    0.987    24 H    0.985    25 H    0.984
                            11 C    0.970
    13   6 C    3.961 --    15 C    1.003    14 C    0.993    16 N    0.978
                            11 C    0.952
    14   6 C    3.997 --    13 C    0.993    27 H    0.987    26 H    0.983
                            28 H    0.983
    15   6 C    3.997 --    13 C    1.003    29 H    0.986    30 H    0.985
                            31 H    0.982
    16   7 N    2.966 --    13 C    0.978    32 H    0.949    33 H    0.949
    17   7 N    2.923 --     5 C    1.407    11 C    1.002     6 C    0.190
    18   1 H    1.011 --     1 C    0.980
    19   1 H    1.014 --     1 C    0.987
    20   1 H    1.012 --     1 C    0.980
    21   1 H    0.893 --     7 O    0.830
    22   1 H    0.967 --    10 N    0.922
    23   1 H    1.008 --    12 C    0.987
    24   1 H    1.021 --    12 C    0.985
    25   1 H    1.014 --    12 C    0.984
    26   1 H    1.018 --    14 C    0.983
    27   1 H    1.008 --    14 C    0.987
    28   1 H    1.018 --    14 C    0.983
    29   1 H    1.005 --    15 C    0.986
    30   1 H    1.008 --    15 C    0.985
    31   1 H    1.027 --    15 C    0.982
    32   1 H    0.966 --    16 N    0.949
    33   1 H    0.965 --    16 N    0.949
 ---------------------------------------------------------------------------

           -------------------------------------------------
          | TOTAL ENERGY              -58.562581640943 Eh   |
          | GRADIENT NORM               0.000926360181 Eh/α |
          | HOMO-LUMO GAP               1.252714625599 eV   |
           -------------------------------------------------

 * finished run on 2023/06/20 at 15:00:33.198
