   * xtb version 6.5.1 (579679a) compiled by 'ehlert@majestix' on 2022-07-11
          program call               : /lustre/hpc/kemi/ree/PhD/git/ReactivityQM/dep/xtb-6.5.1/bin/xtb --gfn 1 /lustre/hpc/kemi/ree/PhD/git/ReactivityQM/calculations/R03/reac02prodE07/conf17/R03_reac02prodE07_conf17_gfn1.xyz --opt --vfukui --chrg -1 --uhf 0 --alpb DMSO

   ID    Z sym.   atoms
    1    6 C      1, 3, 5, 7-10, 12, 14, 15, 18, 19, 22, 23, 25
    2    8 O      2, 4, 13, 20, 24, 26
    3    7 N      6, 11, 16, 17, 21
    4    1 H      27-46

      * Solvation model:               ALPB
        Solvent                        DMSO
        Solvent mass                       7.8130E+01 g/mol
          :  Hamiltonian                  GFN1-xTB          :
 * total energy  :   -86.9905405 Eh     change       -0.1365663E-10 Eh
 * total energy  :   -87.0031783 Eh     change       -0.1263774E-01 Eh
 * total energy  :   -87.0087181 Eh     change       -0.5539846E-02 Eh
 * total energy  :   -87.0099895 Eh     change       -0.1271338E-02 Eh
 * total energy  :   -87.0108159 Eh     change       -0.8264747E-03 Eh
 * total energy  :   -87.0111566 Eh     change       -0.3406926E-03 Eh
 * total energy  :   -87.0114473 Eh     change       -0.2906125E-03 Eh
 * total energy  :   -87.0116808 Eh     change       -0.2335342E-03 Eh
 * total energy  :   -87.0118650 Eh     change       -0.1841691E-03 Eh
 * total energy  :   -87.0120184 Eh     change       -0.1534343E-03 Eh
 * total energy  :   -87.0143421 Eh     change       -0.1441965E-04 Eh
 * total energy  :   -87.0143586 Eh     change       -0.1650346E-04 Eh
 * total energy  :   -87.0143776 Eh     change       -0.1899751E-04 Eh
 * total energy  :   -87.0143978 Eh     change       -0.2018828E-04 Eh
 * total energy  :   -87.0144158 Eh     change       -0.1797316E-04 Eh
 * total energy  :   -87.0144287 Eh     change       -0.1296509E-04 Eh
 * total energy  :   -87.0144375 Eh     change       -0.8743744E-05 Eh
 * total energy  :   -87.0144459 Eh     change       -0.8407238E-05 Eh
 * total energy  :   -87.0144493 Eh     change       -0.3386610E-05 Eh
   *** GEOMETRY OPTIMIZATION CONVERGED AFTER 68 ITERATIONS ***

 final structure:
================
46
 xtb: 6.5.1 (579679a)
C           -4.57071838875716        3.60725423988604       -0.74582517493805
O           -4.34181055257559        2.28052273711407       -0.29122463946210
C           -3.05745219118246        1.83557174524533       -0.38507498802476
O           -2.17185551659031        2.55024964245604       -0.84146759521526
C           -2.86882558844601        0.47942720256695        0.10729671651458
N           -1.56973265380739        0.02555071444896        0.08106110913944
C           -1.22714076827009       -1.14188509715590        0.50938278811444
C            0.26569972877038       -1.48507240124812        0.41584654040450
C            0.90451808670141       -1.22398587417754        1.79459687837463
C            0.52925314705863       -2.91833091736195       -0.07735865823445
N            0.83842186941868       -0.57875272287724       -0.59649879225957
C            2.20859194380730       -0.22998396434308       -0.49028620713361
O            3.10384127965595       -1.26865010947686       -0.29682477884529
C            4.22040980697455       -1.35354499914195       -1.17448125387841
C            2.56191906681710        1.07604782715701       -0.72223395308336
N            1.69722898822188        2.09139263178571       -0.92709846063163
N            2.46573649742477        3.21225632589237       -1.11477896061992
C            3.70183860949779        2.86568910105519       -1.02334192319582
C            4.89782141626641        3.73585951289680       -1.15604953771338
O            3.86682947133195        1.52989849638126       -0.77570189383587
N           -2.15464137079152       -2.00704759133425        1.06503933050497
C           -1.85120244498573       -3.29795176119571        1.67166836800227
C           -3.52111571350484       -1.67620689066603        1.06522991185433
O           -4.37714839270617       -2.47183400586564        1.49237995475526
C           -3.85688340759231       -0.38472055052110        0.57373465173948
O           -5.18352612888393       -0.07465214622920        0.59418107889172
H           -4.31188745392064        3.70508071357999       -1.80529290841288
H           -5.63122683426454        3.81207592326041       -0.60553220866382
H           -3.97626261580223        4.32312363564184       -0.16845791538677
H            1.94040021108754       -1.55749039868428        1.79997440275403
H            0.36820235376526       -1.75677933767622        2.57638223694090
H            0.87176979285946       -0.15738359643397        2.01771201605382
H            0.54870671954508       -3.63612614823732        0.73779523553791
H           -0.22647521989212       -3.21523171312441       -0.80341789821847
H            1.50031821049419       -2.95081757621987       -0.56715678999087
H            0.28797641577168        0.28861501354651       -0.64052818147814
H            4.64847041369423       -2.34898237550325       -1.04384169703399
H            4.97933092979906       -0.60346919046455       -0.92552333433801
H            3.91747952632562       -1.22383392188118       -2.21998003558106
H            5.51061879543654        3.41747983184354       -2.00014062128989
H            5.51173134377663        3.68071654631451       -0.25664597735337
H            4.58158275273146        4.76498173606623       -1.31257922969381
H           -0.91781666023439       -3.25799400420701        2.22400730925654
H           -2.65726204411732       -3.53949808395934        2.36560640050736
H           -1.80359682401694       -4.07782857690048        0.91081439518546
H           -5.65211660686567       -0.84374062222725        0.96463729001090

          :  Hamiltonian                  GFN1-xTB          :
         :: total energy             -87.014449273247 Eh    ::
         :: gradient norm              0.000292473059 Eh/a0 ::
         :: HOMO-LUMO gap              0.054724018419 eV    ::
         :: SCC energy               -87.797749422927 Eh    ::
         :: -> Gsolv                  -0.116909322334 Eh    ::
         :: repulsion energy           0.812305527180 Eh    ::

    * Orbital Energies and Occupations

         #    Occupation            Energy/Eh            Energy/eV
      -------------------------------------------------------------
         1        2.0000           -0.8043151             -21.8865
       ...           ...                  ...                  ...
        59        2.0000           -0.4706677             -12.8075
        60        2.0000           -0.4492068             -12.2235
        61        2.0000           -0.4481485             -12.1947
        62        2.0000           -0.4445349             -12.0964
        63        2.0000           -0.4403159             -11.9816
        64        2.0000           -0.4291510             -11.6778
        65        2.0000           -0.4260978             -11.5947
        66        2.0000           -0.4205380             -11.4434
        67        2.0000           -0.4134746             -11.2512
        68        2.0000           -0.3969437             -10.8014
        69        2.0000           -0.3958325             -10.7712
        70        2.0000           -0.3928631             -10.6903
        71        1.4848           -0.2995575              -8.1514 (HOMO)
        72        0.5152           -0.2975465              -8.0967 (LUMO)
        73                         -0.2495541              -6.7907
        74                         -0.2063163              -5.6142
        75                         -0.2060137              -5.6059
        76                         -0.1596278              -4.3437
        77                         -0.1319762              -3.5913
        78                         -0.1263775              -3.4389
        79                         -0.1236322              -3.3642
        80                         -0.1234955              -3.3605
        81                         -0.1165678              -3.1720
        82                         -0.1119262              -3.0457
       ...                                ...                  ...
       144                          0.7059262              19.2092
      -------------------------------------------------------------
                  HL-Gap            0.0020111 Eh            0.0547 eV

Wiberg/Mayer (AO) data.
largest (>0.10) Wiberg bond orders for each atom

     #   Z sym  total        # sym  WBO       # sym  WBO       # sym  WBO
 ---------------------------------------------------------------------------
     1   6 C    3.896 --    28 H    0.987    27 H    0.980    29 H    0.980
                             2 O    0.924
     2   8 O    2.127 --     3 C    1.033     1 C    0.924     4 O    0.109
     3   6 C    3.761 --     4 O    1.566     5 C    1.096     2 O    1.033
     4   8 O    1.795 --     3 C    1.566     2 O    0.109
     5   6 C    3.830 --    25 C    1.346     6 N    1.157     3 C    1.096
     6   7 N    3.044 --     7 C    1.600     5 C    1.157
     7   6 C    3.898 --     6 N    1.600    21 N    1.132     8 C    0.973
     8   6 C    3.953 --    10 C    0.991     9 C    0.977     7 C    0.973
                            11 N    0.953
     9   6 C    3.989 --    32 H    0.985    30 H    0.981    31 H    0.980
                             8 C    0.977
    10   6 C    3.992 --     8 C    0.991    34 H    0.986    33 H    0.983
                            35 H    0.978
    11   7 N    3.036 --    12 C    1.031     8 C    0.953    36 H    0.903
    12   6 C    3.575 --    15 C    1.409    11 N    1.031    13 O    0.967
    13   8 O    2.040 --    12 C    0.967    14 C    0.925
    14   6 C    3.902 --    37 H    0.985    39 H    0.983    38 H    0.981
                            13 O    0.925
    15   6 C    3.845 --    12 C    1.409    16 N    1.306    20 O    0.969
    16   7 N    2.696 --    15 C    1.306    17 N    1.171
    17   7 N    2.983 --    18 C    1.653    16 N    1.171
    18   6 C    3.817 --    17 N    1.653    19 C    1.023    20 O    1.011
    19   6 C    3.994 --    18 C    1.023    42 H    0.986    41 H    0.973
                            40 H    0.972
    20   8 O    2.183 --    18 C    1.011    15 C    0.969
    21   7 N    3.371 --     7 C    1.132    23 C    1.061    22 C    0.943
                            24 O    0.106
    22   6 C    3.939 --    45 H    0.978    43 H    0.978    44 H    0.973
                            21 N    0.943
    23   6 C    3.843 --    24 O    1.470    25 C    1.185    21 N    1.061
    24   8 O    1.787 --    23 C    1.470    21 N    0.106
    25   6 C    3.763 --     5 C    1.346    23 C    1.185    26 O    1.047
    26   8 O    1.998 --    25 C    1.047    46 H    0.826
    27   1 H    1.012 --     1 C    0.980
    28   1 H    1.015 --     1 C    0.987
    29   1 H    1.012 --     1 C    0.980
    30   1 H    1.010 --     9 C    0.981
    31   1 H    1.006 --     9 C    0.980
    32   1 H    1.006 --     9 C    0.985
    33   1 H    1.006 --    10 C    0.983
    34   1 H    1.006 --    10 C    0.986
    35   1 H    1.018 --    10 C    0.978
    36   1 H    1.000 --    11 N    0.903
    37   1 H    1.016 --    14 C    0.985
    38   1 H    1.023 --    14 C    0.981
    39   1 H    1.010 --    14 C    0.983
    40   1 H    1.002 --    19 C    0.972
    41   1 H    1.002 --    19 C    0.973
    42   1 H    1.005 --    19 C    0.986
    43   1 H    1.010 --    22 C    0.978
    44   1 H    1.013 --    22 C    0.973
    45   1 H    1.003 --    22 C    0.978
    46   1 H    0.871 --    26 O    0.826
 ---------------------------------------------------------------------------

           -------------------------------------------------
          | TOTAL ENERGY              -87.014449273247 Eh   |
          | GRADIENT NORM               0.000292473059 Eh/α |
          | HOMO-LUMO GAP               0.054724018419 eV   |
           -------------------------------------------------

 * finished run on 2023/06/20 at 15:22:43.759
