   * xtb version 6.5.1 (579679a) compiled by 'ehlert@majestix' on 2022-07-11
          program call               : /lustre/hpc/kemi/ree/PhD/git/ReactivityQM/dep/xtb-6.5.1/bin/xtb --gfn 1 /lustre/hpc/kemi/ree/PhD/git/ReactivityQM/calculations/R03/reac02prodE13/conf18/R03_reac02prodE13_conf18_gfn1.xyz --opt --vfukui --chrg -1 --uhf 0 --alpb DMSO

   ID    Z sym.   atoms
    1    6 C      1, 3, 5, 6, 8, 10, 12-16, 18, 20, 23, 24
    2    8 O      2, 4, 7, 9, 19, 25
    3    7 N      11, 17, 21, 22, 26
    4    1 H      27-46

      * Solvation model:               ALPB
        Solvent                        DMSO
        Solvent mass                       7.8130E+01 g/mol
          :  Hamiltonian                  GFN1-xTB          :
 * total energy  :   -87.0041736 Eh     change       -0.2700062E-12 Eh
 * total energy  :   -87.0197866 Eh     change       -0.1561304E-01 Eh
 * total energy  :   -87.0256268 Eh     change       -0.5840194E-02 Eh
 * total energy  :   -87.0267637 Eh     change       -0.1136862E-02 Eh
 * total energy  :   -87.0273636 Eh     change       -0.5999497E-03 Eh
 * total energy  :   -87.0275467 Eh     change       -0.1830638E-03 Eh
 * total energy  :   -87.0276642 Eh     change       -0.1175409E-03 Eh
 * total energy  :   -87.0277606 Eh     change       -0.9638865E-04 Eh
 * total energy  :   -87.0278537 Eh     change       -0.9307458E-04 Eh
 * total energy  :   -87.0279432 Eh     change       -0.8950316E-04 Eh
 * total energy  :   -87.0335778 Eh     change       -0.1153153E-04 Eh
 * total energy  :   -87.0335879 Eh     change       -0.1010038E-04 Eh
 * total energy  :   -87.0335970 Eh     change       -0.9089919E-05 Eh
 * total energy  :   -87.0336057 Eh     change       -0.8703133E-05 Eh
 * total energy  :   -87.0336146 Eh     change       -0.8913117E-05 Eh
 * total energy  :   -87.0336243 Eh     change       -0.9682875E-05 Eh
 * total energy  :   -87.0336335 Eh     change       -0.9195968E-05 Eh
 * total energy  :   -87.0336406 Eh     change       -0.7086348E-05 Eh
 * total energy  :   -87.0336456 Eh     change       -0.4989625E-05 Eh
   *** GEOMETRY OPTIMIZATION CONVERGED AFTER 86 ITERATIONS ***

 final structure:
================
46
 xtb: 6.5.1 (579679a)
C           -4.96402232031848        2.11301881435701        3.24411212672237
O           -3.83237750938543        1.52389890472226        2.63032024953177
C           -4.02594714985483        1.10109317149863        1.31966062779280
O           -5.16295695855826        1.23173535792005        0.79837551783533
C           -2.91070270434629        0.53604438219101        0.70273132302809
C           -2.94026654751920        0.13844295046666       -0.69934577708606
O           -4.07317296324826        0.39602467257192       -1.42698235614637
C           -1.83895949580144       -0.38121606399027       -1.26962323571806
O           -1.68014530023003       -0.67749012532645       -2.62404377735399
C           -2.63195884917563       -1.56103146641201       -3.19741627294330
N           -0.64504215231500       -0.67348129428269       -0.49935344618845
C           -0.45827206719274       -2.13621772233308       -0.36647038160437
C           -0.65347713714735        0.00103778947752        0.77893174849517
C            0.69292356048694        0.16074854408771        1.47591183545894
C            0.86734050100947       -0.89295605171849        2.58161075343455
C            0.77425860465481        1.56821735041340        2.08901541316504
N            1.73850290939113        0.01726441771460        0.45991629196500
C            3.05298225404661        0.11280179261958        0.69222290981332
O            3.58484064018839        0.26952073004720        1.78223878983898
C            3.82562632387212        0.01449447898850       -0.57978640230861
N            3.32497323774873       -0.08762630900522       -1.77390954961667
N            4.37806038511818       -0.11785075856270       -2.64164438058912
C            5.45230823455199       -0.03052400863811       -1.92037743155283
C            6.85563114120890       -0.01613335820236       -2.38941608446078
O            5.17160150149568        0.05710086343645       -0.61090003404977
N           -1.67448001098324        0.52784682487756        1.33122845528174
H           -5.29426038490881        3.00315906405539        2.69484202770227
H           -5.80046125223296        1.40597749586304        3.29667695113254
H           -4.66951936629142        2.40053214339943        4.25458998140406
H           -4.74939727953580        0.73824737080481       -0.77581483565992
H           -2.27260292687091       -1.80944216889837       -4.19845827299034
H           -2.72435917476562       -2.48445243176067       -2.61218492145156
H           -3.62103714450081       -1.09349923563383       -3.27790822468675
H            0.50556982474153       -2.33855555834420        0.09734334164665
H           -1.25679369070408       -2.58907101535561        0.23063508730094
H           -0.46100275043972       -2.56973245207320       -1.36575171952566
H            0.94441440794039       -1.89071091804297        2.15450770663032
H            0.00110287551843       -0.85817843908244        3.24121768273259
H            1.76563096777016       -0.69263701205211        3.16390722452069
H            0.71095847734106        2.32106492299186        1.30394465213823
H           -0.06145616569729        1.70445396934248        2.77458161522258
H            1.70818642789956        1.69722134495108        2.63330021248960
H            1.42041655314150       -0.10317850291280       -0.49764303234332
H            6.87907093175262       -0.09100624198655       -3.47363886370933
H            7.40401279955476       -0.85140064001514       -1.95488013011635
H            7.34425874261360        0.90644341782308       -2.07681139517113

          :  Hamiltonian                  GFN1-xTB          :
         :: total energy             -87.033645592191 Eh    ::
         :: gradient norm              0.000250949825 Eh/a0 ::
         :: HOMO-LUMO gap              0.309264697049 eV    ::
         :: SCC energy               -87.823375232133 Eh    ::
         :: -> Gsolv                  -0.106527387060 Eh    ::
         :: repulsion energy           0.818380956286 Eh    ::

    * Orbital Energies and Occupations

         #    Occupation            Energy/Eh            Energy/eV
      -------------------------------------------------------------
         1        2.0000           -0.8574469             -23.3323
       ...           ...                  ...                  ...
        59        2.0000           -0.4686166             -12.7517
        60        2.0000           -0.4575363             -12.4502
        61        2.0000           -0.4537736             -12.3478
        62        2.0000           -0.4517296             -12.2922
        63        2.0000           -0.4446338             -12.0991
        64        2.0000           -0.4425484             -12.0424
        65        2.0000           -0.4407336             -11.9930
        66        2.0000           -0.4312085             -11.7338
        67        2.0000           -0.4097061             -11.1487
        68        2.0000           -0.4054950             -11.0341
        69        2.0000           -0.3818077             -10.3895
        70        2.0000           -0.3794993             -10.3267
        71        1.9950           -0.3111249              -8.4661 (HOMO)
        72        0.0050           -0.2997596              -8.1569 (LUMO)
        73                         -0.2517929              -6.8516
        74                         -0.2294537              -6.2438
        75                         -0.1946841              -5.2976
        76                         -0.1881000              -5.1185
        77                         -0.1411168              -3.8400
        78                         -0.1227469              -3.3401
        79                         -0.1125713              -3.0632
        80                         -0.1122373              -3.0541
        81                         -0.1061705              -2.8890
        82                         -0.1055425              -2.8720
       ...                                ...                  ...
       144                          0.7294637              19.8497
      -------------------------------------------------------------
                  HL-Gap            0.0113653 Eh            0.3093 eV

Wiberg/Mayer (AO) data.
largest (>0.10) Wiberg bond orders for each atom

     #   Z sym  total        # sym  WBO       # sym  WBO       # sym  WBO
 ---------------------------------------------------------------------------
     1   6 C    3.912 --    29 H    0.987    27 H    0.981    28 H    0.981
                             2 O    0.941
     2   8 O    2.087 --     3 C    0.967     1 C    0.941
     3   6 C    3.869 --     4 O    1.401     5 C    1.339     2 O    0.967
     4   8 O    1.816 --     3 C    1.401     5 C    0.106
     5   6 C    3.864 --     3 C    1.339    26 N    1.118     6 C    1.083
                             4 O    0.106
     6   6 C    3.912 --     8 C    1.652     5 C    1.083     7 O    1.028
     7   8 O    1.986 --     6 C    1.028    30 H    0.773
     8   6 C    3.831 --     6 C    1.652    11 N    0.956     9 O    0.949
     9   8 O    2.029 --     8 C    0.949    10 C    0.936
    10   6 C    3.915 --    31 H    0.986    32 H    0.982    33 H    0.980
                             9 O    0.936
    11   7 N    3.116 --    13 C    0.974     8 C    0.956    12 C    0.945
    12   6 C    3.969 --    36 H    0.985    35 H    0.985    34 H    0.983
                            11 N    0.945
    13   6 C    3.942 --    26 N    1.722    11 N    0.974    14 C    0.974
    14   6 C    3.925 --    16 C    0.986    15 C    0.982    13 C    0.974
                            17 N    0.916
    15   6 C    3.991 --    38 H    0.986    14 C    0.982    39 H    0.982
                            37 H    0.982
    16   6 C    3.994 --    40 H    0.987    14 C    0.986    42 H    0.984
                            41 H    0.983
    17   7 N    3.380 --    18 C    1.292    14 C    0.916    43 H    0.885
                            19 O    0.185
    18   6 C    3.922 --    19 O    1.567    17 N    1.292    20 C    0.981
    19   8 O    1.886 --    18 C    1.567    17 N    0.185
    20   6 C    3.867 --    21 N    1.616    25 O    1.061    18 C    0.981
    21   7 N    3.009 --    20 C    1.616    22 N    1.192
    22   7 N    2.980 --    23 C    1.614    21 N    1.192
    23   6 C    3.873 --    22 N    1.614    25 O    1.080    24 C    1.030
    24   6 C    3.988 --    23 C    1.030    44 H    0.983    46 H    0.965
                            45 H    0.964
    25   8 O    2.324 --    23 C    1.080    20 C    1.061
    26   7 N    3.054 --    13 C    1.722     5 C    1.118
    27   1 H    1.017 --     1 C    0.981
    28   1 H    1.018 --     1 C    0.981
    29   1 H    1.019 --     1 C    0.987
    30   1 H    0.886 --     7 O    0.773
    31   1 H    1.019 --    10 C    0.986
    32   1 H    1.014 --    10 C    0.982
    33   1 H    1.027 --    10 C    0.980
    34   1 H    1.018 --    12 C    0.983
    35   1 H    1.011 --    12 C    0.985
    36   1 H    1.017 --    12 C    0.985
    37   1 H    1.010 --    15 C    0.982
    38   1 H    1.009 --    15 C    0.986
    39   1 H    1.012 --    15 C    0.982
    40   1 H    1.009 --    16 C    0.987
    41   1 H    1.021 --    16 C    0.983
    42   1 H    1.011 --    16 C    0.984
    43   1 H    0.977 --    17 N    0.885
    44   1 H    0.999 --    24 C    0.983
    45   1 H    0.997 --    24 C    0.964
    46   1 H    0.997 --    24 C    0.965
 ---------------------------------------------------------------------------

           -------------------------------------------------
          | TOTAL ENERGY              -87.033645592191 Eh   |
          | GRADIENT NORM               0.000250949825 Eh/α |
          | HOMO-LUMO GAP               0.309264697049 eV   |
           -------------------------------------------------

 * finished run on 2023/06/20 at 15:34:42.107
