   * xtb version 6.5.1 (579679a) compiled by 'ehlert@majestix' on 2022-07-11
          program call               : /lustre/hpc/kemi/ree/PhD/git/ReactivityQM/dep/xtb-6.5.1/bin/xtb --gfn 1 /lustre/hpc/kemi/ree/PhD/git/ReactivityQM/calculations/R02methylcation/reac01prodN03/conf14/R02methylcation_reac01prodN03_conf14_gfn1.xyz --opt --vfukui --chrg 0 --uhf 0 --alpb DMSO

   ID    Z sym.   atoms
    1    6 C      1, 3, 5, 6, 8-11, 13, 15, 18, 19, 22, 24
    2    8 O      2, 4, 14, 20, 23, 25
    3    7 N      7, 12, 16, 17, 21
    4    1 H      26-42

      * Solvation model:               ALPB
        Solvent                        DMSO
        Solvent mass                       7.8130E+01 g/mol
          :  Hamiltonian                  GFN1-xTB          :
 * total energy  :   -82.9864800 Eh     change       -0.6295409E-11 Eh
 * total energy  :   -82.9978019 Eh     change       -0.1132183E-01 Eh
 * total energy  :   -83.0019359 Eh     change       -0.4134076E-02 Eh
 * total energy  :   -83.0026695 Eh     change       -0.7335271E-03 Eh
 * total energy  :   -83.0031670 Eh     change       -0.4975624E-03 Eh
 * total energy  :   -83.0034705 Eh     change       -0.3034693E-03 Eh
 * total energy  :   -83.0037819 Eh     change       -0.3113551E-03 Eh
 * total energy  :   -83.0040757 Eh     change       -0.2937961E-03 Eh
 * total energy  :   -83.0043111 Eh     change       -0.2354333E-03 Eh
 * total energy  :   -83.0045111 Eh     change       -0.2000566E-03 Eh
 * total energy  :   -83.0048414 Eh     change       -0.2979051E-04 Eh
 * total energy  :   -83.0048579 Eh     change       -0.1644581E-04 Eh
 * total energy  :   -83.0048824 Eh     change       -0.2448889E-04 Eh
 * total energy  :   -83.0048936 Eh     change       -0.1117250E-04 Eh
 * total energy  :   -83.0049008 Eh     change       -0.7195154E-05 Eh
 * total energy  :   -83.0049123 Eh     change       -0.1152783E-04 Eh
 * total energy  :   -83.0049170 Eh     change       -0.4768224E-05 Eh
 * total energy  :   -83.0049270 Eh     change       -0.9902238E-05 Eh
 * total energy  :   -83.0049297 Eh     change       -0.2781560E-05 Eh
   *** GEOMETRY OPTIMIZATION CONVERGED AFTER 22 ITERATIONS ***

 final structure:
================
42
 xtb: 6.5.1 (579679a)
C           -3.99077380458459        0.59638943483246        2.90632275907220
O           -3.40415324944448        0.99383078576450        1.65579532994325
C           -2.67954024279943        0.09964095263014        1.02101353975846
O           -2.47996828881647       -1.02704581173067        1.38927194041918
C           -2.11178638058639        0.65698030829109       -0.31908635472040
C           -2.04133808373521        2.18242897158958       -0.31933676919219
N           -0.78468699111208        0.09741585781165       -0.43181187127794
C           -0.60833708995674       -1.05205643445888       -0.93727546468277
C            0.76462297297327       -1.69397518648844       -0.90825258536133
C            1.22600082722348       -2.05535608213620       -2.32624903394925
C            0.70879058845726       -2.93034042222429        0.00230516265352
N            1.67119399465123       -0.70203247616308       -0.33700314398529
C            2.98073778626720       -0.91918387877803       -0.12206547008722
O            3.57795229950262       -1.95614668585708       -0.36679203267949
C            3.67110664724119        0.26114133123073        0.45951415678044
N            4.92086006401426        0.35639190168506        0.79157684656251
N            5.10719138309342        1.62017021257493        1.26668829379044
C            3.95998785743695        2.21927661465151        1.19405769524611
C            3.64121389745442        3.60975015628759        1.58436666891752
O            3.00718063133485        1.41491509692254        0.69287053992046
N           -1.62115145058737       -1.80070318107924       -1.52202587921522
C           -2.85783509518759       -1.30975618294393       -1.81722133000634
O           -3.69447801993822       -1.95827032353889       -2.40219701422118
C           -3.08525681739694        0.13697145958616       -1.36117389904841
O           -4.00821624945669        0.78707542377490       -1.77468748315001
H           -3.22276337774536        0.17473638529063        3.55694972608823
H           -4.77000805979239       -0.14665715652004        2.72700142680202
H           -4.41386907025850        1.49642899051406        3.34566858432677
H           -1.55669728274545        2.51796854088808       -1.23395678617342
H           -1.46469073626542        2.52266287593042        0.53684361649344
H           -3.04488401200266        2.60081328835563       -0.27069508063094
H            0.53641675226856       -2.76570487512577       -2.77677546169521
H            2.21537398232485       -2.50783707506957       -2.28494402456688
H            1.26738767632207       -1.15876808925717       -2.94244773330534
H            0.02278589975862       -3.66592053469626       -0.41184416002731
H            0.36541172044575       -2.64160533202325        0.99475220749000
H            1.69817535841929       -3.37724469213052        0.07847939970002
H            1.26178578354812        0.19165807880185       -0.09660474525940
H            4.53639126015754        4.09717812029145        1.96295093435368
H            2.86963456985709        3.61409537318601        2.35365737691902
H            3.26187689928476        4.16003773647820        0.72370690657331
H           -1.43164354961933       -2.73935447713465       -1.83978278857387

          :  Hamiltonian                  GFN1-xTB          :
         :: total energy             -83.004929731817 Eh    ::
         :: gradient norm              0.000295319437 Eh/a0 ::
         :: HOMO-LUMO gap              2.414862620543 eV    ::
         :: SCC energy               -83.792845042116 Eh    ::
         :: -> Gsolv                  -0.054327812734 Eh    ::
         :: repulsion energy           0.814662929901 Eh    ::

    * Orbital Energies and Occupations

         #    Occupation            Energy/Eh            Energy/eV
      -------------------------------------------------------------
         1        2.0000           -0.8651833             -23.5428
       ...           ...                  ...                  ...
        55        2.0000           -0.5116014             -13.9214
        56        2.0000           -0.5052925             -13.7497
        57        2.0000           -0.5043266             -13.7234
        58        2.0000           -0.5027199             -13.6797
        59        2.0000           -0.4925173             -13.4021
        60        2.0000           -0.4798045             -13.0561
        61        2.0000           -0.4711643             -12.8210
        62        2.0000           -0.4636304             -12.6160
        63        2.0000           -0.4620879             -12.5741
        64        2.0000           -0.4588007             -12.4846
        65        2.0000           -0.4513627             -12.2822
        66        2.0000           -0.4473859             -12.1740
        67        2.0000           -0.4420882             -12.0298 (HOMO)
        68                         -0.3533436              -9.6150 (LUMO)
        69                         -0.3095794              -8.4241
        70                         -0.2983222              -8.1178
        71                         -0.2703013              -7.3553
        72                         -0.2567591              -6.9868
        73                         -0.2260625              -6.1515
        74                         -0.1974190              -5.3720
        75                         -0.1465288              -3.9873
        76                         -0.1430271              -3.8920
        77                         -0.1419642              -3.8630
        78                         -0.1252481              -3.4082
       ...                                ...                  ...
       134                          0.7597738              20.6745
      -------------------------------------------------------------
                  HL-Gap            0.0887446 Eh            2.4149 eV

Wiberg/Mayer (AO) data.
largest (>0.10) Wiberg bond orders for each atom

     #   Z sym  total        # sym  WBO       # sym  WBO       # sym  WBO
 ---------------------------------------------------------------------------
     1   6 C    3.852 --    28 H    0.985    26 H    0.980    27 H    0.979
                             2 O    0.873
     2   8 O    2.233 --     3 C    1.160     1 C    0.873     4 O    0.140
     3   6 C    3.845 --     4 O    1.695     2 O    1.160     5 C    0.862
     4   8 O    1.965 --     3 C    1.695     2 O    0.140
     5   6 C    3.962 --     6 C    0.985     7 N    0.977    24 C    0.949
                             3 C    0.862
     6   6 C    3.984 --     5 C    0.985    30 H    0.985    29 H    0.983
                            31 H    0.982
     7   7 N    3.047 --     8 C    1.751     5 C    0.977
     8   6 C    3.926 --     7 N    1.751    21 N    1.070     9 C    0.980
     9   6 C    3.939 --    10 C    0.981     8 C    0.980    11 C    0.975
                            12 N    0.937
    10   6 C    3.987 --    34 H    0.985    32 H    0.983     9 C    0.981
                            33 H    0.978
    11   6 C    3.987 --    36 H    0.984    35 H    0.983    37 H    0.977
                             9 C    0.975
    12   7 N    3.360 --    13 C    1.269     9 C    0.937    38 H    0.876
                            14 O    0.179
    13   6 C    3.919 --    14 O    1.577    12 N    1.269    15 C    0.991
    14   8 O    1.897 --    13 C    1.577    12 N    0.179
    15   6 C    3.872 --    16 N    1.624    20 O    1.047    13 C    0.991
    16   7 N    2.999 --    15 C    1.624    17 N    1.197
    17   7 N    2.982 --    18 C    1.613    16 N    1.197
    18   6 C    3.869 --    17 N    1.613    20 O    1.072    19 C    1.031
    19   6 C    3.987 --    18 C    1.031    39 H    0.982    40 H    0.963
                            41 H    0.963
    20   8 O    2.315 --    18 C    1.072    15 C    1.047
    21   7 N    3.429 --    22 C    1.185     8 C    1.070    42 H    0.881
                            23 O    0.149
    22   6 C    3.892 --    23 O    1.676    21 N    1.185    24 C    0.906
    23   8 O    1.960 --    22 C    1.676    21 N    0.149
    24   6 C    3.848 --    25 O    1.814     5 C    0.949    22 C    0.906
    25   8 O    2.028 --    24 C    1.814
    26   1 H    1.004 --     1 C    0.980
    27   1 H    1.003 --     1 C    0.979
    28   1 H    1.007 --     1 C    0.985
    29   1 H    1.000 --     6 C    0.983
    30   1 H    1.003 --     6 C    0.985
    31   1 H    1.007 --     6 C    0.982
    32   1 H    0.999 --    10 C    0.983
    33   1 H    1.007 --    10 C    0.978
    34   1 H    1.001 --    10 C    0.985
    35   1 H    0.999 --    11 C    0.983
    36   1 H    1.002 --    11 C    0.984
    37   1 H    1.007 --    11 C    0.977
    38   1 H    0.955 --    12 N    0.876
    39   1 H    0.998 --    19 C    0.982
    40   1 H    0.997 --    19 C    0.963
    41   1 H    0.997 --    19 C    0.963
    42   1 H    0.928 --    21 N    0.881
 ---------------------------------------------------------------------------

           -------------------------------------------------
          | TOTAL ENERGY              -83.004929731817 Eh   |
          | GRADIENT NORM               0.000295319437 Eh/α |
          | HOMO-LUMO GAP               2.414862620543 eV   |
           -------------------------------------------------

 * finished run on 2023/06/21 at 17:32:32.510
