   * xtb version 6.5.1 (579679a) compiled by 'ehlert@majestix' on 2022-07-11
          program call               : /lustre/hpc/kemi/ree/PhD/git/ReactivityQM/dep/xtb-6.5.1/bin/xtb --gfn 1 /lustre/hpc/kemi/ree/PhD/git/ReactivityQM/calculations/R01/reac02prodE03/conf15/R01_reac02prodE03_conf15_gfn1.xyz --opt --vfukui --chrg -1 --uhf 0 --alpb DMSO

   ID    Z sym.   atoms
    1    6 C      1, 3, 5, 6, 8-11, 14, 16
    2    8 O      2, 4, 15, 17
    3    7 N      7, 12, 13
    4    1 H      18-33

      * Solvation model:               ALPB
        Solvent                        DMSO
        Solvent mass                       7.8130E+01 g/mol
          :  Hamiltonian                  GFN1-xTB          :
 * total energy  :   -58.5338081 Eh     change       -0.3524292E-11 Eh
 * total energy  :   -58.5477609 Eh     change       -0.1395284E-01 Eh
 * total energy  :   -58.5514930 Eh     change       -0.3732071E-02 Eh
 * total energy  :   -58.5521173 Eh     change       -0.6242702E-03 Eh
 * total energy  :   -58.5525393 Eh     change       -0.4219953E-03 Eh
 * total energy  :   -58.5526756 Eh     change       -0.1363271E-03 Eh
 * total energy  :   -58.5527761 Eh     change       -0.1005189E-03 Eh
 * total energy  :   -58.5528333 Eh     change       -0.5721658E-04 Eh
 * total energy  :   -58.5528802 Eh     change       -0.4690124E-04 Eh
 * total energy  :   -58.5529266 Eh     change       -0.4634833E-04 Eh
 * total energy  :   -58.5548656 Eh     change        0.6902826E-05 Eh
 * total energy  :   -58.5548921 Eh     change       -0.2646652E-04 Eh
 * total energy  :   -58.5549074 Eh     change       -0.1530859E-04 Eh
 * total energy  :   -58.5549292 Eh     change       -0.2178446E-04 Eh
 * total energy  :   -58.5549400 Eh     change       -0.1079236E-04 Eh
 * total energy  :   -58.5549504 Eh     change       -0.1037909E-04 Eh
 * total energy  :   -58.5549579 Eh     change       -0.7561026E-05 Eh
 * total energy  :   -58.5549705 Eh     change       -0.1257445E-04 Eh
 * total energy  :   -58.5549749 Eh     change       -0.4417106E-05 Eh
   *** GEOMETRY OPTIMIZATION CONVERGED AFTER 44 ITERATIONS ***

 final structure:
================
33
 xtb: 6.5.1 (579679a)
C            2.61204789162552        1.37731188702803        2.07732181656313
O            1.73937726787756        0.76935356595387        1.12972804930684
C            2.33291234505459        0.09892176105444        0.12023069369462
O            3.54637609009191        0.03042056165430        0.02514290392863
C            1.34606768193984       -0.66865326366680       -0.76726814292678
C            1.97315375312523       -0.88751285658158       -2.15077672861559
N            0.10221120658421        0.08368781737145       -0.92304210580862
C           -0.86234031761892       -0.15408498011973       -0.11419604275095
C           -2.12439632010359        0.69357743557224       -0.19816693898167
C           -2.03173860295236        1.78202605600740        0.87957310371425
C           -2.25299667925603        1.32666053571992       -1.58919201530323
N           -3.27744251266542       -0.15591452620592        0.10531194157263
N           -0.83807394875077       -1.06685831625963        0.89179670543797
C            0.09679317283986       -2.17647418313153        0.83131897116745
O           -0.17365409727079       -3.20773495664473        1.51305266634068
C            1.14274560671559       -1.95603846312202       -0.01026042802794
O            2.13615214477045       -2.95331714664077       -0.20446524230252
H            3.30123196752392        0.63931957350254        2.49903698502338
H            1.98764577518286        1.79597595007040        2.86482655492531
H            3.19297630042267        2.17405044966833        1.60370929314680
H            2.94199415271249       -1.37597142009339       -2.05100139536825
H            2.10550845192931        0.07014977280252       -2.65378400667584
H            1.31767566741858       -1.51400283948424       -2.75412001192761
H           -1.97989420979050        1.32331959817292        1.86711607631535
H           -1.13904991382677        2.38812054793935        0.72375572683148
H           -2.90737873983166        2.42860424438537        0.83916840640324
H           -1.38566280338828        1.95561824911941       -1.79213541319763
H           -3.15533524987977        1.93307182241331       -1.64440473485957
H           -2.30329115770288        0.54948683433295       -2.35125018776892
H           -3.49522765020167       -0.73350220519395       -0.69641711939987
H           -4.08344942287772        0.42572107570557        0.28040610730722
H           -1.72780275000641       -1.28115955055537        1.32186832568782
H            1.86286490030953       -3.71417203077812        0.32711918654906

          :  Hamiltonian                  GFN1-xTB          :
         :: total energy             -58.554974924397 Eh    ::
         :: gradient norm              0.000405795310 Eh/a0 ::
         :: HOMO-LUMO gap              1.974511009223 eV    ::
         :: SCC energy               -59.097888460181 Eh    ::
         :: -> Gsolv                  -0.112355870854 Eh    ::
         :: repulsion energy           0.562710642706 Eh    ::

    * Orbital Energies and Occupations

         #    Occupation            Energy/Eh            Energy/eV
      -------------------------------------------------------------
         1        2.0000           -0.8094320             -22.0258
       ...           ...                  ...                  ...
        36        2.0000           -0.4843669             -13.1803
        37        2.0000           -0.4775916             -12.9959
        38        2.0000           -0.4752378             -12.9319
        39        2.0000           -0.4692981             -12.7703
        40        2.0000           -0.4623029             -12.5799
        41        2.0000           -0.4521940             -12.3048
        42        2.0000           -0.4499657             -12.2442
        43        2.0000           -0.4321340             -11.7590
        44        2.0000           -0.4005623             -10.8999
        45        2.0000           -0.3878477             -10.5539
        46        2.0000           -0.3819728             -10.3940
        47        2.0000           -0.3708194             -10.0905
        48        2.0000           -0.3060723              -8.3287 (HOMO)
        49                         -0.2335103              -6.3541 (LUMO)
        50                         -0.2103594              -5.7242
        51                         -0.1288112              -3.5051
        52                         -0.1253892              -3.4120
        53                         -0.1107046              -3.0124
        54                         -0.1067461              -2.9047
        55                         -0.0960121              -2.6126
        56                         -0.0866627              -2.3582
        57                         -0.0677584              -1.8438
        58                         -0.0651916              -1.7740
        59                         -0.0615848              -1.6758
       ...                                ...                  ...
       100                          0.7042903              19.1647
      -------------------------------------------------------------
                  HL-Gap            0.0725619 Eh            1.9745 eV

Wiberg/Mayer (AO) data.
largest (>0.10) Wiberg bond orders for each atom

     #   Z sym  total        # sym  WBO       # sym  WBO       # sym  WBO
 ---------------------------------------------------------------------------
     1   6 C    3.893 --    19 H    0.987    20 H    0.981    18 H    0.981
                             2 O    0.915
     2   8 O    2.170 --     3 C    1.072     1 C    0.915     4 O    0.115
     3   6 C    3.810 --     4 O    1.626     2 O    1.072     5 C    0.923
     4   8 O    1.895 --     3 C    1.626     2 O    0.115
     5   6 C    3.967 --     6 C    0.988     7 N    0.972    16 C    0.954
                             3 C    0.923
     6   6 C    3.997 --    22 H    0.988     5 C    0.988    23 H    0.987
                            21 H    0.985
     7   7 N    2.965 --     8 C    1.670     5 C    0.972    13 N    0.159
     8   6 C    3.947 --     7 N    1.670    13 N    1.191     9 C    0.968
     9   6 C    3.965 --    11 C    0.992    10 C    0.987    12 N    0.979
                             8 C    0.968
    10   6 C    3.996 --     9 C    0.987    25 H    0.986    24 H    0.986
                            26 H    0.985
    11   6 C    3.996 --     9 C    0.992    28 H    0.987    29 H    0.985
                            27 H    0.983
    12   7 N    2.973 --     9 C    0.979    31 H    0.947    30 H    0.946
    13   7 N    3.312 --     8 C    1.191    14 C    0.915    32 H    0.906
                             7 N    0.159
    14   6 C    3.921 --    16 C    1.515    15 O    1.357    13 N    0.915
    15   8 O    1.698 --    14 C    1.357    16 C    0.169
    16   6 C    3.789 --    14 C    1.515     5 C    0.954    17 O    0.940
                            15 O    0.169
    17   8 O    1.912 --    16 C    0.940    33 H    0.860
    18   1 H    1.013 --     1 C    0.981
    19   1 H    1.015 --     1 C    0.987
    20   1 H    1.012 --     1 C    0.981
    21   1 H    1.017 --     6 C    0.985
    22   1 H    1.011 --     6 C    0.988
    23   1 H    1.012 --     6 C    0.987
    24   1 H    1.008 --    10 C    0.986
    25   1 H    1.008 --    10 C    0.986
    26   1 H    1.003 --    10 C    0.985
    27   1 H    1.018 --    11 C    0.983
    28   1 H    1.006 --    11 C    0.987
    29   1 H    1.010 --    11 C    0.985
    30   1 H    0.963 --    12 N    0.946
    31   1 H    0.962 --    12 N    0.947
    32   1 H    0.980 --    13 N    0.906
    33   1 H    0.893 --    17 O    0.860
 ---------------------------------------------------------------------------

           -------------------------------------------------
          | TOTAL ENERGY              -58.554974924397 Eh   |
          | GRADIENT NORM               0.000405795310 Eh/α |
          | HOMO-LUMO GAP               1.974511009223 eV   |
           -------------------------------------------------

 * finished run on 2023/06/20 at 14:58:59.380
