   * xtb version 6.5.1 (579679a) compiled by 'ehlert@majestix' on 2022-07-11
          program call               : /lustre/hpc/kemi/ree/PhD/git/ReactivityQM/dep/xtb-6.5.1/bin/xtb --gfn 1 /lustre/hpc/kemi/ree/PhD/git/ReactivityQM/calculations/R02/reac01prodN14/conf02/R02_reac01prodN14_conf02_gfn1.xyz --opt --vfukui --chrg 1 --uhf 0 --alpb DMSO

   ID    Z sym.   atoms
    1    6 C      1, 3, 5, 6, 8, 9, 12-15, 17, 19, 22, 23
    2    8 O      2, 4, 7, 10, 18, 24
    3    7 N      11, 16, 20, 21, 25
    4    1 H      26-43

      * Solvation model:               ALPB
        Solvent                        DMSO
        Solvent mass                       7.8130E+01 g/mol
          :  Hamiltonian                  GFN1-xTB          :
 * total energy  :   -83.0154212 Eh     change       -0.1776357E-11 Eh
 * total energy  :   -83.0349263 Eh     change       -0.1950507E-01 Eh
 * total energy  :   -83.0491521 Eh     change       -0.1422580E-01 Eh
 * total energy  :   -83.0527518 Eh     change       -0.3599716E-02 Eh
 * total energy  :   -83.0560701 Eh     change       -0.3318323E-02 Eh
 * total energy  :   -83.0581122 Eh     change       -0.2042064E-02 Eh
 * total energy  :   -83.0604282 Eh     change       -0.2316068E-02 Eh
 * total energy  :   -83.0627175 Eh     change       -0.2289251E-02 Eh
 * total energy  :   -83.0647294 Eh     change       -0.2011883E-02 Eh
 * total energy  :   -83.0664041 Eh     change       -0.1674689E-02 Eh
 * total energy  :   -83.1216671 Eh     change       -0.1147187E-04 Eh
 * total energy  :   -83.1216737 Eh     change       -0.6605007E-05 Eh
 * total energy  :   -83.1216824 Eh     change       -0.8684305E-05 Eh
 * total energy  :   -83.1216893 Eh     change       -0.6926599E-05 Eh
 * total energy  :   -83.1216968 Eh     change       -0.7480583E-05 Eh
 * total energy  :   -83.1217059 Eh     change       -0.9092563E-05 Eh
 * total energy  :   -83.1217099 Eh     change       -0.4026775E-05 Eh
 * total energy  :   -83.1217165 Eh     change       -0.6668331E-05 Eh
 * total energy  :   -83.1217215 Eh     change       -0.4991887E-05 Eh
   *** GEOMETRY OPTIMIZATION CONVERGED AFTER 60 ITERATIONS ***

 final structure:
================
43
 xtb: 6.5.1 (579679a)
C            5.43847849833246        2.31677977178336       -0.48618641148518
O            4.18761722713230        1.60386757953360       -0.50585056844597
C            4.24602457878719        0.30296488784988       -0.60407033801813
O            5.24980296897547       -0.36068610706932       -0.68670946269182
C            2.87272459149318       -0.34504704083982       -0.58969761717845
C            2.78005613549203       -1.80249249914030       -0.92895420132189
O            3.62576417582467       -2.23938371602661       -1.92851153900105
C            1.36157679891281       -2.22914691605174       -1.24213361121408
C            3.10108261994343       -2.52116782853333        0.42999794248194
O            1.00702420934549       -3.19056891343545       -1.84367084371170
N            0.38871640404716       -1.38546126849368       -0.61579877189061
C            0.63152249209463       -0.18475546466830       -0.13077414508533
C           -0.45417523473005        0.61573183118578        0.49877867965961
C           -0.25184195514110        2.12380324703840        0.30963879731345
C           -0.33459046921392        0.22802070000750        1.99386645996914
N           -1.73122836108959        0.19444869780979       -0.05703125451973
C           -2.92462449811354        0.58210225861939        0.50209175938491
O           -3.05527228221213        1.06646528523052        1.60360113543695
C           -4.03847788413854        0.29751370068501       -0.42495284047410
N           -3.92495792988067       -0.11956955700707       -1.65193171362460
N           -5.18516166041427       -0.22897846174111       -2.14610294125575
C           -5.99239940998919        0.12983113877673       -1.18987891522819
C           -7.47003487271000        0.17706809459546       -1.22290742321635
O           -5.32487974732126        0.47585067774770       -0.08093624169408
N            1.88107621128106        0.34153468502145       -0.12505052311279
H            5.98072895005240        2.12646200746907       -1.41403174570987
H            5.18601487514709        3.37022011223721       -0.39188427416767
H            6.03386438902057        1.97948512750241        0.36386011483423
H            4.55257494746689       -2.01673454190364       -1.73299358991151
H            2.40498200080628       -2.21534237391776        1.20635994623106
H            3.02425064227646       -3.59288118547007        0.25539853866299
H            4.11870564610573       -2.26662797443023        0.71848115471437
H           -0.56950085796174       -1.71496796463690       -0.67026746985944
H           -1.02333354755171        2.65535383897506        0.86408502114173
H           -0.32555857484754        2.37822225651967       -0.74581908672076
H            0.72857034009586        2.41246727469525        0.68257165999879
H           -0.61374694462347       -0.81441128393013        2.12735422012820
H           -0.99757277946716        0.86325674193140        2.57763293579170
H            0.68984669392248        0.37773668815680        2.32972630025703
H           -1.75637589575841        0.03948436967174       -1.05565110047955
H           -7.82416293812843       -0.10175312555852       -2.21251317344445
H           -7.87790273624687       -0.51011152480964       -0.48106832311057
H           -7.81520581701670        1.18141577462311       -0.97723553943282

          :  Hamiltonian                  GFN1-xTB          :
         :: total energy             -83.121721537003 Eh    ::
         :: gradient norm              0.000845233224 Eh/a0 ::
         :: HOMO-LUMO gap              0.856047669897 eV    ::
         :: SCC energy               -83.913097776844 Eh    ::
         :: -> Gsolv                  -0.111748732569 Eh    ::
         :: repulsion energy           0.817994973399 Eh    ::

    * Orbital Energies and Occupations

         #    Occupation            Energy/Eh            Energy/eV
      -------------------------------------------------------------
         1        2.0000           -0.9032202             -24.5779
       ...           ...                  ...                  ...
        55        2.0000           -0.5392387             -14.6734
        56        2.0000           -0.5360729             -14.5873
        57        2.0000           -0.5346519             -14.5486
        58        2.0000           -0.5279155             -14.3653
        59        2.0000           -0.5259545             -14.3120
        60        2.0000           -0.5177276             -14.0881
        61        2.0000           -0.5115678             -13.9205
        62        2.0000           -0.4968854             -13.5209
        63        2.0000           -0.4949868             -13.4693
        64        2.0000           -0.4867668             -13.2456
        65        2.0000           -0.4813304             -13.0977
        66        2.0000           -0.4651831             -12.6583
        67        2.0000           -0.4640299             -12.6269 (HOMO)
        68        0.0000           -0.4325708             -11.7708 (LUMO)
        69                         -0.3570792              -9.7166
        70                         -0.3303783              -8.9901
        71                         -0.3123584              -8.4997
        72                         -0.2686557              -7.3105
        73                         -0.2667813              -7.2595
        74                         -0.2174583              -5.9173
        75                         -0.1607318              -4.3737
        76                         -0.1586893              -4.3182
        77                         -0.1541555              -4.1948
        78                         -0.1463130              -3.9814
       ...                                ...                  ...
       136                          0.7184040              19.5488
      -------------------------------------------------------------
                  HL-Gap            0.0314592 Eh            0.8560 eV

Wiberg/Mayer (AO) data.
largest (>0.10) Wiberg bond orders for each atom

     #   Z sym  total        # sym  WBO       # sym  WBO       # sym  WBO
 ---------------------------------------------------------------------------
     1   6 C    3.835 --    27 H    0.984    28 H    0.975    26 H    0.974
                             2 O    0.865
     2   8 O    2.257 --     3 C    1.189     1 C    0.865     4 O    0.157
     3   6 C    3.865 --     4 O    1.665     2 O    1.189     5 C    0.943
     4   8 O    1.979 --     3 C    1.665     2 O    0.157
     5   6 C    3.901 --    25 N    1.626     6 C    1.002     3 C    0.943
     6   6 C    3.943 --     7 O    1.010     5 C    1.002     8 C    0.950
                             9 C    0.850
     7   8 O    1.928 --     6 C    1.010    29 H    0.809
     8   6 C    3.855 --    10 O    1.807    11 N    0.976     6 C    0.950
     9   6 C    3.959 --    30 H    0.985    32 H    0.974    31 H    0.968
                             6 C    0.850
    10   8 O    2.051 --     8 C    1.807
    11   7 N    3.521 --    12 C    1.416     8 C    0.976    33 H    0.853
    12   6 C    3.878 --    11 N    1.416    25 N    1.207    13 C    1.025
    13   6 C    3.933 --    12 C    1.025    14 C    0.967    16 N    0.949
                            15 C    0.912
    14   6 C    3.976 --    35 H    0.983    36 H    0.982    34 H    0.979
                            13 C    0.967
    15   6 C    3.965 --    37 H    0.984    39 H    0.982    38 H    0.958
                            13 C    0.912
    16   7 N    3.277 --    17 C    1.170    13 C    0.949    40 H    0.888
                            18 O    0.154
    17   6 C    3.905 --    18 O    1.643    16 N    1.170    19 C    1.003
    18   8 O    1.949 --    17 C    1.643    16 N    0.154
    19   6 C    3.881 --    20 N    1.595    24 O    1.067    17 C    1.003
    20   7 N    3.025 --    19 C    1.595    21 N    1.214
    21   7 N    2.982 --    22 C    1.589    20 N    1.214
    22   6 C    3.866 --    21 N    1.589    24 O    1.088    23 C    1.033
    23   6 C    3.984 --    22 C    1.033    41 H    0.982    43 H    0.962
                            42 H    0.960
    24   8 O    2.338 --    22 C    1.088    19 C    1.067
    25   7 N    3.053 --     5 C    1.626    12 C    1.207
    26   1 H    0.999 --     1 C    0.974
    27   1 H    1.005 --     1 C    0.984
    28   1 H    0.999 --     1 C    0.975
    29   1 H    0.848 --     7 O    0.809
    30   1 H    0.993 --     9 C    0.985
    31   1 H    0.992 --     9 C    0.968
    32   1 H    0.997 --     9 C    0.974
    33   1 H    0.904 --    11 N    0.853
    34   1 H    0.998 --    14 C    0.979
    35   1 H    0.996 --    14 C    0.983
    36   1 H    1.004 --    14 C    0.982
    37   1 H    0.996 --    15 C    0.984
    38   1 H    1.004 --    15 C    0.958
    39   1 H    0.997 --    15 C    0.982
    40   1 H    0.945 --    16 N    0.888
    41   1 H    0.997 --    23 C    0.982
    42   1 H    0.995 --    23 C    0.960
    43   1 H    0.995 --    23 C    0.962
 ---------------------------------------------------------------------------

           -------------------------------------------------
          | TOTAL ENERGY              -83.121721537003 Eh   |
          | GRADIENT NORM               0.000845233224 Eh/α |
          | HOMO-LUMO GAP               0.856047669897 eV   |
           -------------------------------------------------

 * finished run on 2023/06/20 at 15:37:56.061
