                         Program Version 5.0.1 -  RELEASE  -
|  1> # ORCA input file
|  2> ! SP r2SCAN-3c CPCM
|  3>
|  4> %maxcore 1875.0
|  5> %pal nprocs 4 end
|  6> %cpcm smd true SMDsolvent "DMSO" end
|  7>
|  8> *xyz 1 1
|  9> C       3.417095   -0.014652   -0.107825
| 10> O       2.081336   -0.544455    0.089541
| 11> C       1.068794    0.227363   -0.079471
| 12> O       0.995189    1.372084   -0.382101
| 13> C      -0.293890   -0.602612    0.225946
| 14> C      -0.127504   -2.097385    0.040087
| 15> N      -0.598724   -0.124404    1.522011
| 16> N      -1.531212    0.721038    1.450685
| 17> C      -1.946234    0.781146    0.138484
| 18> C      -2.989592    1.657989   -0.373248
| 19> O      -1.281637   -0.033788   -0.592019
| 20> H       3.389470    0.782771   -0.849709
| 21> H       3.779088    0.360554    0.849203
| 22> H       4.022062   -0.851531   -0.448841
| 23> H      -1.089164   -2.579747    0.203636
| 24> H       0.217956   -2.301791   -0.970624
| 25> H       0.600038   -2.464862    0.759527
| 26> H      -3.315545    1.339302   -1.361294
| 27> H      -3.820984    1.702701    0.330972
| 28> H      -2.576544    2.670280   -0.444960
| 29> **                         ****END OF INPUT****

CARTESIAN COORDINATES (ANGSTROEM)
---------------------------------
  C      3.417095   -0.014652   -0.107825
  O      2.081336   -0.544455    0.089541
  C      1.068794    0.227363   -0.079471
  O      0.995189    1.372084   -0.382101
  C     -0.293890   -0.602612    0.225946
  C     -0.127504   -2.097385    0.040087
  N     -0.598724   -0.124404    1.522011
  N     -1.531212    0.721038    1.450685
  C     -1.946234    0.781146    0.138484
  C     -2.989592    1.657989   -0.373248
  O     -1.281637   -0.033788   -0.592019
  H      3.389470    0.782771   -0.849709
  H      3.779088    0.360554    0.849203
  H      4.022062   -0.851531   -0.448841
  H     -1.089164   -2.579747    0.203636
  H      0.217956   -2.301791   -0.970624
  H      0.600038   -2.464862    0.759527
  H     -3.315545    1.339302   -1.361294
  H     -3.820984    1.702701    0.330972
  H     -2.576544    2.670280   -0.444960

 Total Charge           Charge          ....    1
 Multiplicity           Mult            ....    1
 Number of Electrons    NEL             ....   82
 Basis Dimension        Dim             ....  279

ORBITAL ENERGIES
----------------

  NO   OCC          E(Eh)            E(eV)
   0   2.0000     -19.116097      -520.1754
   1   2.0000     -19.056234      -518.5465
   2   2.0000     -19.002566      -517.0861
   3   2.0000     -14.293527      -388.9466
   4   2.0000     -14.277549      -388.5119
   5   2.0000     -10.237740      -278.5831
   6   2.0000     -10.226494      -278.2771
   7   2.0000     -10.204349      -277.6745
   8   2.0000     -10.101996      -274.8893
   9   2.0000     -10.076392      -274.1926
  10   2.0000     -10.066825      -273.9322
  11   2.0000      -1.219337       -33.1798
  12   2.0000      -1.138231       -30.9728
  13   2.0000      -1.066924       -29.0325
  14   2.0000      -1.056699       -28.7542
  15   2.0000      -0.884043       -24.0560
  16   2.0000      -0.779894       -21.2220
  17   2.0000      -0.735553       -20.0154
  18   2.0000      -0.727243       -19.7893
  19   2.0000      -0.678814       -18.4715
  20   2.0000      -0.664151       -18.0725
  21   2.0000      -0.600705       -16.3460
  22   2.0000      -0.562643       -15.3103
  23   2.0000      -0.526258       -14.3202
  24   2.0000      -0.503115       -13.6904
  25   2.0000      -0.493997       -13.4423
  26   2.0000      -0.493445       -13.4273
  27   2.0000      -0.451142       -12.2762
  28   2.0000      -0.442298       -12.0355
  29   2.0000      -0.432347       -11.7648
  30   2.0000      -0.425348       -11.5743
  31   2.0000      -0.415005       -11.2929
  32   2.0000      -0.404052       -10.9948
  33   2.0000      -0.398692       -10.8490
  34   2.0000      -0.395439       -10.7604
  35   2.0000      -0.388619       -10.5749
  36   2.0000      -0.381487       -10.3808
  37   2.0000      -0.355666        -9.6782
  38   2.0000      -0.323750        -8.8097
  39   2.0000      -0.311881        -8.4867
  40   2.0000      -0.300704        -8.1826
  41   0.0000      -0.202885        -5.5208
  42   0.0000      -0.093055        -2.5322
  43   0.0000      -0.048192        -1.3114
  44   0.0000       0.033710         0.9173
  45   0.0000       0.046356         1.2614

MULLIKEN ATOMIC CHARGES
-----------------------
   0 C :   -0.287534
   1 O :   -0.128236
   2 C :    0.405833
   3 O :   -0.350568
   4 C :    0.103773
   5 C :   -0.439906
   6 N :   -0.014417
   7 N :   -0.051684
   8 C :    0.405968
   9 C :   -0.579651
  10 O :   -0.030093
  11 H :    0.192845
  12 H :    0.202837
  13 H :    0.197852
  14 H :    0.209047
  15 H :    0.220915
  16 H :    0.218430
  17 H :    0.226644
  18 H :    0.236902
  19 H :    0.261043
Sum of atomic charges:    1.0000000

LOEWDIN ATOMIC CHARGES
----------------------
   0 C :   -0.002111
   1 O :   -0.524805
   2 C :    0.436136
   3 O :   -0.306267
   4 C :    0.334310
   5 C :   -0.266909
   6 N :   -0.208209
   7 N :   -0.196494
   8 C :    0.498633
   9 C :   -0.279722
  10 O :   -0.341809
  11 H :    0.196135
  12 H :    0.197534
  13 H :    0.199839
  14 H :    0.193472
  15 H :    0.198841
  16 H :    0.205640
  17 H :    0.207601
  18 H :    0.220678
  19 H :    0.237507

  Mayer bond orders larger than 0.100000
B(  0-C ,  1-O ) :   0.7917 B(  0-C , 11-H ) :   0.9518 B(  0-C , 12-H ) :   0.9393
B(  0-C , 13-H ) :   0.9516 B(  1-O ,  2-C ) :   1.2448 B(  2-C ,  3-O ) :   1.8317
B(  2-C ,  4-C ) :   0.9855 B(  4-C ,  5-C ) :   0.9307 B(  4-C ,  6-N ) :   0.9614
B(  4-C , 10-O ) :   0.7686 B(  5-C , 14-H ) :   0.9447 B(  5-C , 15-H ) :   0.9279
B(  5-C , 16-H ) :   0.9326 B(  6-N ,  7-N ) :   1.6796 B(  6-N ,  8-C ) :   0.1155
B(  7-N ,  8-C ) :   1.0868 B(  8-C ,  9-C ) :   0.9965 B(  8-C , 10-O ) :   1.3436
B(  9-C , 17-H ) :   0.9550 B(  9-C , 18-H ) :   0.9110 B(  9-C , 19-H ) :   0.8712

Dispersion correction           -0.006255530
FINAL SINGLE POINT ENERGY      -568.888058239550

DIPOLE MOMENT
-------------
                                X             Y             Z
Electronic contribution:     -2.59957       1.77796       2.07055
Nuclear contribution   :      1.70729      -2.27870      -3.08919
                        -----------------------------------------
Total Dipole Moment    :     -0.89228      -0.50075      -1.01864
                        -----------------------------------------
Magnitude (a.u.)       :      1.44380
Magnitude (Debye)      :      3.66984

Rotational constants in cm-1:     0.076714     0.026875     0.023816
Rotational constants in MHz :  2299.830910   805.684128   713.991005

                             ****ORCA TERMINATED NORMALLY****
TOTAL RUN TIME: 0 days 0 hours 0 minutes 36 seconds 167 msec
