   * xtb version 6.5.1 (579679a) compiled by 'ehlert@majestix' on 2022-07-11
          program call               : /lustre/hpc/kemi/ree/PhD/git/ReactivityQM/dep/xtb-6.5.1/bin/xtb --gfn 1 /lustre/hpc/kemi/ree/PhD/git/ReactivityQM/calculations/R01/reac01prodN06/conf01/R01_reac01prodN06_conf01_gfn1.xyz --opt --vfukui --chrg 1 --uhf 0 --alpb DMSO

   ID    Z sym.   atoms
    1    6 C      1, 3, 5, 6, 9, 10
    2    8 O      2, 4, 11
    3    7 N      7, 8
    4    1 H      12-20

      * Solvation model:               ALPB
        Solvent                        DMSO
        Solvent mass                       7.8130E+01 g/mol
          :  Hamiltonian                  GFN1-xTB          :
 * total energy  :   -37.5795709 Eh     change       -0.4966694E-11 Eh
 * total energy  :   -37.5908334 Eh     change       -0.1126253E-01 Eh
 * total energy  :   -37.5957542 Eh     change       -0.4920795E-02 Eh
 * total energy  :   -37.5965420 Eh     change       -0.7877984E-03 Eh
 * total energy  :   -37.5970930 Eh     change       -0.5510172E-03 Eh
 * total energy  :   -37.5972788 Eh     change       -0.1858011E-03 Eh
 * total energy  :   -37.5974646 Eh     change       -0.1857522E-03 Eh
 * total energy  :   -37.5975920 Eh     change       -0.1273799E-03 Eh
 * total energy  :   -37.5977034 Eh     change       -0.1113986E-03 Eh
 * total energy  :   -37.5978215 Eh     change       -0.1181307E-03 Eh
 * total energy  :   -37.5984032 Eh     change       -0.5633936E-05 Eh
 * total energy  :   -37.5984124 Eh     change       -0.9245431E-05 Eh
 * total energy  :   -37.5984203 Eh     change       -0.7861305E-05 Eh
 * total energy  :   -37.5984358 Eh     change       -0.1554084E-04 Eh
 * total energy  :   -37.5984433 Eh     change       -0.7467141E-05 Eh
 * total energy  :   -37.5984633 Eh     change       -0.2004402E-04 Eh
 * total energy  :   -37.5984685 Eh     change       -0.5187482E-05 Eh
 * total energy  :   -37.5984740 Eh     change       -0.5502849E-05 Eh
 * total energy  :   -37.5984777 Eh     change       -0.3662875E-05 Eh
   *** GEOMETRY OPTIMIZATION CONVERGED AFTER 39 ITERATIONS ***

 final structure:
================
20
 xtb: 6.5.1 (579679a)
C            3.41709523458379       -0.01465195949398       -0.10782463530276
O            2.08133606564304       -0.54445543978612        0.08954134396864
C            1.06879421315678        0.22736307346677       -0.07947066359953
O            0.99518899469101        1.37208371485843       -0.38210122621292
C           -0.29388968127641       -0.60261182870227        0.22594626505933
C           -0.12750415036983       -2.09738490968230        0.04008722802227
N           -0.59872419636663       -0.12440402076395        1.52201112434388
N           -1.53121160732918        0.72103823116255        1.45068530733890
C           -1.94623428038715        0.78114590089285        0.13848429593136
C           -2.98959154018376        1.65798875072889       -0.37324771458913
O           -1.28163650893730       -0.03378847123369       -0.59201910341356
H            3.38946991591300        0.78277076310833       -0.84970924212300
H            3.77908774304573        0.36055446604273        0.84920274534576
H            4.02206153935948       -0.85153107530850       -0.44884125648467
H           -1.08916401946001       -2.57974737239810        0.20363567226928
H            0.21795550465833       -2.30179077095461       -0.97062387872897
H            0.60003843748049       -2.46486181358739        0.75952658894044
H           -3.31554504670843        1.33930198669877       -1.36129420979772
H           -3.82098357117555        1.70270058210397        0.33097206011768
H           -2.57654404633745        2.67028019284758       -0.44495970108532

          :  Hamiltonian                  GFN1-xTB          :
         :: total energy             -37.598477686220 Eh    ::
         :: gradient norm              0.000768972424 Eh/a0 ::
         :: HOMO-LUMO gap              2.265906328376 eV    ::
         :: SCC energy               -37.940440813642 Eh    ::
         :: -> Gsolv                  -0.078689628898 Eh    ::
         :: repulsion energy           0.350777541559 Eh    ::

    * Orbital Energies and Occupations

         #    Occupation            Energy/Eh            Energy/eV
      -------------------------------------------------------------
         1        2.0000           -0.9414846             -25.6191
       ...           ...                  ...                  ...
        18        2.0000           -0.6148756             -16.7316
        19        2.0000           -0.6095065             -16.5855
        20        2.0000           -0.6009621             -16.3530
        21        2.0000           -0.5979614             -16.2714
        22        2.0000           -0.5864349             -15.9577
        23        2.0000           -0.5815312             -15.8243
        24        2.0000           -0.5727972             -15.5866
        25        2.0000           -0.5681856             -15.4611
        26        2.0000           -0.5639925             -15.3470
        27        2.0000           -0.5506893             -14.9850
        28        2.0000           -0.5414027             -14.7323
        29        2.0000           -0.5326415             -14.4939
        30        2.0000           -0.5155419             -14.0286 (HOMO)
        31                         -0.4322713             -11.7627 (LUMO)
        32                         -0.3412366              -9.2855
        33                         -0.3142654              -8.5516
        34                         -0.1793880              -4.8814
        35                         -0.1663745              -4.5273
        36                         -0.1598324              -4.3493
        37                         -0.1118056              -3.0424
        38                         -0.1108295              -3.0158
        39                         -0.1081572              -2.9431
        40                         -0.0994010              -2.7048
        41                         -0.0983503              -2.6762
       ...                                ...                  ...
        62                          0.7606347              20.6979
      -------------------------------------------------------------
                  HL-Gap            0.0832705 Eh            2.2659 eV

Wiberg/Mayer (AO) data.
largest (>0.10) Wiberg bond orders for each atom

     #   Z sym  total        # sym  WBO       # sym  WBO       # sym  WBO
 ---------------------------------------------------------------------------
     1   6 C    3.804 --    12 H    0.980    14 H    0.979    13 H    0.974
                             2 O    0.829
     2   8 O    2.274 --     3 C    1.236     1 C    0.829     4 O    0.154
     3   6 C    3.863 --     4 O    1.751     2 O    1.236     5 C    0.717
     4   8 O    2.082 --     3 C    1.751     2 O    0.154
     5   6 C    3.836 --     7 N    1.078     6 C    0.950    11 O    0.910
                             3 C    0.717
     6   6 C    3.950 --    16 H    0.977    17 H    0.975    15 H    0.972
                             5 C    0.950
     7   7 N    3.009 --     8 N    1.671     5 C    1.078
     8   7 N    3.021 --     7 N    1.671     9 C    1.183
     9   6 C    3.797 --    11 O    1.298     8 N    1.183    10 C    1.085
    10   6 C    3.964 --     9 C    1.085    18 H    0.966    19 H    0.941
                            20 H    0.900
    11   8 O    2.391 --     9 C    1.298     5 C    0.910
    12   1 H    0.996 --     1 C    0.980
    13   1 H    0.997 --     1 C    0.974
    14   1 H    1.000 --     1 C    0.979
    15   1 H    0.990 --     6 C    0.972
    16   1 H    0.991 --     6 C    0.977
    17   1 H    0.995 --     6 C    0.975
    18   1 H    0.984 --    10 C    0.966
    19   1 H    0.982 --    10 C    0.941
    20   1 H    0.977 --    10 C    0.900
 ---------------------------------------------------------------------------

           -------------------------------------------------
          | TOTAL ENERGY              -37.598477686220 Eh   |
          | GRADIENT NORM               0.000768972424 Eh/α |
          | HOMO-LUMO GAP               2.265906328376 eV   |
           -------------------------------------------------

 * finished run on 2023/06/20 at 14:56:08.311
