   * xtb version 6.5.1 (579679a) compiled by 'ehlert@majestix' on 2022-07-11
          program call               : /lustre/hpc/kemi/ree/PhD/git/ReactivityQM/dep/xtb-6.5.1/bin/xtb --gfn 1 /lustre/hpc/kemi/ree/PhD/git/ReactivityQM/calculations/R01/reac02prodN02/conf01/R01_reac02prodN02_conf01_gfn1.xyz --opt --vfukui --chrg 1 --uhf 0 --alpb DMSO

   ID    Z sym.   atoms
    1    6 C      1, 3-6, 8, 9, 12, 13, 15
    2    7 N      2, 7, 17
    3    8 O      10, 11, 14, 16
    4    1 H      18-33

      * Solvation model:               ALPB
        Solvent                        DMSO
        Solvent mass                       7.8130E+01 g/mol
          :  Hamiltonian                  GFN1-xTB          :
 * total energy  :   -57.8558689 Eh     change       -0.5712764E-11 Eh
 * total energy  :   -57.8671331 Eh     change       -0.1126417E-01 Eh
 * total energy  :   -57.8703209 Eh     change       -0.3187808E-02 Eh
 * total energy  :   -57.8710224 Eh     change       -0.7015302E-03 Eh
 * total energy  :   -57.8714125 Eh     change       -0.3901059E-03 Eh
 * total energy  :   -57.8716538 Eh     change       -0.2412359E-03 Eh
 * total energy  :   -57.8719083 Eh     change       -0.2545425E-03 Eh
 * total energy  :   -57.8721239 Eh     change       -0.2155579E-03 Eh
 * total energy  :   -57.8722617 Eh     change       -0.1378390E-03 Eh
 * total energy  :   -57.8723368 Eh     change       -0.7515593E-04 Eh
 * total energy  :   -57.8745220 Eh     change       -0.8582072E-05 Eh
 * total energy  :   -57.8745316 Eh     change       -0.9619877E-05 Eh
 * total energy  :   -57.8745419 Eh     change       -0.1031226E-04 Eh
 * total energy  :   -57.8745522 Eh     change       -0.1026227E-04 Eh
 * total energy  :   -57.8745615 Eh     change       -0.9330915E-05 Eh
 * total energy  :   -57.8745698 Eh     change       -0.8311814E-05 Eh
 * total energy  :   -57.8745776 Eh     change       -0.7772258E-05 Eh
 * total energy  :   -57.8745854 Eh     change       -0.7834861E-05 Eh
 * total energy  :   -57.8745903 Eh     change       -0.4839540E-05 Eh
   *** GEOMETRY OPTIMIZATION CONVERGED AFTER 68 ITERATIONS ***

 final structure:
================
33
 xtb: 6.5.1 (579679a)
C           -1.78678013708317        2.12490887230172       -0.38741901433277
N           -2.04970011071945        1.14514200913729        0.69816168763093
C           -2.05954573605349       -0.31392428652571        0.32202252438958
C           -2.61936120613465       -1.06293025806207        1.53492750775171
C           -2.92719036572436       -0.53929153486059       -0.91505237143674
C           -0.61977791445173       -0.70299205620888        0.08486260417616
N            0.30187229821048        0.17764186608794        0.25464732005976
C            1.62372718240834       -0.14833935693856        0.04220676063783
C            2.53641920634110        1.02536256537481        0.18845352585449
O            2.12566088268541        2.15013341139858        0.36461022148810
O            3.82123067230937        0.71474708936633        0.08852858365579
C            4.75328488544694        1.79951945922738        0.18300995537298
C            1.96940460093256       -1.42220325641208       -0.31397021756941
O            3.21843721398139       -1.82800447246250       -0.53816244632319
C            0.93314411288499       -2.44342629710341       -0.49087715395170
O            1.17721774578343       -3.59310324319698       -0.80780402914361
N           -0.35207198230704       -1.98721918277885       -0.28072308379012
H           -2.58808068445815        2.07494264061346       -1.11739140591837
H           -1.76009847345172        3.10925018798678        0.07435914380050
H           -0.82516470172463        1.89200625772976       -0.83842869017392
H           -1.31631922874381        1.26287232194828        1.40095662266423
H           -2.94158386619204        1.37339091682049        1.12728470483579
H           -2.02378080084504       -0.84827362813137        2.42084943915734
H           -2.59429362296377       -2.13401165621509        1.34378839673509
H           -3.65043669556662       -0.76399859365765        1.71372111300362
H           -3.07052963976864       -1.60909696054347       -1.05613849026841
H           -3.90205384248125       -0.07587465081196       -0.77603052563198
H           -2.45416793960552       -0.13198917766174       -1.80670250489097
H            4.60576301321503        2.33862830373006        1.12151631529349
H            4.61014244012175        2.48510211185834       -0.65539159130802
H            5.74769184696526        1.35851898166289        0.14812095949144
H            3.21343269690193       -2.77106941867401       -0.78795550496798
H           -1.09649084991851       -2.65641896499640       -0.40272035629012

          :  Hamiltonian                  GFN1-xTB          :
         :: total energy             -57.874590280484 Eh    ::
         :: gradient norm              0.000217067207 Eh/a0 ::
         :: HOMO-LUMO gap              3.013750345350 eV    ::
         :: SCC energy               -58.457354151470 Eh    ::
         :: -> Gsolv                  -0.117928000684 Eh    ::
         :: repulsion energy           0.602012506848 Eh    ::

    * Orbital Energies and Occupations

         #    Occupation            Energy/Eh            Energy/eV
      -------------------------------------------------------------
         1        2.0000           -0.8864496             -24.1215
       ...           ...                  ...                  ...
        35        2.0000           -0.5580693             -15.1858
        36        2.0000           -0.5522129             -15.0265
        37        2.0000           -0.5484168             -14.9232
        38        2.0000           -0.5461877             -14.8625
        39        2.0000           -0.5337277             -14.5235
        40        2.0000           -0.5308089             -14.4440
        41        2.0000           -0.5211683             -14.1817
        42        2.0000           -0.5077182             -13.8157
        43        2.0000           -0.5036045             -13.7038
        44        2.0000           -0.4988590             -13.5746
        45        2.0000           -0.4810270             -13.0894
        46        2.0000           -0.4703286             -12.7983
        47        2.0000           -0.4499909             -12.2449 (HOMO)
        48                         -0.3392376              -9.2311 (LUMO)
        49                         -0.3069929              -8.3537
        50                         -0.2542690              -6.9190
        51                         -0.1814029              -4.9362
        52                         -0.1758295              -4.7846
        53                         -0.1706174              -4.6427
        54                         -0.1640065              -4.4628
        55                         -0.1462923              -3.9808
        56                         -0.1425408              -3.8787
        57                         -0.1372332              -3.7343
        58                         -0.1255351              -3.4160
       ...                                ...                  ...
       100                          0.7226533              19.6644
      -------------------------------------------------------------
                  HL-Gap            0.1107533 Eh            3.0138 eV

Wiberg/Mayer (AO) data.
largest (>0.10) Wiberg bond orders for each atom

     #   Z sym  total        # sym  WBO       # sym  WBO       # sym  WBO
 ---------------------------------------------------------------------------
     1   6 C    3.891 --    18 H    0.984    19 H    0.981    20 H    0.979
                             2 N    0.914
     2   7 N    3.603 --     1 C    0.914    22 H    0.893     3 C    0.889
                            21 H    0.883
     3   6 C    3.906 --     5 C    0.992     6 C    0.986     4 C    0.986
                             2 N    0.889
     4   6 C    3.981 --     3 C    0.986    23 H    0.981    25 H    0.979
                            24 H    0.977
     5   6 C    3.982 --     3 C    0.992    28 H    0.981    27 H    0.980
                            26 H    0.976
     6   6 C    3.942 --     7 N    1.594    17 N    1.176     3 C    0.986
     7   7 N    3.049 --     6 C    1.594     8 C    1.159
     8   6 C    3.957 --    13 C    1.510     7 N    1.159     9 C    0.994
     9   6 C    3.856 --    10 O    1.654    11 O    1.130     8 C    0.994
    10   8 O    1.920 --     9 C    1.654    11 O    0.137
    11   8 O    2.213 --     9 C    1.130    12 C    0.890    10 O    0.137
    12   6 C    3.865 --    31 H    0.986    29 H    0.979    30 H    0.979
                            11 O    0.890
    13   6 C    3.922 --     8 C    1.510    14 O    1.123    15 C    1.052
    14   8 O    2.099 --    13 C    1.123    32 H    0.801
    15   6 C    3.906 --    16 O    1.602    17 N    1.122    13 C    1.052
    16   8 O    1.923 --    15 C    1.602    17 N    0.132
    17   7 N    3.465 --     6 C    1.176    15 C    1.122    33 H    0.877
                            16 O    0.132
    18   1 H    0.994 --     1 C    0.984
    19   1 H    0.990 --     1 C    0.981
    20   1 H    1.010 --     1 C    0.979
    21   1 H    0.938 --     2 N    0.883
    22   1 H    0.919 --     2 N    0.893
    23   1 H    0.993 --     4 C    0.981
    24   1 H    0.994 --     4 C    0.977
    25   1 H    0.992 --     4 C    0.979
    26   1 H    0.994 --     5 C    0.976
    27   1 H    0.992 --     5 C    0.980
    28   1 H    0.996 --     5 C    0.981
    29   1 H    1.006 --    12 C    0.979
    30   1 H    1.005 --    12 C    0.979
    31   1 H    1.009 --    12 C    0.986
    32   1 H    0.838 --    14 O    0.801
    33   1 H    0.919 --    17 N    0.877
 ---------------------------------------------------------------------------

           -------------------------------------------------
          | TOTAL ENERGY              -57.874590280484 Eh   |
          | GRADIENT NORM               0.000217067207 Eh/α |
          | HOMO-LUMO GAP               3.013750345350 eV   |
           -------------------------------------------------

 * finished run on 2023/06/20 at 15:03:53.405
