   * xtb version 6.5.1 (579679a) compiled by 'ehlert@majestix' on 2022-07-11
          program call               : /lustre/hpc/kemi/ree/PhD/git/ReactivityQM/dep/xtb-6.5.1/bin/xtb --gfn 1 /lustre/hpc/kemi/ree/PhD/git/ReactivityQM/calculations/R02deprot/reac01prodN05/conf17/R02deprot_reac01prodN05_conf17_gfn1.xyz --opt --vfukui --chrg 0 --uhf 0 --alpb DMSO

   ID    Z sym.   atoms
    1    6 C      1, 3, 5, 7-10, 12, 14, 17, 18, 21, 23, 25
    2    8 O      2, 4, 13, 19, 22, 24
    3    7 N      6, 11, 15, 16, 20
    4    1 H      26-42

      * Solvation model:               ALPB
        Solvent                        DMSO
        Solvent mass                       7.8130E+01 g/mol
          :  Hamiltonian                  GFN1-xTB          :
 * total energy  :   -82.9280217 Eh     change       -0.1404032E-10 Eh
 * total energy  :   -82.9428155 Eh     change       -0.1479383E-01 Eh
 * total energy  :   -82.9492913 Eh     change       -0.6475771E-02 Eh
 * total energy  :   -82.9514601 Eh     change       -0.2168848E-02 Eh
 * total energy  :   -82.9537717 Eh     change       -0.2311607E-02 Eh
 * total energy  :   -82.9554539 Eh     change       -0.1682197E-02 Eh
 * total energy  :   -82.9570094 Eh     change       -0.1555434E-02 Eh
 * total energy  :   -82.9594240 Eh     change       -0.2414679E-02 Eh
 * total energy  :   -82.9613197 Eh     change       -0.1895614E-02 Eh
 * total energy  :   -82.9624051 Eh     change       -0.1085468E-02 Eh
 * total energy  :   -82.9718782 Eh     change       -0.1584648E-04 Eh
 * total energy  :   -82.9718974 Eh     change       -0.1920583E-04 Eh
 * total energy  :   -82.9719160 Eh     change       -0.1861090E-04 Eh
 * total energy  :   -82.9719310 Eh     change       -0.1501672E-04 Eh
 * total energy  :   -82.9719433 Eh     change       -0.1235966E-04 Eh
 * total energy  :   -82.9719554 Eh     change       -0.1201602E-04 Eh
 * total energy  :   -82.9719669 Eh     change       -0.1153310E-04 Eh
 * total energy  :   -82.9719770 Eh     change       -0.1007208E-04 Eh
 * total energy  :   -82.9719811 Eh     change       -0.4174490E-05 Eh
   *** GEOMETRY OPTIMIZATION CONVERGED AFTER 68 ITERATIONS ***

 final structure:
================
42
 xtb: 6.5.1 (579679a)
C           -4.59819126585745        2.80939114952735        0.50741283202006
O           -3.52056817656831        1.87032433533737        0.63147961397813
C           -3.51258698854738        0.80944742285984       -0.10789126605527
O           -4.51134275833776        0.65185799782536       -0.92514508252152
C           -2.41010374843746       -0.09408093845725        0.00613126128118
N           -1.43784566635731        0.28532508514586        0.88947150588765
C           -0.37996157623175       -0.49018579487809        0.96424696327805
C            0.72814739887192       -0.09378998892944        1.93008140870631
C            0.92412734505968       -1.22485962536611        2.94891374885717
C            0.41146570113344        1.23486150244428        2.61847294432365
N            1.93659936000963        0.04308518440645        1.10506801225391
C            3.13680489534762        0.40726270550131        1.57917019160430
O            3.40867390156638        0.62323778642930        2.75174102754790
C            4.15563469779388        0.55218782451020        0.50227114907667
N            5.41703457969756        0.82369748863229        0.63123650781340
N            5.93547389552909        0.89742553696816       -0.62909553013717
C            4.95732367540381        0.66951774385884       -1.44822686262123
C            4.99357604857611        0.65281970102787       -2.92694671722415
O            3.80443455028506        0.44095636224194       -0.79778955117281
N           -0.15237089733275       -1.59970689444044        0.26997025050858
C           -1.07113596114287       -2.08294072670961       -0.60203367677927
O           -0.88906968868041       -3.12250909710904       -1.24447434811054
C           -2.30114515621886       -1.26926211848381       -0.73611278243061
O           -3.31961123598257       -1.58913273283813       -1.55247922451789
C           -3.33287313241307       -2.81064106613575       -2.30992346613229
H           -5.54410390936224        2.31861044611688        0.74020866928344
H           -4.62799702223555        3.20087075266041       -0.51032847891612
H           -4.39002738104015        3.60416910728098        1.22025500432201
H            0.00876430228484       -1.35495613459376        3.52423488626824
H            1.74094568570298       -0.98968767651982        3.62931334013899
H            1.14660768191768       -2.15273057901820        2.42232734661385
H           -0.53826526987903        1.14841345698065        3.14405291139588
H            0.32656592436374        2.02555317303512        1.87440744970085
H            1.19208734520597        1.49319027384279        3.33213124788411
H            1.83684749316642       -0.15311977280983        0.12078631631591
H            6.01075562364281        0.82128738291602       -3.27163656182245
H            4.34146274975043        1.43168705111934       -3.32190068769496
H            4.63316596618867       -0.30606739782009       -3.29815116239168
H           -4.44335753485158       -0.16150013975159       -1.47350911491653
H           -2.53255368746933       -2.80947950522999       -3.05204404174873
H           -3.23155720875491       -3.67392634331662       -1.65026016985450
H           -4.30183355579213       -2.83659993825290       -2.80639586400467

          :  Hamiltonian                  GFN1-xTB          :
         :: total energy             -82.971981143166 Eh    ::
         :: gradient norm              0.000338673612 Eh/a0 ::
         :: HOMO-LUMO gap              1.493490745150 eV    ::
         :: SCC energy               -83.740364514288 Eh    ::
         :: -> Gsolv                  -0.065619720399 Eh    ::
         :: repulsion energy           0.793248215616 Eh    ::

    * Orbital Energies and Occupations

         #    Occupation            Energy/Eh            Energy/eV
      -------------------------------------------------------------
         1        2.0000           -0.8835489             -24.0426
       ...           ...                  ...                  ...
        55        2.0000           -0.5007045             -13.6249
        56        2.0000           -0.4898350             -13.3291
        57        2.0000           -0.4886515             -13.2969
        58        2.0000           -0.4760706             -12.9545
        59        2.0000           -0.4642640             -12.6333
        60        2.0000           -0.4584938             -12.4763
        61        2.0000           -0.4564036             -12.4194
        62        2.0000           -0.4541485             -12.3580
        63        2.0000           -0.4462743             -12.1437
        64        2.0000           -0.4383600             -11.9284
        65        2.0000           -0.4295674             -11.6891
        66        2.0000           -0.4028351             -10.9617
        67        2.0000           -0.4018227             -10.9342 (HOMO)
        68                         -0.3469379              -9.4407 (LUMO)
        69                         -0.3038341              -8.2677
        70                         -0.2597762              -7.0689
        71                         -0.2538560              -6.9078
        72                         -0.2364261              -6.4335
        73                         -0.1927366              -5.2446
        74                         -0.1542526              -4.1974
        75                         -0.1448887              -3.9426
        76                         -0.1413823              -3.8472
        77                         -0.1280699              -3.4850
        78                         -0.1148843              -3.1262
       ...                                ...                  ...
       134                          0.7307607              19.8850
      -------------------------------------------------------------
                  HL-Gap            0.0548848 Eh            1.4935 eV

Wiberg/Mayer (AO) data.
largest (>0.10) Wiberg bond orders for each atom

     #   Z sym  total        # sym  WBO       # sym  WBO       # sym  WBO
 ---------------------------------------------------------------------------
     1   6 C    3.842 --    28 H    0.984    26 H    0.975    27 H    0.975
                             2 O    0.870
     2   8 O    2.290 --     3 C    1.237     1 C    0.870
     3   6 C    3.806 --     2 O    1.237     4 O    1.217     5 C    1.172
     4   8 O    2.169 --     3 C    1.217    39 H    0.751
     5   6 C    3.956 --    23 C    1.360     6 N    1.187     3 C    1.172
     6   7 N    2.991 --     7 C    1.463     5 C    1.187
     7   6 C    3.952 --     6 N    1.463    20 N    1.365     8 C    0.971
     8   6 C    3.930 --    10 C    0.997     9 C    0.983     7 C    0.971
                            11 N    0.912
     9   6 C    3.991 --    29 H    0.986    31 H    0.984     8 C    0.983
                            30 H    0.983
    10   6 C    3.992 --     8 C    0.997    33 H    0.985    32 H    0.985
                            34 H    0.983
    11   7 N    3.373 --    12 C    1.287     8 C    0.912    35 H    0.892
                            13 O    0.183
    12   6 C    3.921 --    13 O    1.568    11 N    1.287    14 C    0.985
    13   8 O    1.887 --    12 C    1.568    11 N    0.183
    14   6 C    3.869 --    15 N    1.627    19 O    1.047    12 C    0.985
    15   7 N    2.996 --    14 C    1.627    16 N    1.193
    16   7 N    2.980 --    17 C    1.616    15 N    1.193
    17   6 C    3.870 --    16 N    1.616    19 O    1.072    18 C    1.031
    18   6 C    3.987 --    17 C    1.031    36 H    0.983    38 H    0.965
                            37 H    0.963
    19   8 O    2.315 --    17 C    1.072    14 C    1.047
    20   7 N    2.997 --     7 C    1.365    21 C    1.240    22 O    0.132
    21   6 C    3.931 --    22 O    1.515    20 N    1.240    23 C    1.046
    22   8 O    1.852 --    21 C    1.515    20 N    0.132
    23   6 C    3.882 --     5 C    1.360    24 O    1.091    21 C    1.046
    24   8 O    2.223 --    23 C    1.091    25 C    0.874
    25   6 C    3.852 --    42 H    0.985    41 H    0.977    40 H    0.976
                            24 O    0.874
    26   1 H    1.000 --     1 C    0.975
    27   1 H    1.000 --     1 C    0.975
    28   1 H    1.006 --     1 C    0.984
    29   1 H    1.003 --     9 C    0.986
    30   1 H    1.010 --     9 C    0.983
    31   1 H    1.013 --     9 C    0.984
    32   1 H    1.012 --    10 C    0.985
    33   1 H    1.010 --    10 C    0.985
    34   1 H    1.011 --    10 C    0.983
    35   1 H    0.951 --    11 N    0.892
    36   1 H    0.999 --    18 C    0.983
    37   1 H    0.997 --    18 C    0.963
    38   1 H    0.997 --    18 C    0.965
    39   1 H    0.821 --     4 O    0.751
    40   1 H    1.017 --    25 C    0.976
    41   1 H    1.017 --    25 C    0.977
    42   1 H    1.010 --    25 C    0.985
 ---------------------------------------------------------------------------

           -------------------------------------------------
          | TOTAL ENERGY              -82.971981143166 Eh   |
          | GRADIENT NORM               0.000338673612 Eh/α |
          | HOMO-LUMO GAP               1.493490745150 eV   |
           -------------------------------------------------

 * finished run on 2023/06/20 at 18:10:24.800
