   * xtb version 6.5.1 (579679a) compiled by 'ehlert@majestix' on 2022-07-11
          program call               : /lustre/hpc/kemi/ree/PhD/git/ReactivityQM/dep/xtb-6.5.1/bin/xtb --gfn 1 /lustre/hpc/kemi/ree/PhD/git/ReactivityQM/calculations/R02oxygendeprot/reac01prodE07/conf05/R02oxygendeprot_reac01prodE07_conf05_gfn1.xyz --opt --vfukui --chrg -2 --uhf 0 --alpb DMSO

   ID    Z sym.   atoms
    1    6 C      1, 3, 5, 7-10, 12, 14, 15, 18, 19, 22, 24
    2    8 O      2, 4, 13, 20, 23, 25
    3    7 N      6, 11, 16, 17, 21
    4    1 H      26-42

      * Solvation model:               ALPB
        Solvent                        DMSO
        Solvent mass                       7.8130E+01 g/mol
          :  Hamiltonian                  GFN1-xTB          :
 * total energy  :   -83.5824823 Eh     change       -0.8718217E-09 Eh
 * total energy  :   -83.5973160 Eh     change       -0.1483372E-01 Eh
 * total energy  :   -83.6038112 Eh     change       -0.6495179E-02 Eh
 * total energy  :   -83.6051489 Eh     change       -0.1337731E-02 Eh
 * total energy  :   -83.6062954 Eh     change       -0.1146483E-02 Eh
 * total energy  :   -83.6069412 Eh     change       -0.6457852E-03 Eh
 * total energy  :   -83.6074883 Eh     change       -0.5470749E-03 Eh
 * total energy  :   -83.6078428 Eh     change       -0.3544855E-03 Eh
 * total energy  :   -83.6081171 Eh     change       -0.2743422E-03 Eh
 * total energy  :   -83.6083979 Eh     change       -0.2807856E-03 Eh
 * total energy  :   -83.6155164 Eh     change       -0.2887495E-04 Eh
 * total energy  :   -83.6155439 Eh     change       -0.2754191E-04 Eh
 * total energy  :   -83.6155709 Eh     change       -0.2690310E-04 Eh
 * total energy  :   -83.6155968 Eh     change       -0.2590836E-04 Eh
 * total energy  :   -83.6156196 Eh     change       -0.2288616E-04 Eh
 * total energy  :   -83.6156399 Eh     change       -0.2025037E-04 Eh
 * total energy  :   -83.6156580 Eh     change       -0.1805460E-04 Eh
 * total energy  :   -83.6156773 Eh     change       -0.1938386E-04 Eh
 * total energy  :   -83.6156822 Eh     change       -0.4910163E-05 Eh
   *** GEOMETRY OPTIMIZATION CONVERGED AFTER 68 ITERATIONS ***

 final structure:
================
42
 xtb: 6.5.1 (579679a)
C            6.19412052918171        2.47235163408434        1.23212052155740
O            5.22580178919860        2.23073988801000        0.22461552382448
C            4.17784266084521        1.44064744454410        0.58896546245404
O            4.11432468196607        0.98956518917663        1.72891652110761
C            3.20068851899516        1.20239045185179       -0.45811376011961
N            2.14673054668358        0.40558689440657       -0.03617396344625
C            1.20116632162050        0.10032462778112       -0.84633361510148
C            0.06584998524619       -0.81727618667978       -0.43876989692488
C            0.48168876227313       -2.25736961519647       -0.77699488383411
C           -0.20749330095704       -0.67732087409940        1.06572815872698
N           -1.11227159886043       -0.44467775177388       -1.24676291316681
C           -2.30021467337061       -1.23010820004171       -0.98141924850513
O           -2.45097932925795       -2.34110513870285       -1.86462916725771
C           -2.96714126511296       -3.50094313082643       -1.24638991159846
C           -3.40051725400638       -0.65401627664207       -0.40244739807169
N           -4.65677921861362       -1.15230261896824       -0.28371723544432
N           -5.34413970896209       -0.25936361674685        0.51795523633886
C           -4.53928859527099        0.68735418462463        0.84358496656245
C           -4.83164912702056        1.87539347742272        1.69073241968510
O           -3.27650069083981        0.53157267144499        0.31575237827195
N            1.19830091046504        0.53369934619027       -2.15493804742973
C            2.16557706671339        1.32368184177773       -2.70392341818757
O            2.08102191780479        1.67382165224972       -3.88346610909242
C            3.29996672215339        1.70749408171082       -1.78056946773329
O            4.21993689824553        2.42094528340162       -2.23259343444987
H            6.65054252759354        1.53520021102215        1.56715998895384
H            5.74251684204369        2.97021560663299        2.09647719021861
H            6.95740123211299        3.11607035823590        0.79631817758037
H            0.55973551935972       -2.37676928224169       -1.85781259891844
H           -0.25654648807489       -2.96298776223830       -0.39912820226032
H            1.44561749812939       -2.48510985300560       -0.32229711469029
H            0.70446417391680       -0.87526675570963        1.62894549857622
H           -0.55059489154205        0.33236056976850        1.29141955180775
H           -0.97832030714531       -1.38583945379799        1.36817739272621
H           -1.33480695404704        0.52619040907591       -1.02300184018044
H           -2.38093545480986       -3.78542181140442       -0.35961635785446
H           -4.01395127029136       -3.35842183784170       -0.93572529057234
H           -2.92052889483581       -4.31388652500417       -1.97609247999194
H           -5.88594313928191        1.87323382084521        1.96052958245884
H           -4.23343125453394        1.86018148720377        2.60375497056603
H           -4.60270257648110        2.79786668913705        1.15430971185304
H            0.41144188877036        0.27129987030977       -2.73542089844391

          :  Hamiltonian                  GFN1-xTB          :
         :: total energy             -83.615682245134 Eh    ::
         :: gradient norm              0.000360485205 Eh/a0 ::
         :: HOMO-LUMO gap              0.464142468842 eV    ::
         :: SCC energy               -84.346980018882 Eh    ::
         :: -> Gsolv                  -0.255894210559 Eh    ::
         :: repulsion energy           0.757206629503 Eh    ::

    * Orbital Energies and Occupations

         #    Occupation            Energy/Eh            Energy/eV
      -------------------------------------------------------------
         1        2.0000           -0.7901369             -21.5007
       ...           ...                  ...                  ...
        56        2.0000           -0.4421615             -12.0318
        57        2.0000           -0.4272285             -11.6255
        58        2.0000           -0.4250145             -11.5652
        59        2.0000           -0.4236645             -11.5285
        60        2.0000           -0.4131712             -11.2430
        61        2.0000           -0.4006654             -10.9027
        62        2.0000           -0.3944904             -10.7346
        63        2.0000           -0.3795876             -10.3291
        64        2.0000           -0.3713291             -10.1044
        65        2.0000           -0.3659123              -9.9570
        66        2.0000           -0.3622722              -9.8579
        67        2.0000           -0.3522698              -9.5857
        68        1.9997           -0.2760638              -7.5121 (HOMO)
        69        0.0003           -0.2590068              -7.0479 (LUMO)
        70                         -0.2207060              -6.0057
        71                         -0.1859214              -5.0592
        72                         -0.1798432              -4.8938
        73                         -0.1372239              -3.7341
        74                         -0.1177938              -3.2053
        75                         -0.1119603              -3.0466
        76                         -0.1041224              -2.8333
        77                         -0.0968442              -2.6353
        78                         -0.0928127              -2.5256
        79                         -0.0910164              -2.4767
       ...                                ...                  ...
       134                          0.7574575              20.6115
      -------------------------------------------------------------
                  HL-Gap            0.0170569 Eh            0.4641 eV

Wiberg/Mayer (AO) data.
largest (>0.10) Wiberg bond orders for each atom

     #   Z sym  total        # sym  WBO       # sym  WBO       # sym  WBO
 ---------------------------------------------------------------------------
     1   6 C    3.903 --    28 H    0.987    26 H    0.980    27 H    0.980
                             2 O    0.930
     2   8 O    2.153 --     3 C    1.036     1 C    0.930     4 O    0.107
     3   6 C    3.848 --     4 O    1.567     5 C    1.126     2 O    1.036
     4   8 O    1.844 --     3 C    1.567     2 O    0.107
     5   6 C    3.919 --    24 C    1.279     6 N    1.145     3 C    1.126
                            25 O    0.130
     6   7 N    3.020 --     7 C    1.632     5 C    1.145
     7   6 C    3.926 --     6 N    1.632    21 N    1.098     8 C    0.979
     8   6 C    3.972 --    10 C    0.988     9 C    0.982     7 C    0.979
                            11 N    0.961
     9   6 C    3.994 --    31 H    0.988    29 H    0.986     8 C    0.982
                            30 H    0.980
    10   6 C    3.997 --     8 C    0.988    33 H    0.985    34 H    0.985
                            32 H    0.985
    11   7 N    3.039 --    12 C    0.962     8 C    0.961    35 H    0.943
    12   6 C    3.680 --    15 C    1.477    11 N    0.962    13 O    0.903
                            16 N    0.151
    13   8 O    2.001 --    14 C    0.961    12 C    0.903
    14   6 C    3.932 --    38 H    0.985    36 H    0.977    37 H    0.975
                            13 O    0.961
    15   6 C    3.862 --    12 C    1.477    16 N    1.283    20 O    0.955
    16   7 N    2.823 --    15 C    1.283    17 N    1.147    12 C    0.151
                            18 C    0.119
    17   7 N    2.987 --    18 C    1.678    16 N    1.147
    18   6 C    3.885 --    17 N    1.678    19 C    1.018    20 O    0.991
                            16 N    0.119
    19   6 C    3.996 --    18 C    1.018    39 H    0.987    41 H    0.976
                            40 H    0.975
    20   8 O    2.180 --    18 C    0.991    15 C    0.955
    21   7 N    3.440 --    22 C    1.181     7 C    1.098    42 H    0.889
                            23 O    0.136
    22   6 C    3.884 --    23 O    1.556    21 N    1.181    24 C    0.973
    23   8 O    1.837 --    22 C    1.556    21 N    0.136
    24   6 C    3.944 --    25 O    1.503     5 C    1.279    22 C    0.973
    25   8 O    1.808 --    24 C    1.503     5 C    0.130
    26   1 H    1.015 --     1 C    0.980
    27   1 H    1.015 --     1 C    0.980
    28   1 H    1.016 --     1 C    0.987
    29   1 H    1.013 --     9 C    0.986
    30   1 H    1.012 --     9 C    0.980
    31   1 H    1.009 --     9 C    0.988
    32   1 H    1.017 --    10 C    0.985
    33   1 H    1.012 --    10 C    0.985
    34   1 H    1.017 --    10 C    0.985
    35   1 H    0.980 --    11 N    0.943
    36   1 H    1.026 --    14 C    0.977
    37   1 H    1.047 --    14 C    0.975
    38   1 H    1.023 --    14 C    0.985
    39   1 H    1.008 --    19 C    0.987
    40   1 H    1.007 --    19 C    0.975
    41   1 H    1.007 --    19 C    0.976
    42   1 H    0.968 --    21 N    0.889
 ---------------------------------------------------------------------------

           -------------------------------------------------
          | TOTAL ENERGY              -83.615682245134 Eh   |
          | GRADIENT NORM               0.000360485205 Eh/α |
          | HOMO-LUMO GAP               0.464142468842 eV   |
           -------------------------------------------------

 * finished run on 2023/06/21 at 17:08:42.590
