   * xtb version 6.5.1 (579679a) compiled by 'ehlert@majestix' on 2022-07-11
          program call               : /lustre/hpc/kemi/ree/PhD/git/ReactivityQM/dep/xtb-6.5.1/bin/xtb --gfn 1 /lustre/hpc/kemi/ree/PhD/git/ReactivityQM/calculations/R02/reac01prodN10/conf17/R02_reac01prodN10_conf17_gfn1.xyz --opt --vfukui --chrg 1 --uhf 0 --alpb DMSO

   ID    Z sym.   atoms
    1    6 C      1, 3, 5, 6, 8, 11-15, 17, 19, 22, 23
    2    8 O      2, 4, 7, 9, 18, 24
    3    7 N      10, 16, 20, 21, 25
    4    1 H      26-43

      * Solvation model:               ALPB
        Solvent                        DMSO
        Solvent mass                       7.8130E+01 g/mol
          :  Hamiltonian                  GFN1-xTB          :
 * total energy  :   -83.0852721 Eh     change       -0.8122925E-10 Eh
 * total energy  :   -83.1034932 Eh     change       -0.1822107E-01 Eh
 * total energy  :   -83.1113651 Eh     change       -0.7871866E-02 Eh
 * total energy  :   -83.1128976 Eh     change       -0.1532518E-02 Eh
 * total energy  :   -83.1138290 Eh     change       -0.9314441E-03 Eh
 * total energy  :   -83.1141618 Eh     change       -0.3327867E-03 Eh
 * total energy  :   -83.1143571 Eh     change       -0.1953405E-03 Eh
 * total energy  :   -83.1144742 Eh     change       -0.1170445E-03 Eh
 * total energy  :   -83.1145918 Eh     change       -0.1176530E-03 Eh
 * total energy  :   -83.1147414 Eh     change       -0.1495802E-03 Eh
 * total energy  :   -83.1187560 Eh     change       -0.2173597E-04 Eh
 * total energy  :   -83.1187704 Eh     change       -0.1443317E-04 Eh
 * total energy  :   -83.1187821 Eh     change       -0.1166749E-04 Eh
 * total energy  :   -83.1187945 Eh     change       -0.1243977E-04 Eh
 * total energy  :   -83.1188005 Eh     change       -0.6028244E-05 Eh
 * total energy  :   -83.1188009 Eh     change       -0.3689937E-06 Eh
 * total energy  :   -83.1188114 Eh     change       -0.1051535E-04 Eh
 * total energy  :   -83.1188166 Eh     change       -0.5145083E-05 Eh
 * total energy  :   -83.1188199 Eh     change       -0.3373330E-05 Eh
   *** GEOMETRY OPTIMIZATION CONVERGED AFTER 68 ITERATIONS ***

 final structure:
================
43
 xtb: 6.5.1 (579679a)
C           -4.09215917392919        2.35447150998665        2.86292266907584
O           -3.81617734215112        1.26954377853412        1.94861919062730
C           -2.53608077099083        0.99914296427839        1.73173031528942
O           -1.61558506312089        1.58670790686540        2.22728705946145
C           -2.34533341211379       -0.15237623183827        0.76642060586580
C           -3.39696630804935       -0.82997612227129        0.10506069771027
O           -4.64807639907369       -0.55871051891686        0.22698022902723
C           -3.08021578908990       -1.98087707713035       -0.79965835713003
O           -3.91790424428897       -2.64346186287456       -1.36262301464139
N           -1.74378306233782       -2.22388724554470       -0.89592534592144
C           -0.70011924990091       -1.46156494259099       -0.30731663961499
C            0.35456708745642       -2.37031462309349        0.32786838987351
C            0.01891476011113       -0.54350402948094       -1.54191104248304
C           -1.00836759232799        0.47500484749731       -2.01841481288691
C            0.40167878482585       -1.48674059670114       -2.67083053081705
N            1.10758476041000        0.13451654911211       -0.95167453181292
C            2.41227605213897       -0.29760412159469       -0.87597787613848
O            2.83419962478053       -1.32365594451746       -1.35856451718977
C            3.21893203800398        0.67636470886487       -0.12094263433738
N            2.77037081740997        1.75768640731353        0.44974798081179
N            3.82746232585641        2.34700489517447        1.05672009904930
C            4.86297244534794        1.59028057525257        0.82255630074559
C            6.25558674813248        1.80569192390203        1.26791118831921
O            4.53784450211141        0.52200649326373        0.08454878739532
N           -1.09320477941840       -0.49351327070315        0.58280488354467
H           -3.68859179226284        2.10885832962317        3.84648596066404
H           -5.17328579174614        2.45347356551826        2.90159385025976
H           -3.62999737547789        3.26865005116376        2.48779998942742
H           -4.85437507789727        0.18582184909393        0.83522109308523
H           -1.48536519394605       -3.03211838995859       -1.44516343248546
H           -0.14833968139276       -2.99496259442588        1.06422150202414
H            1.10068725415534       -1.75926672022909        0.82949998717147
H            0.83215489922195       -3.00498556557837       -0.41329927780289
H           -0.61292801594864        0.96405966098541       -2.90858297675125
H           -1.94449975614417       -0.01301976242264       -2.28196248350762
H           -1.19885716008903        1.23144881801947       -1.26025986263646
H            1.06424208611549       -0.95054939204248       -3.35023042658232
H            0.92170436021507       -2.37742746975053       -2.33000402313941
H           -0.49475587210690       -1.78334480954081       -3.21162690940950
H            0.88536349565937        0.98007208959927       -0.43817994455072
H            6.65898608195358        0.88361253983529        1.68441073082484
H            6.28344650334737        2.59527212234374        2.01506678901681
H            6.87599327654243        2.09216870498551        0.41766934057216

          :  Hamiltonian                  GFN1-xTB          :
         :: total energy             -83.118819930180 Eh    ::
         :: gradient norm              0.000387269215 Eh/a0 ::
         :: HOMO-LUMO gap              1.028350856502 eV    ::
         :: SCC energy               -83.909050187720 Eh    ::
         :: -> Gsolv                  -0.112168703658 Eh    ::
         :: repulsion energy           0.818786958956 Eh    ::

    * Orbital Energies and Occupations

         #    Occupation            Energy/Eh            Energy/eV
      -------------------------------------------------------------
         1        2.0000           -0.8967403             -24.4015
       ...           ...                  ...                  ...
        55        2.0000           -0.5340119             -14.5312
        56        2.0000           -0.5302644             -14.4292
        57        2.0000           -0.5248727             -14.2825
        58        2.0000           -0.5236446             -14.2491
        59        2.0000           -0.5229367             -14.2298
        60        2.0000           -0.5164279             -14.0527
        61        2.0000           -0.5093533             -13.8602
        62        2.0000           -0.5018348             -13.6556
        63        2.0000           -0.4941385             -13.4462
        64        2.0000           -0.4901341             -13.3372
        65        2.0000           -0.4815541             -13.1038
        66        2.0000           -0.4701777             -12.7942
        67        2.0000           -0.4688687             -12.7586 (HOMO)
        68                         -0.4310775             -11.7302 (LUMO)
        69                         -0.3597652              -9.7897
        70                         -0.3369795              -9.1697
        71                         -0.2807591              -7.6398
        72                         -0.2719239              -7.3994
        73                         -0.2294804              -6.2445
        74                         -0.2220532              -6.0424
        75                         -0.1628137              -4.4304
        76                         -0.1556862              -4.2364
        77                         -0.1516741              -4.1273
        78                         -0.1486284              -4.0444
       ...                                ...                  ...
       136                          0.7234477              19.6860
      -------------------------------------------------------------
                  HL-Gap            0.0377912 Eh            1.0284 eV

Wiberg/Mayer (AO) data.
largest (>0.10) Wiberg bond orders for each atom

     #   Z sym  total        # sym  WBO       # sym  WBO       # sym  WBO
 ---------------------------------------------------------------------------
     1   6 C    3.834 --    27 H    0.985    28 H    0.978    26 H    0.978
                             2 O    0.859
     2   8 O    2.226 --     3 C    1.125     1 C    0.859     4 O    0.144
     3   6 C    3.859 --     4 O    1.708     2 O    1.125     5 C    0.954
     4   8 O    1.971 --     3 C    1.708     2 O    0.144
     5   6 C    3.955 --    25 N    1.500     6 C    1.245     3 C    0.954
     6   6 C    3.834 --     7 O    1.308     5 C    1.245     8 C    0.979
     7   8 O    2.232 --     6 C    1.308    29 H    0.748
     8   6 C    3.917 --     9 O    1.647    10 N    1.192     6 C    0.979
     9   8 O    1.946 --     8 C    1.647    10 N    0.181
    10   7 N    3.426 --     8 C    1.192    11 C    1.000    30 H    0.872
                             9 O    0.181
    11   6 C    3.907 --    25 N    1.159    10 N    1.000    12 C    0.944
                            13 C    0.660
    12   6 C    3.962 --    32 H    0.980    33 H    0.976    31 H    0.974
                            11 C    0.944
    13   6 C    3.901 --    16 N    1.044    14 C    1.004    15 C    1.000
                            11 C    0.660
    14   6 C    3.985 --    13 C    1.004    36 H    0.980    35 H    0.980
                            34 H    0.965
    15   6 C    3.977 --    13 C    1.000    39 H    0.981    38 H    0.969
                            37 H    0.959
    16   7 N    3.383 --    17 C    1.144    13 C    1.044    40 H    0.882
                            18 O    0.133
    17   6 C    3.901 --    18 O    1.644    16 N    1.144    19 C    1.013
    18   8 O    1.946 --    17 C    1.644    16 N    0.133
    19   6 C    3.880 --    20 N    1.581    24 O    1.066    17 C    1.013
    20   7 N    3.026 --    19 C    1.581    21 N    1.227
    21   7 N    2.979 --    22 C    1.574    20 N    1.227
    22   6 C    3.857 --    21 N    1.574    24 O    1.092    23 C    1.035
    23   6 C    3.982 --    22 C    1.035    42 H    0.980    41 H    0.966
                            43 H    0.955
    24   8 O    2.341 --    22 C    1.092    19 C    1.066
    25   7 N    3.034 --     5 C    1.500    11 C    1.159
    26   1 H    1.001 --     1 C    0.978
    27   1 H    1.004 --     1 C    0.985
    28   1 H    1.001 --     1 C    0.978
    29   1 H    0.812 --     7 O    0.748
    30   1 H    0.911 --    10 N    0.872
    31   1 H    0.994 --    12 C    0.974
    32   1 H    0.999 --    12 C    0.980
    33   1 H    0.999 --    12 C    0.976
    34   1 H    0.992 --    14 C    0.965
    35   1 H    0.997 --    14 C    0.980
    36   1 H    0.997 --    14 C    0.980
    37   1 H    0.989 --    15 C    0.959
    38   1 H    1.008 --    15 C    0.969
    39   1 H    0.997 --    15 C    0.981
    40   1 H    0.950 --    16 N    0.882
    41   1 H    0.994 --    23 C    0.966
    42   1 H    0.997 --    23 C    0.980
    43   1 H    0.994 --    23 C    0.955
 ---------------------------------------------------------------------------

           -------------------------------------------------
          | TOTAL ENERGY              -83.118819930180 Eh   |
          | GRADIENT NORM               0.000387269215 Eh/α |
          | HOMO-LUMO GAP               1.028350856502 eV   |
           -------------------------------------------------

 * finished run on 2023/06/20 at 15:30:58.033
