                         Program Version 5.0.1 -  RELEASE  -
|  1> # ORCA input file
|  2> ! SP r2SCAN-3c CPCM
|  3>
|  4> %maxcore 1875.0
|  5> %pal nprocs 4 end
|  6> %cpcm smd true SMDsolvent "DMSO" end
|  7>
|  8> *xyz -2 1
|  9> C      -5.804559    0.889415    0.513925
| 10> O      -4.936553    0.109662   -0.295831
| 11> C      -3.629707    0.082380    0.083278
| 12> O      -3.244306    0.680820    1.079695
| 13> C      -2.741499   -0.630475   -0.922422
| 14> C      -3.445978   -1.819235   -1.580042
| 15> N      -1.530855   -1.083159   -0.258154
| 16> C      -0.620092   -0.204085   -0.049502
| 17> C       0.551846   -0.542432    0.859508
| 18> C       0.260398    0.099664    2.222958
| 19> C       0.691898   -2.061901    1.014798
| 20> N       1.778974    0.061589    0.341909
| 21> C       2.304515   -0.391846   -0.878415
| 22> O       1.612900   -1.001711   -1.718684
| 23> C       3.671751   -0.029924   -1.085658
| 24> N       4.424803   -0.259832   -2.164857
| 25> N       5.666390    0.240171   -1.884612
| 26> C       5.627734    0.735326   -0.691932
| 27> C       6.739064    1.381404    0.049088
| 28> O       4.409842    0.614839   -0.107014
| 29> N      -0.673475    1.072623   -0.509609
| 30> C      -1.492824    1.443820   -1.623587
| 31> O      -1.164591    2.497333   -2.243323
| 32> C      -2.537505    0.540024   -1.927876
| 33> O      -3.343130    0.637571   -2.916600
| 34> H      -5.521207    1.946716    0.487786
| 35> H      -5.777233    0.543591    1.551790
| 36> H      -6.810494    0.767609    0.115261
| 37> H      -4.314995   -1.478885   -2.141994
| 38> H      -3.767754   -2.534737   -0.824551
| 39> H      -2.758776   -2.318715   -2.263281
| 40> H      -0.700304   -0.253592    2.597252
| 41> H       0.221930    1.184147    2.126156
| 42> H       1.036122   -0.160867    2.940749
| 43> H      -0.224855   -2.466537    1.442342
| 44> H       1.525914   -2.295351    1.673760
| 45> H       0.858882   -2.530433    0.045239
| 46> H       2.474384    0.240902    1.049037
| 47> H       7.624173    1.417368   -0.581076
| 48> H       6.463477    2.394094    0.342831
| 49> H       6.966721    0.820218    0.955120
| 50> H       0.128974    1.662433   -0.348513
| 51> **                         ****END OF INPUT****

CARTESIAN COORDINATES (ANGSTROEM)
---------------------------------
  C     -5.804559    0.889415    0.513925
  O     -4.936553    0.109662   -0.295831
  C     -3.629707    0.082380    0.083278
  O     -3.244306    0.680820    1.079695
  C     -2.741499   -0.630475   -0.922422
  C     -3.445978   -1.819235   -1.580042
  N     -1.530855   -1.083159   -0.258154
  C     -0.620092   -0.204085   -0.049502
  C      0.551846   -0.542432    0.859508
  C      0.260398    0.099664    2.222958
  C      0.691898   -2.061901    1.014798
  N      1.778974    0.061589    0.341909
  C      2.304515   -0.391846   -0.878415
  O      1.612900   -1.001711   -1.718684
  C      3.671751   -0.029924   -1.085658
  N      4.424803   -0.259832   -2.164857
  N      5.666390    0.240171   -1.884612
  C      5.627734    0.735326   -0.691932
  C      6.739064    1.381404    0.049088
  O      4.409842    0.614839   -0.107014
  N     -0.673475    1.072623   -0.509609
  C     -1.492824    1.443820   -1.623587
  O     -1.164591    2.497333   -2.243323
  C     -2.537505    0.540024   -1.927876
  O     -3.343130    0.637571   -2.916600
  H     -5.521207    1.946716    0.487786
  H     -5.777233    0.543591    1.551790
  H     -6.810494    0.767609    0.115261
  H     -4.314995   -1.478885   -2.141994
  H     -3.767754   -2.534737   -0.824551
  H     -2.758776   -2.318715   -2.263281
  H     -0.700304   -0.253592    2.597252
  H      0.221930    1.184147    2.126156
  H      1.036122   -0.160867    2.940749
  H     -0.224855   -2.466537    1.442342
  H      1.525914   -2.295351    1.673760
  H      0.858882   -2.530433    0.045239
  H      2.474384    0.240902    1.049037
  H      7.624173    1.417368   -0.581076
  H      6.463477    2.394094    0.342831
  H      6.966721    0.820218    0.955120
  H      0.128974    1.662433   -0.348513

 Total Charge           Charge          ....   -2
 Multiplicity           Mult            ....    1
 Number of Electrons    NEL             ....  186
 Basis Dimension        Dim             ....  615

ORBITAL ENERGIES
----------------

  NO   OCC          E(Eh)            E(eV)
   0   2.0000     -19.016989      -517.4786
   1   2.0000     -18.967847      -516.1413
   2   2.0000     -18.901191      -514.3275
   3   2.0000     -18.889608      -514.0124
   4   2.0000     -18.856439      -513.1098
   5   2.0000     -18.847998      -512.8801
   6   2.0000     -14.167918      -385.5286
   7   2.0000     -14.159495      -385.2995
   8   2.0000     -14.156129      -385.2079
   9   2.0000     -14.150926      -385.0663
  10   2.0000     -14.101046      -383.7090
  11   2.0000     -10.116951      -275.2962
  12   2.0000     -10.108076      -275.0547
  13   2.0000     -10.099928      -274.8330
  14   2.0000     -10.089229      -274.5419
  15   2.0000     -10.069964      -274.0177
  16   2.0000     -10.069165      -273.9959
  17   2.0000     -10.059708      -273.7386
  18   2.0000     -10.055957      -273.6365
  19   2.0000     -10.044903      -273.3357
  20   2.0000     -10.030852      -272.9534
  21   2.0000     -10.023392      -272.7504
  22   2.0000     -10.011020      -272.4137
  23   2.0000      -9.999866      -272.1102
  24   2.0000      -9.993474      -271.9362
  25   2.0000      -1.096707       -29.8429
  26   2.0000      -1.035423       -28.1753
  27   2.0000      -0.965746       -26.2793
  28   2.0000      -0.945659       -25.7327
  29   2.0000      -0.935911       -25.4674
  30   2.0000      -0.930436       -25.3184
  31   2.0000      -0.893075       -24.3018
  32   2.0000      -0.888515       -24.1777
  33   2.0000      -0.862143       -23.4601
  34   2.0000      -0.807730       -21.9794
  35   2.0000      -0.788781       -21.4638
  36   2.0000      -0.741802       -20.1855
  37   2.0000      -0.707802       -19.2603
  38   2.0000      -0.686415       -18.6783
  39   2.0000      -0.658770       -17.9260
  40   2.0000      -0.643479       -17.5100
  41   2.0000      -0.633391       -17.2355
  42   2.0000      -0.629082       -17.1182
  43   2.0000      -0.573690       -15.6109
  44   2.0000      -0.566646       -15.4192
  45   2.0000      -0.560246       -15.2451
  46   2.0000      -0.538573       -14.6553
  47   2.0000      -0.506345       -13.7783
  48   2.0000      -0.504837       -13.7373
  49   2.0000      -0.486109       -13.2277
  50   2.0000      -0.461816       -12.5666
  51   2.0000      -0.454633       -12.3712
  52   2.0000      -0.449513       -12.2319
  53   2.0000      -0.439597       -11.9621
  54   2.0000      -0.426516       -11.6061
  55   2.0000      -0.418568       -11.3898
  56   2.0000      -0.414707       -11.2847
  57   2.0000      -0.407039       -11.0761
  58   2.0000      -0.397577       -10.8186
  59   2.0000      -0.384148       -10.4532
  60   2.0000      -0.380732       -10.3602
  61   2.0000      -0.378215       -10.2917
  62   2.0000      -0.370940       -10.0938
  63   2.0000      -0.364002        -9.9050
  64   2.0000      -0.362758        -9.8711
  65   2.0000      -0.357044        -9.7157
  66   2.0000      -0.348170        -9.4742
  67   2.0000      -0.340783        -9.2732
  68   2.0000      -0.339067        -9.2265
  69   2.0000      -0.333224        -9.0675
  70   2.0000      -0.328912        -8.9502
  71   2.0000      -0.323880        -8.8132
  72   2.0000      -0.320999        -8.7348
  73   2.0000      -0.316126        -8.6022
  74   2.0000      -0.307635        -8.3712
  75   2.0000      -0.305654        -8.3173
  76   2.0000      -0.300713        -8.1828
  77   2.0000      -0.295557        -8.0425
  78   2.0000      -0.289581        -7.8799
  79   2.0000      -0.282139        -7.6774
  80   2.0000      -0.275674        -7.5015
  81   2.0000      -0.248583        -6.7643
  82   2.0000      -0.236265        -6.4291
  83   2.0000      -0.235234        -6.4011
  84   2.0000      -0.224935        -6.1208
  85   2.0000      -0.222974        -6.0674
  86   2.0000      -0.214583        -5.8391
  87   2.0000      -0.208228        -5.6662
  88   2.0000      -0.200134        -5.4459
  89   2.0000      -0.185722        -5.0537
  90   2.0000      -0.176221        -4.7952
  91   2.0000      -0.144310        -3.9269
  92   2.0000      -0.065546        -1.7836
  93   0.0000      -0.065114        -1.7719
  94   0.0000       0.002634         0.0717
  95   0.0000       0.008517         0.2318
  96   0.0000       0.036260         0.9867
  97   0.0000       0.068015         1.8508

MULLIKEN ATOMIC CHARGES
-----------------------
   0 C :   -0.345749
   1 O :   -0.147134
   2 C :    0.163228
   3 O :   -0.423708
   4 C :    0.283251
   5 C :   -0.649166
   6 N :   -0.260755
   7 C :    0.228049
   8 C :    0.219735
   9 C :   -0.602658
  10 C :   -0.681533
  11 N :   -0.269421
  12 C :   -0.312863
  13 O :   -0.454970
  14 C :    0.358521
  15 N :   -0.253659
  16 N :   -0.291970
  17 C :    0.325436
  18 C :   -0.647786
  19 O :   -0.095450
  20 N :   -0.095216
  21 C :   -0.242082
  22 O :   -0.440094
  23 C :   -0.181064
  24 O :   -0.413864
  25 H :    0.163155
  26 H :    0.163628
  27 H :    0.162850
  28 H :    0.183016
  29 H :    0.160524
  30 H :    0.159090
  31 H :    0.190938
  32 H :    0.178491
  33 H :    0.175259
  34 H :    0.175109
  35 H :    0.173126
  36 H :    0.197256
  37 H :    0.308645
  38 H :    0.193702
  39 H :    0.184380
  40 H :    0.185253
  41 H :    0.276499
Sum of atomic charges:   -2.0000000

LOEWDIN ATOMIC CHARGES
----------------------
   0 C :   -0.059427
   1 O :   -0.617488
   2 C :    0.385739
   3 O :   -0.468595
   4 C :    0.105199
   5 C :   -0.365276
   6 N :   -0.655637
   7 C :    0.322199
   8 C :    0.096984
   9 C :   -0.352581
  10 C :   -0.367340
  11 N :   -0.643070
  12 C :    0.324959
  13 O :   -0.526955
  14 C :    0.354176
  15 N :   -0.425813
  16 N :   -0.429285
  17 C :    0.332892
  18 C :   -0.331931
  19 O :   -0.448229
  20 N :   -0.551322
  21 C :    0.280110
  22 O :   -0.600028
  23 C :    0.153799
  24 O :   -0.662050
  25 H :    0.172092
  26 H :    0.173693
  27 H :    0.177080
  28 H :    0.177647
  29 H :    0.157576
  30 H :    0.158748
  31 H :    0.173622
  32 H :    0.169854
  33 H :    0.163994
  34 H :    0.169656
  35 H :    0.158966
  36 H :    0.178180
  37 H :    0.286566
  38 H :    0.183458
  39 H :    0.179716
  40 H :    0.179901
  41 H :    0.288224

  Mayer bond orders larger than 0.100000
B(  0-C ,  1-O ) :   0.8399 B(  0-C , 25-H ) :   0.9618 B(  0-C , 26-H ) :   0.9651
B(  0-C , 27-H ) :   0.9676 B(  1-O ,  2-C ) :   1.0459 B(  2-C ,  3-O ) :   1.7949
B(  2-C ,  4-C ) :   1.0082 B(  4-C ,  5-C ) :   0.7717 B(  4-C ,  6-N ) :   0.8302
B(  4-C , 20-N ) :   0.1380 B(  4-C , 23-C ) :   0.5929 B(  5-C , 28-H ) :   1.0050
B(  5-C , 29-H ) :   0.9814 B(  5-C , 30-H ) :   0.9918 B(  6-N ,  7-C ) :   1.8950
B(  7-C ,  8-C ) :   0.8292 B(  7-C , 20-N ) :   1.0955 B(  8-C ,  9-C ) :   0.8849
B(  8-C , 10-C ) :   0.8201 B(  8-C , 11-N ) :   0.7596 B(  9-C , 31-H ) :   0.9721
B(  9-C , 32-H ) :   0.9682 B(  9-C , 33-H ) :   0.9711 B( 10-C , 34-H ) :   0.9620
B( 10-C , 35-H ) :   0.9816 B( 10-C , 36-H ) :   0.9840 B( 11-N , 12-C ) :   1.0628
B( 11-N , 37-H ) :   0.8907 B( 12-C , 13-O ) :   1.8712 B( 12-C , 14-C ) :   0.7708
B( 13-O , 14-C ) :  -0.1565 B( 14-C , 15-N ) :   1.5455 B( 14-C , 17-C ) :   0.1022
B( 14-C , 19-O ) :   1.0099 B( 15-N , 16-N ) :   1.3362 B( 16-N , 17-C ) :   1.6967
B( 17-C , 18-C ) :   0.8092 B( 17-C , 19-O ) :   1.0255 B( 18-C , 38-H ) :   1.0004
B( 18-C , 39-H ) :   0.9510 B( 18-C , 40-H ) :   0.9499 B( 20-N , 21-C ) :   0.8734
B( 20-N , 23-C ) :  -0.1118 B( 20-N , 41-H ) :   0.8839 B( 21-C , 22-O ) :   2.1109
B( 21-C , 23-C ) :   0.9991 B( 22-O , 23-C ) :  -0.1522 B( 23-C , 24-O ) :   1.7706

Dispersion correction           -0.019993049
FINAL SINGLE POINT ENERGY     -1268.832003906650

DIPOLE MOMENT
-------------
                                X             Y             Z
Electronic contribution:      6.10651       4.66165     -10.40509
Nuclear contribution   :     -3.42345      -5.00906      17.67165
                        -----------------------------------------
Total Dipole Moment    :      2.68306      -0.34741       7.26656
                        -----------------------------------------
Magnitude (a.u.)       :      7.75386
Magnitude (Debye)      :     19.70874

Rotational constants in cm-1:     0.017907     0.003621     0.003452
Rotational constants in MHz :   536.830016   108.545750   103.492585

                             ****ORCA TERMINATED NORMALLY****
TOTAL RUN TIME: 0 days 0 hours 2 minutes 33 seconds 951 msec
