   * xtb version 6.5.1 (579679a) compiled by 'ehlert@majestix' on 2022-07-11
          program call               : /lustre/hpc/kemi/ree/PhD/git/ReactivityQM/dep/xtb-6.5.1/bin/xtb --gfn 1 /lustre/hpc/kemi/ree/PhD/git/ReactivityQM/calculations/R02oxygendeprot/reac01prodE04/conf06/R02oxygendeprot_reac01prodE04_conf06_gfn1.xyz --opt --vfukui --chrg -2 --uhf 0 --alpb DMSO

   ID    Z sym.   atoms
    1    6 C      1, 3, 5, 6, 8-11, 13, 15, 18, 19, 22, 24
    2    8 O      2, 4, 14, 20, 23, 25
    3    7 N      7, 12, 16, 17, 21
    4    1 H      26-42

      * Solvation model:               ALPB
        Solvent                        DMSO
        Solvent mass                       7.8130E+01 g/mol
          :  Hamiltonian                  GFN1-xTB          :
 * total energy  :   -83.5753549 Eh     change       -0.1332978E-10 Eh
 * total energy  :   -83.5957751 Eh     change       -0.2042017E-01 Eh
 * total energy  :   -83.6025658 Eh     change       -0.6790668E-02 Eh
 * total energy  :   -83.6041810 Eh     change       -0.1615251E-02 Eh
 * total energy  :   -83.6055825 Eh     change       -0.1401460E-02 Eh
 * total energy  :   -83.6063660 Eh     change       -0.7835157E-03 Eh
 * total energy  :   -83.6069341 Eh     change       -0.5681401E-03 Eh
 * total energy  :   -83.6074811 Eh     change       -0.5469857E-03 Eh
 * total energy  :   -83.6079955 Eh     change       -0.5143736E-03 Eh
 * total energy  :   -83.6084681 Eh     change       -0.4726602E-03 Eh
 * total energy  :   -83.6180681 Eh     change       -0.2915337E-04 Eh
 * total energy  :   -83.6180814 Eh     change       -0.1333139E-04 Eh
 * total energy  :   -83.6180972 Eh     change       -0.1579496E-04 Eh
 * total energy  :   -83.6181242 Eh     change       -0.2701359E-04 Eh
 * total energy  :   -83.6181443 Eh     change       -0.2007487E-04 Eh
 * total energy  :   -83.6181691 Eh     change       -0.2486444E-04 Eh
 * total energy  :   -83.6181868 Eh     change       -0.1760534E-04 Eh
 * total energy  :   -83.6181958 Eh     change       -0.9087946E-05 Eh
 * total energy  :   -83.6182004 Eh     change       -0.4544142E-05 Eh
   *** GEOMETRY OPTIMIZATION CONVERGED AFTER 62 ITERATIONS ***

 final structure:
================
42
 xtb: 6.5.1 (579679a)
C           -5.80455927547531        0.88941512878442        0.51392508516481
O           -4.93655266543936        0.10966158666569       -0.29583113613724
C           -3.62970742929074        0.08238026595089        0.08327817929507
O           -3.24430557023808        0.68081977216456        1.07969506994377
C           -2.74149937466036       -0.63047532174177       -0.92242158633523
C           -3.44597821043173       -1.81923491437890       -1.58004238439412
N           -1.53085467648033       -1.08315903518996       -0.25815356886948
C           -0.62009208351731       -0.20408456211962       -0.04950245584551
C            0.55184626063946       -0.54243150734112        0.85950750305821
C            0.26039818871647        0.09966355337523        2.22295800550833
C            0.69189791273451       -2.06190100867601        1.01479811917375
N            1.77897439610333        0.06158898824034        0.34190863599929
C            2.30451484051324       -0.39184646337250       -0.87841486309307
O            1.61289973802039       -1.00171065498220       -1.71868423467258
C            3.67175140070732       -0.02992440421582       -1.08565844024220
N            4.42480286457730       -0.25983163525245       -2.16485714287535
N            5.66639043847165        0.24017101481608       -1.88461230141097
C            5.62773414657302        0.73532577529703       -0.69193155643005
C            6.73906381479347        1.38140440891894        0.04908817013968
O            4.40984187411916        0.61483879765160       -0.10701425464875
N           -0.67347510811250        1.07262339287052       -0.50960909277532
C           -1.49282411889663        1.44382033659546       -1.62358688777180
O           -1.16459130685303        2.49733307957038       -2.24332291637904
C           -2.53750471438838        0.54002360000245       -1.92787561684028
O           -3.34312975008590        0.63757088472126       -2.91659969737452
H           -5.52120665071068        1.94671582438532        0.48778614179086
H           -5.77723348991550        0.54359081783530        1.55179038853154
H           -6.81049419862480        0.76760910896589        0.11526143243308
H           -4.31499498762911       -1.47888481399866       -2.14199356440108
H           -3.76775433789795       -2.53473740753214       -0.82455101564323
H           -2.75877609923496       -2.31871488056588       -2.26328108180766
H           -0.70030431495070       -0.25359181034671        2.59725197029893
H            0.22192952058600        1.18414728934165        2.12615554780640
H            1.03612169120225       -0.16086713731243        2.94074943349633
H           -0.22485476847463       -2.46653657897264        1.44234233271694
H            1.52591439842878       -2.29535097116927        1.67376042785519
H            0.85888246733478       -2.53043298887806        0.04523915588980
H            2.47438385547156        0.24090162052021        1.04903711857461
H            7.62417323526629        1.41736807786395       -0.58107631570733
H            6.46347699261809        2.39409430775351        0.34283093397995
H            6.96672068575490        0.82021786684042        0.95512016841711
H            0.12897440867885        1.66243259691144       -0.34851270642118

          :  Hamiltonian                  GFN1-xTB          :
         :: total energy             -83.618200383480 Eh    ::
         :: gradient norm              0.000904994865 Eh/a0 ::
         :: HOMO-LUMO gap              0.036198078572 eV    ::
         :: SCC energy               -84.346007498310 Eh    ::
         :: -> Gsolv                  -0.298456116624 Eh    ::
         :: repulsion energy           0.754946347389 Eh    ::

    * Orbital Energies and Occupations

         #    Occupation            Energy/Eh            Energy/eV
      -------------------------------------------------------------
         1        2.0000           -0.8025413             -21.8383
       ...           ...                  ...                  ...
        56        2.0000           -0.4426403             -12.0449
        57        2.0000           -0.4403062             -11.9813
        58        2.0000           -0.4277949             -11.6409
        59        2.0000           -0.4224895             -11.4965
        60        2.0000           -0.4094252             -11.1410
        61        2.0000           -0.4041835             -10.9984
        62        2.0000           -0.4028501             -10.9621
        63        2.0000           -0.3980064             -10.8303
        64        2.0000           -0.3896326             -10.6024
        65        2.0000           -0.3765050             -10.2452
        66        2.0000           -0.3711640             -10.0999
        67        2.0000           -0.3432451              -9.3402
        68        1.3364           -0.2677324              -7.2854 (HOMO)
        69        0.6636           -0.2664022              -7.2492 (LUMO)
        70                         -0.2190826              -5.9615
        71                         -0.2098162              -5.7094
        72                         -0.1971089              -5.3636
        73                         -0.1399513              -3.8083
        74                         -0.1233361              -3.3561
        75                         -0.1218436              -3.3155
        76                         -0.1121231              -3.0510
        77                         -0.1029132              -2.8004
        78                         -0.0946591              -2.5758
        79                         -0.0885092              -2.4085
       ...                                ...                  ...
       134                          0.7142227              19.4350
      -------------------------------------------------------------
                  HL-Gap            0.0013303 Eh            0.0362 eV

Wiberg/Mayer (AO) data.
largest (>0.10) Wiberg bond orders for each atom

     #   Z sym  total        # sym  WBO       # sym  WBO       # sym  WBO
 ---------------------------------------------------------------------------
     1   6 C    3.898 --    28 H    0.987    27 H    0.981    26 H    0.981
                             2 O    0.923
     2   8 O    2.148 --     3 C    1.039     1 C    0.923     4 O    0.106
     3   6 C    3.773 --     4 O    1.588     2 O    1.039     5 C    0.945
     4   8 O    1.847 --     3 C    1.588     2 O    0.106
     5   6 C    3.960 --     6 C    0.992     7 N    0.982     3 C    0.945
                            24 C    0.875
     6   6 C    3.991 --     5 C    0.992    30 H    0.989    31 H    0.987
                            29 H    0.984
     7   7 N    2.938 --     8 C    1.654     5 C    0.982    21 N    0.144
     8   6 C    3.931 --     7 N    1.654    21 N    1.176     9 C    0.969
     9   6 C    3.951 --    11 C    0.991    10 C    0.986     8 C    0.969
                            12 N    0.946
    10   6 C    3.995 --     9 C    0.986    33 H    0.985    32 H    0.985
                            34 H    0.985
    11   6 C    3.993 --     9 C    0.991    36 H    0.988    35 H    0.985
                            37 H    0.981
    12   7 N    3.149 --    13 C    1.077     9 C    0.946    38 H    0.918
                            14 O    0.109
    13   6 C    3.753 --    14 O    1.458    15 C    1.151    12 N    1.077
    14   8 O    1.680 --    13 C    1.458    12 N    0.109
    15   6 C    3.693 --    16 N    1.404    13 C    1.151    20 O    0.968
    16   7 N    2.728 --    15 C    1.404    17 N    1.189
    17   7 N    2.981 --    18 C    1.628    16 N    1.189
    18   6 C    3.813 --    17 N    1.628    20 O    1.042    19 C    1.024
    19   6 C    3.994 --    18 C    1.024    39 H    0.986    40 H    0.971
                            41 H    0.970
    20   8 O    2.180 --    18 C    1.042    15 C    0.968
    21   7 N    3.328 --     8 C    1.176    22 C    0.968    42 H    0.912
                             7 N    0.144
    22   6 C    3.751 --    23 O    1.390    24 C    1.240    21 N    0.968
    23   8 O    1.603 --    22 C    1.390
    24   6 C    3.727 --    25 O    1.368    22 C    1.240     5 C    0.875
    25   8 O    1.572 --    24 C    1.368
    26   1 H    1.012 --     1 C    0.981
    27   1 H    1.014 --     1 C    0.981
    28   1 H    1.016 --     1 C    0.987
    29   1 H    1.028 --     6 C    0.984
    30   1 H    1.011 --     6 C    0.989
    31   1 H    1.013 --     6 C    0.987
    32   1 H    1.011 --    10 C    0.985
    33   1 H    1.007 --    10 C    0.985
    34   1 H    1.002 --    10 C    0.985
    35   1 H    1.019 --    11 C    0.985
    36   1 H    1.005 --    11 C    0.988
    37   1 H    1.021 --    11 C    0.981
    38   1 H    0.960 --    12 N    0.918
    39   1 H    1.004 --    19 C    0.986
    40   1 H    1.000 --    19 C    0.971
    41   1 H    1.000 --    19 C    0.970
    42   1 H    0.974 --    21 N    0.912
 ---------------------------------------------------------------------------

           -------------------------------------------------
          | TOTAL ENERGY              -83.618200383480 Eh   |
          | GRADIENT NORM               0.000904994865 Eh/α |
          | HOMO-LUMO GAP               0.036198078572 eV   |
           -------------------------------------------------

 * finished run on 2023/06/21 at 17:04:35.957
