   * xtb version 6.5.1 (579679a) compiled by 'ehlert@majestix' on 2022-07-11
          program call               : /lustre/hpc/kemi/ree/PhD/git/ReactivityQM/dep/xtb-6.5.1/bin/xtb --gfn 1 /lustre/hpc/kemi/ree/PhD/git/ReactivityQM/calculations/R02oxygendeprot/reac01/conf14/R02oxygendeprot_reac01_conf14_gfn1.xyz --opt --vfukui --chrg -1 --uhf 0 --alpb DMSO

   ID    Z sym.   atoms
    1    6 C      1, 3, 5, 7-10, 12, 14, 17, 18, 21, 23
    2    8 O      2, 4, 13, 19, 22, 24
    3    7 N      6, 11, 15, 16, 20
    4    1 H      25-38

      * Solvation model:               ALPB
        Solvent                        DMSO
        Solvent mass                       7.8130E+01 g/mol
          :  Hamiltonian                  GFN1-xTB          :
 * total energy  :   -79.6000332 Eh     change       -0.3419132E-10 Eh
 * total energy  :   -79.6133033 Eh     change       -0.1327017E-01 Eh
 * total energy  :   -79.6187615 Eh     change       -0.5458197E-02 Eh
 * total energy  :   -79.6197506 Eh     change       -0.9890576E-03 Eh
 * total energy  :   -79.6202341 Eh     change       -0.4835272E-03 Eh
 * total energy  :   -79.6203937 Eh     change       -0.1595708E-03 Eh
 * total energy  :   -79.6204981 Eh     change       -0.1043916E-03 Eh
 * total energy  :   -79.6205849 Eh     change       -0.8677991E-04 Eh
 * total energy  :   -79.6206737 Eh     change       -0.8883415E-04 Eh
 * total energy  :   -79.6207576 Eh     change       -0.8387183E-04 Eh
 * total energy  :   -79.6213947 Eh     change       -0.1050483E-04 Eh
 * total energy  :   -79.6214074 Eh     change       -0.1262216E-04 Eh
 * total energy  :   -79.6214172 Eh     change       -0.9884398E-05 Eh
 * total energy  :   -79.6214259 Eh     change       -0.8620678E-05 Eh
 * total energy  :   -79.6214397 Eh     change       -0.1385259E-04 Eh
 * total energy  :   -79.6214464 Eh     change       -0.6716311E-05 Eh
 * total energy  :   -79.6214621 Eh     change       -0.1570307E-04 Eh
 * total energy  :   -79.6214695 Eh     change       -0.7410168E-05 Eh
 * total energy  :   -79.6214743 Eh     change       -0.4770247E-05 Eh
   *** GEOMETRY OPTIMIZATION CONVERGED AFTER 40 ITERATIONS ***

 final structure:
================
38
 xtb: 6.5.1 (579679a)
C            6.06461418142380        1.83251544288079        1.49346584955051
O            5.08333348878422        1.51939697860665        0.51625302621223
C            4.02645425243546        0.78686747718164        0.95236954748795
O            3.95440989968330        0.43549036199228        2.12504337982996
C            3.03659193711512        0.48016148626710       -0.06821637788246
N            1.98021605828959       -0.26709258572442        0.41964330470862
C            1.01923736997163       -0.62843752744470       -0.34743817444677
C           -0.11436904228639       -1.47048961872720        0.21769431847942
C           -0.27298587126287       -2.78447287262794       -0.55659686937950
C            0.17722726122256       -1.77062006968628        1.68977928333515
N           -1.37751572900995       -0.70674638342303        0.19037360045922
C           -2.13765796982683       -0.47074065288801       -0.89161796336177
O           -1.86216389592552       -0.75486487142836       -2.04695191354203
C           -3.39933881816219        0.22088296833600       -0.51157801602536
N           -3.74297236892305        0.58604909728390        0.68709406651415
N           -4.96679117929120        1.17719191045445        0.58226416168463
C           -5.29142407201396        1.13367588704918       -0.67387327779670
C           -6.52999247064839        1.63972645589640       -1.30485549259613
O           -4.34189983053082        0.54413688865942       -1.41533593238405
N            0.99245220514201       -0.29278991901104       -1.68327185612991
C            1.96172180831401        0.45362252392843       -2.29868548997009
O            1.85919005065829        0.72845529709488       -3.49284739373417
C            3.11740640458017        0.89056993258816       -1.42453271180671
O            4.03087582144816        1.56243143885591       -1.93893679274548
H            5.62118813037764        2.38855979286052        2.32567395719751
H            6.82074420231880        2.44472735420455        1.00335506164752
H            6.52551350081776        0.92079174617416        1.88661559882638
H            0.63214792110056       -3.37868556304592       -0.43911525280670
H           -0.43937186153846       -2.60654544467005       -1.61664281818231
H           -1.11717688234104       -3.34552710610382       -0.15936192611056
H           -0.62938241907852       -2.36205444143466        2.11813935601999
H            1.10929878224611       -2.32795800211110        1.77001979682089
H            0.28213349652678       -0.84285476841008        2.25127952879732
H           -1.76320273491467       -0.44573153570866        1.08537855094752
H           -7.18657497205862        2.05057803062204       -0.54224865142916
H           -6.28952883932844        2.41289712349993       -2.03460969489860
H           -7.03854100918784        0.82985894083083       -1.82749137886502
H            0.20613319388376       -0.58297377281683       -2.25014740441807

          :  Hamiltonian                  GFN1-xTB          :
         :: total energy             -79.621474307732 Eh    ::
         :: gradient norm              0.000637989981 Eh/a0 ::
         :: HOMO-LUMO gap              1.578284093677 eV    ::
         :: SCC energy               -80.347006312701 Eh    ::
         :: -> Gsolv                  -0.124846563342 Eh    ::
         :: repulsion energy           0.748403331225 Eh    ::

    * Orbital Energies and Occupations

         #    Occupation            Energy/Eh            Energy/eV
      -------------------------------------------------------------
         1        2.0000           -0.8607716             -23.4228
       ...           ...                  ...                  ...
        52        2.0000           -0.4863135             -13.2333
        53        2.0000           -0.4794700             -13.0470
        54        2.0000           -0.4641779             -12.6309
        55        2.0000           -0.4609175             -12.5422
        56        2.0000           -0.4571514             -12.4397
        57        2.0000           -0.4529336             -12.3249
        58        2.0000           -0.4484393             -12.2027
        59        2.0000           -0.4431357             -12.0583
        60        2.0000           -0.4357709             -11.8579
        61        2.0000           -0.4348576             -11.8331
        62        2.0000           -0.4130979             -11.2410
        63        2.0000           -0.3762794             -10.2391
        64        2.0000           -0.3641666              -9.9095 (HOMO)
        65                         -0.3061658              -8.3312 (LUMO)
        66                         -0.2676271              -7.2825
        67                         -0.2543940              -6.9224
        68                         -0.2378217              -6.4715
        69                         -0.1948545              -5.3023
        70                         -0.1943430              -5.2883
        71                         -0.1410769              -3.8389
        72                         -0.1214048              -3.3036
        73                         -0.1196766              -3.2566
        74                         -0.1170802              -3.1859
        75                         -0.1067565              -2.9050
       ...                                ...                  ...
       124                          0.7566156              20.5886
      -------------------------------------------------------------
                  HL-Gap            0.0580009 Eh            1.5783 eV

Wiberg/Mayer (AO) data.
largest (>0.10) Wiberg bond orders for each atom

     #   Z sym  total        # sym  WBO       # sym  WBO       # sym  WBO
 ---------------------------------------------------------------------------
     1   6 C    3.899 --    26 H    0.987    27 H    0.980    25 H    0.980
                             2 O    0.926
     2   8 O    2.159 --     3 C    1.046     1 C    0.926     4 O    0.109
     3   6 C    3.850 --     4 O    1.573     5 C    1.116     2 O    1.046
     4   8 O    1.849 --     3 C    1.573     2 O    0.109
     5   6 C    3.914 --    23 C    1.271     6 N    1.153     3 C    1.116
                            24 O    0.128
     6   7 N    3.031 --     7 C    1.631     5 C    1.153
     7   6 C    3.934 --     6 N    1.631    20 N    1.104     8 C    0.968
     8   6 C    3.929 --    10 C    1.002     9 C    0.989     7 C    0.968
                            11 N    0.905
     9   6 C    3.990 --     8 C    0.989    28 H    0.985    30 H    0.985
                            29 H    0.979
    10   6 C    3.993 --     8 C    1.002    31 H    0.986    32 H    0.983
                            33 H    0.983
    11   7 N    3.357 --    12 C    1.278     8 C    0.905    34 H    0.897
                            13 O    0.181
    12   6 C    3.919 --    13 O    1.571    11 N    1.278    14 C    0.986
    13   8 O    1.913 --    12 C    1.571    11 N    0.181
    14   6 C    3.873 --    15 N    1.612    19 O    1.065    12 C    0.986
    15   7 N    3.015 --    14 C    1.612    16 N    1.197
    16   7 N    2.980 --    17 C    1.608    15 N    1.197
    17   6 C    3.872 --    16 N    1.608    19 O    1.082    18 C    1.031
    18   6 C    3.987 --    17 C    1.031    35 H    0.983    37 H    0.964
                            36 H    0.963
    19   8 O    2.330 --    17 C    1.082    14 C    1.065
    20   7 N    3.435 --    21 C    1.169     7 C    1.104    38 H    0.878
                            22 O    0.136
    21   6 C    3.882 --    22 O    1.574    20 N    1.169    23 C    0.968
    22   8 O    1.854 --    21 C    1.574    20 N    0.136
    23   6 C    3.943 --    24 O    1.519     5 C    1.271    21 C    0.968
    24   8 O    1.823 --    23 C    1.519     5 C    0.128
    25   1 H    1.014 --     1 C    0.980
    26   1 H    1.016 --     1 C    0.987
    27   1 H    1.014 --     1 C    0.980
    28   1 H    1.003 --     9 C    0.985
    29   1 H    1.011 --     9 C    0.979
    30   1 H    1.001 --     9 C    0.985
    31   1 H    1.001 --    10 C    0.986
    32   1 H    1.011 --    10 C    0.983
    33   1 H    1.011 --    10 C    0.983
    34   1 H    0.954 --    11 N    0.897
    35   1 H    0.999 --    18 C    0.983
    36   1 H    0.997 --    18 C    0.963
    37   1 H    0.997 --    18 C    0.964
    38   1 H    0.953 --    20 N    0.878
 ---------------------------------------------------------------------------

           -------------------------------------------------
          | TOTAL ENERGY              -79.621474307732 Eh   |
          | GRADIENT NORM               0.000637989981 Eh/α |
          | HOMO-LUMO GAP               1.578284093677 eV   |
           -------------------------------------------------

 * finished run on 2023/06/21 at 17:00:42.442
