   * xtb version 6.5.1 (579679a) compiled by 'ehlert@majestix' on 2022-07-11
          program call               : /lustre/hpc/kemi/ree/PhD/git/ReactivityQM/dep/xtb-6.5.1/bin/xtb --gfn 1 /lustre/hpc/kemi/ree/PhD/git/ReactivityQM/calculations/RaltegravirCLI/reac02prodN05/conf20/RaltegravirCLI_reac02prodN05_conf20_gfn1.xyz --opt --vfukui --chrg 1 --uhf 0 --alpb DMSO

   ID    Z sym.   atoms
    1    6 C      1, 3, 5, 7, 8, 11-15, 17, 18, 20-24
    2    7 N      2, 10, 19, 25
    3    8 O      4, 6, 9
    4    9 F      16
    5    1 H      26-47

      * Solvation model:               ALPB
        Solvent                        DMSO
        Solvent mass                       7.8130E+01 g/mol
          :  Hamiltonian                  GFN1-xTB          :
 * total energy  :   -79.4710142 Eh     change       -0.2305001E-09 Eh
 * total energy  :   -79.4858466 Eh     change       -0.1483241E-01 Eh
 * total energy  :   -79.4917287 Eh     change       -0.5882092E-02 Eh
 * total energy  :   -79.4930374 Eh     change       -0.1308676E-02 Eh
 * total energy  :   -79.4947825 Eh     change       -0.1745091E-02 Eh
 * total energy  :   -79.4958591 Eh     change       -0.1076597E-02 Eh
 * total energy  :   -79.4967689 Eh     change       -0.9097753E-03 Eh
 * total energy  :   -79.4975000 Eh     change       -0.7311056E-03 Eh
 * total energy  :   -79.4975741 Eh     change       -0.7414556E-04 Eh
 * total energy  :   -79.4982960 Eh     change       -0.7219059E-03 Eh
 * total energy  :   -79.5030701 Eh     change       -0.2080163E-04 Eh
 * total energy  :   -79.5030915 Eh     change       -0.2144435E-04 Eh
 * total energy  :   -79.5031161 Eh     change       -0.2459679E-04 Eh
 * total energy  :   -79.5031271 Eh     change       -0.1097762E-04 Eh
 * total energy  :   -79.5031468 Eh     change       -0.1968793E-04 Eh
 * total energy  :   -79.5031569 Eh     change       -0.1016878E-04 Eh
 * total energy  :   -79.5031837 Eh     change       -0.2679660E-04 Eh
 * total energy  :   -79.5031929 Eh     change       -0.9182469E-05 Eh
 * total energy  :   -79.5031970 Eh     change       -0.4088933E-05 Eh
   *** GEOMETRY OPTIMIZATION CONVERGED AFTER 44 ITERATIONS ***

 final structure:
================
47
 xtb: 6.5.1 (579679a)
C           -4.34608444715677       -1.48532996715860        0.42053397194593
N           -2.88277242162271       -1.44424278363670        0.45254328312904
C           -2.27272872487435       -2.24359081492739        1.37482849334444
O           -2.88928133461290       -2.94171564714370        2.15874212436649
C           -0.76430360742050       -2.25150044649657        1.31167435259914
O           -0.08183787685589       -2.90227952217184        2.09713418158167
C           -0.16523370805813       -1.49535693702182        0.22314572518132
C            1.28392686039590       -1.57192358922035        0.03679616520358
O            2.01414989182578       -2.26612685429194        0.84970048971275
N            1.83366157122618       -0.93914361523832       -0.96212042978928
C            3.27815355279650       -0.92044477761989       -1.21257093937920
C            3.90773934386041        0.22362366357378       -0.44802643494172
C            3.95421206195076        1.49645449969586       -1.01157477328385
C            4.51325840425730        2.55447672910191       -0.30949317114420
C            5.01475136139935        2.31002201853053        0.95698947187680
F            5.55589389898212        3.32563709943147        1.64007455795213
C            4.97669079722241        1.05863244412189        1.54650103422927
C            4.41469856538441        0.01090729123653        0.83153683279942
N           -0.84392851486682       -0.76199997914061       -0.60803882851025
C           -2.21034790400302       -0.54515152414190       -0.45586491032146
C           -2.85901335995971       -0.57723312904949       -1.84287943418057
C           -2.30319785201629        0.99923516268581        0.15446034472060
C           -1.85357060421597        0.95837710807487        1.60945751519606
C           -1.39421260185921        1.89504718925635       -0.68306042047444
N           -3.64963539097924        1.41774099652492        0.05659031311186
H           -4.70150001529962       -1.86335645059646        1.37856886260509
H           -4.73071484078494       -0.48277238700387        0.24897963372014
H           -4.67744587447021       -2.14463566505984       -0.38242309780466
H            1.40163173921545       -2.69872458303320        1.54431499302244
H            1.22758438728299       -0.39000423983791       -1.55612571565360
H            3.41494446239617       -0.80007973560947       -2.28800717405032
H            3.68448745323389       -1.88178387994021       -0.89082826681204
H            3.55137630013750        1.66296241019430       -2.00278934329224
H            4.55581591992419        3.54884637679539       -0.73398996076725
H            5.37416351501574        0.90924294676528        2.54207944741418
H            4.36659278213193       -0.97728340305047        1.27230768575621
H           -2.22360290466788       -0.04734237382284       -2.54770000761482
H           -3.84067717550869       -0.11197189461253       -1.82335971493606
H           -2.95125932637167       -1.61274700010761       -2.16636755116834
H           -1.81075403734406        1.97842763360378        1.98874263535577
H           -2.55246943389130        0.38801161748686        2.21894762237321
H           -0.86121102804640        0.51948175116004        1.69560691400794
H           -1.70762774024956        1.91648548098618       -1.72428551982032
H           -0.36597529571404        1.54171948556669       -0.63238874428815
H           -1.44548067135027        2.90865864414467       -0.28640698324313
H           -4.08801062118493        1.68501679379699        0.92101863612719
H           -3.85085655525569        2.04773385719325       -0.70015086586582

          :  Hamiltonian                  GFN1-xTB          :
         :: total energy             -79.503197007427 Eh    ::
         :: gradient norm              0.000481441415 Eh/a0 ::
         :: HOMO-LUMO gap              1.185643908895 eV    ::
         :: SCC energy               -80.391254706977 Eh    ::
         :: -> Gsolv                  -0.112362058054 Eh    ::
         :: repulsion energy           0.920894250220 Eh    ::

    * Orbital Energies and Occupations

         #    Occupation            Energy/Eh            Energy/eV
      -------------------------------------------------------------
         1        2.0000           -0.8750870             -23.8123
       ...           ...                  ...                  ...
        55        2.0000           -0.5269373             -14.3387
        56        2.0000           -0.5266909             -14.3320
        57        2.0000           -0.5223897             -14.2149
        58        2.0000           -0.5116640             -13.9231
        59        2.0000           -0.5084118             -13.8346
        60        2.0000           -0.4950941             -13.4722
        61        2.0000           -0.4913878             -13.3713
        62        2.0000           -0.4869712             -13.2512
        63        2.0000           -0.4683144             -12.7435
        64        2.0000           -0.4654574             -12.6657
        65        2.0000           -0.4555897             -12.3972
        66        2.0000           -0.4522137             -12.3054
        67        2.0000           -0.4377730             -11.9124 (HOMO)
        68                         -0.3942014             -10.7268 (LUMO)
        69                         -0.3506141              -9.5407
        70                         -0.2872935              -7.8177
        71                         -0.2837168              -7.7203
        72                         -0.2717801              -7.3955
        73                         -0.2060645              -5.6073
        74                         -0.1614849              -4.3942
        75                         -0.1530783              -4.1655
        76                         -0.1510145              -4.1093
        77                         -0.1433463              -3.9007
        78                         -0.1411492              -3.8409
       ...                                ...                  ...
       144                          0.7226870              19.6653
      -------------------------------------------------------------
                  HL-Gap            0.0435716 Eh            1.1856 eV

Wiberg/Mayer (AO) data.
largest (>0.10) Wiberg bond orders for each atom

     #   Z sym  total        # sym  WBO       # sym  WBO       # sym  WBO
 ---------------------------------------------------------------------------
     1   6 C    3.918 --    26 H    0.975    28 H    0.972    27 H    0.965
                             2 N    0.932
     2   7 N    3.452 --     3 C    1.216    20 C    0.963     1 C    0.932
                             4 O    0.182
     3   6 C    3.914 --     4 O    1.610     2 N    1.216     5 C    0.948
     4   8 O    1.923 --     3 C    1.610     2 N    0.182
     5   6 C    3.881 --     6 O    1.643     7 C    1.082     3 C    0.948
     6   8 O    2.013 --     5 C    1.643    29 H    0.124
     7   6 C    3.963 --    19 N    1.557     5 C    1.082     8 C    1.059
     8   6 C    3.877 --    10 N    1.473     9 O    1.239     7 C    1.059
     9   8 O    2.155 --     8 C    1.239    29 H    0.685    10 N    0.118
    10   7 N    3.484 --     8 C    1.473    11 C    0.909    30 H    0.878
                             9 O    0.118
    11   6 C    3.910 --    12 C    0.985    31 H    0.971    32 H    0.970
                            10 N    0.909
    12   6 C    3.982 --    13 C    1.418    18 C    1.418    11 C    0.985
    13   6 C    3.993 --    14 C    1.445    12 C    1.418    33 H    0.970
                            17 C    0.110
    14   6 C    3.991 --    13 C    1.445    15 C    1.398    34 H    0.968
                            18 C    0.110
    15   6 C    3.864 --    17 C    1.398    14 C    1.398    16 F    0.936
    16   9 F    1.067 --    15 C    0.936
    17   6 C    3.991 --    18 C    1.445    15 C    1.398    35 H    0.968
                            13 C    0.110
    18   6 C    3.992 --    17 C    1.445    12 C    1.418    36 H    0.969
                            14 C    0.110
    19   7 N    3.060 --     7 C    1.557    20 C    1.101
    20   6 C    3.909 --    19 N    1.101     2 N    0.963    21 C    0.962
                            22 C    0.739
    21   6 C    3.975 --    37 H    0.980    38 H    0.979    39 H    0.979
                            20 C    0.962
    22   6 C    3.937 --    25 N    1.072    23 C    1.004    24 C    0.996
                            20 C    0.739
    23   6 C    3.991 --    22 C    1.004    42 H    0.982    41 H    0.982
                            40 H    0.973
    24   6 C    3.987 --    22 C    0.996    44 H    0.979    43 H    0.978
                            45 H    0.976
    25   7 N    3.135 --    22 C    1.072    47 H    0.911    46 H    0.907
    26   1 H    1.005 --     1 C    0.975
    27   1 H    1.012 --     1 C    0.965
    28   1 H    0.998 --     1 C    0.972
    29   1 H    0.822 --     9 O    0.685     6 O    0.124
    30   1 H    0.935 --    10 N    0.878
    31   1 H    0.997 --    11 C    0.971
    32   1 H    0.998 --    11 C    0.970
    33   1 H    0.997 --    13 C    0.970
    34   1 H    0.996 --    14 C    0.968
    35   1 H    0.996 --    17 C    0.968
    36   1 H    1.002 --    18 C    0.969
    37   1 H    1.003 --    21 C    0.980
    38   1 H    1.003 --    21 C    0.979
    39   1 H    0.996 --    21 C    0.979
    40   1 H    0.997 --    23 C    0.973
    41   1 H    0.998 --    23 C    0.982
    42   1 H    1.001 --    23 C    0.982
    43   1 H    0.998 --    24 C    0.978
    44   1 H    1.009 --    24 C    0.979
    45   1 H    0.997 --    24 C    0.976
    46   1 H    0.932 --    25 N    0.907
    47   1 H    0.934 --    25 N    0.911
 ---------------------------------------------------------------------------

           -------------------------------------------------
          | TOTAL ENERGY              -79.503197007427 Eh   |
          | GRADIENT NORM               0.000481441415 Eh/α |
          | HOMO-LUMO GAP               1.185643908895 eV   |
           -------------------------------------------------

 * finished run on 2023/06/20 at 15:22:25.655
