   * xtb version 6.5.1 (579679a) compiled by 'ehlert@majestix' on 2022-07-11
          program call               : /lustre/hpc/kemi/ree/PhD/git/ReactivityQM/dep/xtb-6.5.1/bin/xtb --gfn 1 /lustre/hpc/kemi/ree/PhD/git/ReactivityQM/calculations/R02deprot/reac01prodN19/conf08/R02deprot_reac01prodN19_conf08_gfn1.xyz --opt --vfukui --chrg 0 --uhf 0 --alpb DMSO

   ID    Z sym.   atoms
    1    6 C      1, 3, 5, 7-10, 12, 14, 17, 18, 21, 23, 24
    2    8 O      2, 4, 13, 19, 22, 25
    3    7 N      6, 11, 15, 16, 20
    4    1 H      26-42

      * Solvation model:               ALPB
        Solvent                        DMSO
        Solvent mass                       7.8130E+01 g/mol
          :  Hamiltonian                  GFN1-xTB          :
 * total energy  :   -82.9883167 Eh     change       -0.5400125E-11 Eh
 * total energy  :   -83.0022328 Eh     change       -0.1391612E-01 Eh
 * total energy  :   -83.0077854 Eh     change       -0.5552599E-02 Eh
 * total energy  :   -83.0087528 Eh     change       -0.9673170E-03 Eh
 * total energy  :   -83.0092979 Eh     change       -0.5451242E-03 Eh
 * total energy  :   -83.0094603 Eh     change       -0.1624369E-03 Eh
 * total energy  :   -83.0095565 Eh     change       -0.9617717E-04 Eh
 * total energy  :   -83.0096172 Eh     change       -0.6066572E-04 Eh
 * total energy  :   -83.0096695 Eh     change       -0.5237704E-04 Eh
 * total energy  :   -83.0097220 Eh     change       -0.5247624E-04 Eh
 * total energy  :   -83.0102382 Eh     change       -0.1489249E-04 Eh
 * total energy  :   -83.0102458 Eh     change       -0.7647881E-05 Eh
 * total energy  :   -83.0102595 Eh     change       -0.1366894E-04 Eh
 * total energy  :   -83.0102656 Eh     change       -0.6121771E-05 Eh
 * total energy  :   -83.0102752 Eh     change       -0.9591937E-05 Eh
 * total energy  :   -83.0102854 Eh     change       -0.1023084E-04 Eh
 * total energy  :   -83.0102959 Eh     change       -0.1047690E-04 Eh
 * total energy  :   -83.0103015 Eh     change       -0.5600007E-05 Eh
 * total energy  :   -83.0103051 Eh     change       -0.3589065E-05 Eh
   *** GEOMETRY OPTIMIZATION CONVERGED AFTER 36 ITERATIONS ***

 final structure:
================
42
 xtb: 6.5.1 (579679a)
C           -6.52126527412598        1.73161998687574        0.86099299434146
O           -5.35678082477779        1.11573122203190        0.28860244800987
C           -4.23339556351251        1.19904867917836        1.01351961546229
O           -4.18416306218043        1.75100027243128        2.08537785114391
C           -3.06144835947769        0.54806071879425        0.35797478496947
N           -1.92696344202980        0.60701958853160        1.08724505910512
C           -0.82643102354085        0.08301909140420        0.60416626853464
C            0.42003204800640        0.13304125750940        1.46488517717943
C            0.37900544045915       -1.05700601641652        2.43828884316065
C            0.48836160707632        1.46201633784600        2.22410018173164
N            1.56762038635620       -0.00084364056838        0.56941736921315
C            2.84898642224077       -0.02060812113741        0.97443763894547
O            3.23814371645122        0.11412233335120        2.12273284343245
C            3.76212737472076       -0.22011142555880       -0.18405211867056
N            3.40301039419014       -0.34858800671698       -1.42643541950084
N            4.54636996562380       -0.50742996460653       -2.15151858214174
C            5.52972448361708       -0.46627140749415       -1.30450567096936
C            6.97475474459267       -0.59588805121430       -1.59490915330280
O            5.09893732785090       -0.28627473985494       -0.04693475278631
N           -0.73628288569959       -0.53605123811348       -0.58470835973792
C           -1.82495682675763       -0.61979169546199       -1.32078097303251
O           -1.78166128221684       -1.23040862226893       -2.50639823404467
C           -0.53771347477565       -1.80512625646717       -2.90016671148015
C           -3.06544514271347       -0.07322593115983       -0.88354528696694
O           -4.11912324290418       -0.20539966490672       -1.70144213164497
H           -6.73874624507405        1.28173591498809        1.83194038380398
H           -6.34986895814022        2.80304722771451        0.98446014990716
H           -7.33962344260833        1.55519090626754        0.16767427233853
H           -0.52440386497247       -0.99693970687343        3.04311756045002
H            1.24954360175128       -1.03660941158081        3.09175478289771
H            0.37237468138568       -1.99150816785687        1.87941656096318
H            1.34629359129046        1.47165365924405        2.89361803098021
H            0.57286715089571        2.28844465124916        1.51993108182277
H           -0.42305505629092        1.58637902133840        2.80709134532910
H            1.36111967713273       -0.17751863839624       -0.40605336910261
H            7.38629032352249       -1.45409158642819       -1.06304052077232
H            7.50565544488359        0.29515916359623       -1.25945004320898
H            7.12063574341549       -0.72622434205092       -2.66453414412770
H           -0.26051220483611       -2.61097327513946       -2.21523580076858
H           -0.68289662329494       -2.19768946852096       -3.90536016140625
H            0.25048637984273       -1.04726627306854       -2.89766819525713
H           -4.92760370537591        0.18555561950673       -1.32740061479895

          :  Hamiltonian                  GFN1-xTB          :
         :: total energy             -83.010305083269 Eh    ::
         :: gradient norm              0.000538078796 Eh/a0 ::
         :: HOMO-LUMO gap              2.910075312104 eV    ::
         :: SCC energy               -83.786016700887 Eh    ::
         :: -> Gsolv                  -0.048303923471 Eh    ::
         :: repulsion energy           0.800831717048 Eh    ::

    * Orbital Energies and Occupations

         #    Occupation            Energy/Eh            Energy/eV
      -------------------------------------------------------------
         1        2.0000           -0.8623572             -23.4659
       ...           ...                  ...                  ...
        55        2.0000           -0.5010833             -13.6352
        56        2.0000           -0.5007832             -13.6270
        57        2.0000           -0.4972957             -13.5321
        58        2.0000           -0.4831161             -13.1463
        59        2.0000           -0.4812769             -13.0962
        60        2.0000           -0.4766372             -12.9700
        61        2.0000           -0.4713403             -12.8258
        62        2.0000           -0.4604733             -12.5301
        63        2.0000           -0.4582606             -12.4699
        64        2.0000           -0.4496727             -12.2362
        65        2.0000           -0.4445712             -12.0974
        66        2.0000           -0.4347035             -11.8289
        67        2.0000           -0.4317346             -11.7481 (HOMO)
        68                         -0.3247913              -8.8380 (LUMO)
        69                         -0.3073745              -8.3641
        70                         -0.2835579              -7.7160
        71                         -0.2559461              -6.9646
        72                         -0.2409534              -6.5567
        73                         -0.1955301              -5.3206
        74                         -0.1570032              -4.2723
        75                         -0.1423882              -3.8746
        76                         -0.1420569              -3.8656
        77                         -0.1381403              -3.7590
        78                         -0.1209380              -3.2909
       ...                                ...                  ...
       134                          0.7263314              19.7645
      -------------------------------------------------------------
                  HL-Gap            0.1069433 Eh            2.9101 eV

Wiberg/Mayer (AO) data.
largest (>0.10) Wiberg bond orders for each atom

     #   Z sym  total        # sym  WBO       # sym  WBO       # sym  WBO
 ---------------------------------------------------------------------------
     1   6 C    3.860 --    28 H    0.986    27 H    0.980    26 H    0.980
                             2 O    0.883
     2   8 O    2.206 --     3 C    1.092     1 C    0.883     4 O    0.132
     3   6 C    3.845 --     4 O    1.677     2 O    1.092     5 C    0.998
     4   8 O    1.939 --     3 C    1.677     2 O    0.132
     5   6 C    3.968 --    24 C    1.400     6 N    1.285     3 C    0.998
     6   7 N    3.032 --     7 C    1.475     5 C    1.285
     7   6 C    3.944 --     6 N    1.475    20 N    1.302     8 C    0.983
     8   6 C    3.935 --    10 C    0.989     7 C    0.983     9 C    0.972
                            11 N    0.927
     9   6 C    3.990 --    31 H    0.986    29 H    0.986    30 H    0.981
                             8 C    0.972
    10   6 C    3.991 --     8 C    0.989    33 H    0.986    34 H    0.983
                            32 H    0.982
    11   7 N    3.360 --    12 C    1.270     8 C    0.927    35 H    0.884
                            13 O    0.182
    12   6 C    3.920 --    13 O    1.583    11 N    1.270    14 C    0.985
    13   8 O    1.901 --    12 C    1.583    11 N    0.182
    14   6 C    3.873 --    15 N    1.612    19 O    1.064    12 C    0.985
    15   7 N    3.014 --    14 C    1.612    16 N    1.197
    16   7 N    2.980 --    17 C    1.608    15 N    1.197
    17   6 C    3.872 --    16 N    1.608    19 O    1.082    18 C    1.031
    18   6 C    3.987 --    17 C    1.031    38 H    0.983    37 H    0.964
                            36 H    0.963
    19   8 O    2.329 --    17 C    1.082    14 C    1.064
    20   7 N    3.041 --    21 C    1.409     7 C    1.302
    21   6 C    3.908 --    20 N    1.409    24 C    1.201    22 O    1.094
    22   8 O    2.190 --    21 C    1.094    23 C    0.904
    23   6 C    3.876 --    40 H    0.984    39 H    0.979    41 H    0.979
                            22 O    0.904
    24   6 C    3.924 --     5 C    1.400    21 C    1.201    25 O    1.095
    25   8 O    2.070 --    24 C    1.095    42 H    0.801
    26   1 H    1.006 --     1 C    0.980
    27   1 H    1.006 --     1 C    0.980
    28   1 H    1.009 --     1 C    0.986
    29   1 H    1.003 --     9 C    0.986
    30   1 H    1.008 --     9 C    0.981
    31   1 H    1.003 --     9 C    0.986
    32   1 H    1.010 --    10 C    0.982
    33   1 H    1.003 --    10 C    0.986
    34   1 H    1.013 --    10 C    0.983
    35   1 H    0.971 --    11 N    0.884
    36   1 H    0.997 --    18 C    0.963
    37   1 H    0.997 --    18 C    0.964
    38   1 H    0.999 --    18 C    0.983
    39   1 H    1.008 --    23 C    0.979
    40   1 H    1.010 --    23 C    0.984
    41   1 H    1.012 --    23 C    0.979
    42   1 H    0.853 --    25 O    0.801
 ---------------------------------------------------------------------------

           -------------------------------------------------
          | TOTAL ENERGY              -83.010305083269 Eh   |
          | GRADIENT NORM               0.000538078796 Eh/α |
          | HOMO-LUMO GAP               2.910075312104 eV   |
           -------------------------------------------------

 * finished run on 2023/06/20 at 18:31:14.965
