   * xtb version 6.5.1 (579679a) compiled by 'ehlert@majestix' on 2022-07-11
          program call               : /lustre/hpc/kemi/ree/PhD/git/ReactivityQM/dep/xtb-6.5.1/bin/xtb --gfn 1 /lustre/hpc/kemi/ree/PhD/git/ReactivityQM/calculations/R01/reac02prodN09/conf12/R01_reac02prodN09_conf12_gfn1.xyz --opt --vfukui --chrg 1 --uhf 0 --alpb DMSO

   ID    Z sym.   atoms
    1    6 C      1, 3, 5, 7-10, 13, 15, 16
    2    8 O      2, 4, 14, 17
    3    7 N      6, 11, 12
    4    1 H      18-33

      * Solvation model:               ALPB
        Solvent                        DMSO
        Solvent mass                       7.8130E+01 g/mol
          :  Hamiltonian                  GFN1-xTB          :
 * total energy  :   -57.7951037 Eh     change       -0.1112710E-10 Eh
 * total energy  :   -57.8068609 Eh     change       -0.1175725E-01 Eh
 * total energy  :   -57.8121825 Eh     change       -0.5321516E-02 Eh
 * total energy  :   -57.8133424 Eh     change       -0.1159901E-02 Eh
 * total energy  :   -57.8142541 Eh     change       -0.9117478E-03 Eh
 * total energy  :   -57.8148066 Eh     change       -0.5524472E-03 Eh
 * total energy  :   -57.8153867 Eh     change       -0.5801085E-03 Eh
 * total energy  :   -57.8159042 Eh     change       -0.5175305E-03 Eh
 * total energy  :   -57.8162203 Eh     change       -0.3161377E-03 Eh
 * total energy  :   -57.8164266 Eh     change       -0.2062349E-03 Eh
 * total energy  :   -57.8182510 Eh     change       -0.3050517E-04 Eh
 * total energy  :   -57.8182716 Eh     change       -0.2051395E-04 Eh
 * total energy  :   -57.8182867 Eh     change       -0.1518166E-04 Eh
 * total energy  :   -57.8183061 Eh     change       -0.1940905E-04 Eh
 * total energy  :   -57.8183213 Eh     change       -0.1515755E-04 Eh
 * total energy  :   -57.8183368 Eh     change       -0.1551668E-04 Eh
 * total energy  :   -57.8183428 Eh     change       -0.5938878E-05 Eh
 * total energy  :   -57.8183468 Eh     change       -0.4083371E-05 Eh
 * total energy  :   -57.8183505 Eh     change       -0.3688323E-05 Eh
   *** GEOMETRY OPTIMIZATION CONVERGED AFTER 35 ITERATIONS ***

 final structure:
================
33
 xtb: 6.5.1 (579679a)
C            2.95844833409003        2.38131476119303       -2.22971967828792
O            1.93062842821331        1.55663051637745       -1.65028432732944
C            2.31243721312626        0.47976631670830       -1.01584768562609
O            3.45069418116646        0.10778677003251       -0.86916503861437
C            1.14656089564847       -0.29776898382684       -0.43281384818764
N            0.01746930284264        0.31106492063919       -0.28749299438377
C           -1.04509516303703       -0.36983403271157        0.21577304392562
C           -2.33701736261527        0.34621593483769        0.42004197458516
C           -2.12660495384758        1.29963203388269        1.61212955488024
C           -2.68661848793687        1.15328387372406       -0.84354844995884
N           -3.34819051846775       -0.64277699470799        0.74059626834665
N           -0.97713621771839       -1.64659190476646        0.51605895814702
C            0.15701101803367       -2.48086538999846        0.31276911928309
O            0.06083057478106       -3.66308888005999        0.40963133117755
C            1.42560260295111       -1.67526519825427        0.09971886464761
C            1.96491431027251       -1.43005281779540        1.55059810580225
O            2.32514996179017       -2.41889378326078       -0.64228623521426
H            2.46653112008482        3.29408080731102       -2.55774748313543
H            3.40765339911161        1.85822268355021       -3.07573622426162
H            3.72223420106702        2.59532894039249       -1.48024348349495
H           -1.92493818937300        0.72746964799652        2.51539106521039
H           -3.03217731797689        1.88658103726850        1.75215906695387
H           -1.29089775830702        1.96880163167308        1.41376312567931
H           -2.82758297025170        0.48271792375281       -1.68903071240007
H           -3.60831337966390        1.70204735022810       -0.66393147532411
H           -1.88434048577260        1.85352797341219       -1.06998685550457
H           -3.81589977601490       -0.95351877975290       -0.09963242990751
H           -4.04263932651560       -0.25309124879052        1.36148586366830
H           -1.85864503171997       -2.07352597994591        0.81536175209794
H            1.23579304432080       -0.89173306549400        2.14960630124648
H            2.88679220045518       -0.85754615498760        1.48192455236918
H            2.16906425901794       -2.40396094749789        1.99171765342816
H            3.16828389224761       -1.94595796112772       -0.75125967982165

          :  Hamiltonian                  GFN1-xTB          :
         :: total energy             -57.818350532391 Eh    ::
         :: gradient norm              0.000615607136 Eh/a0 ::
         :: HOMO-LUMO gap              0.691139647554 eV    ::
         :: SCC energy               -58.390075333472 Eh    ::
         :: -> Gsolv                  -0.098429311403 Eh    ::
         :: repulsion energy           0.590916136797 Eh    ::

    * Orbital Energies and Occupations

         #    Occupation            Energy/Eh            Energy/eV
      -------------------------------------------------------------
         1        2.0000           -0.8938963             -24.3242
       ...           ...                  ...                  ...
        35        2.0000           -0.5497447             -14.9593
        36        2.0000           -0.5459727             -14.8567
        37        2.0000           -0.5446123             -14.8197
        38        2.0000           -0.5394093             -14.6781
        39        2.0000           -0.5374663             -14.6252
        40        2.0000           -0.5351072             -14.5610
        41        2.0000           -0.5334758             -14.5166
        42        2.0000           -0.5279300             -14.3657
        43        2.0000           -0.5240618             -14.2604
        44        2.0000           -0.5173644             -14.0782
        45        2.0000           -0.5051903             -13.7469
        46        2.0000           -0.4908670             -13.3572
        47        2.0000           -0.4513627             -12.2822 (HOMO)
        48        0.0000           -0.4259638             -11.5911 (LUMO)
        49                         -0.3516061              -9.5677
        50                         -0.3048263              -8.2947
        51                         -0.2646731              -7.2021
        52                         -0.1547954              -4.2122
        53                         -0.1532495              -4.1701
        54                         -0.1473571              -4.0098
        55                         -0.1445583              -3.9336
        56                         -0.1344940              -3.6598
        57                         -0.1177729              -3.2048
        58                         -0.1091978              -2.9714
       ...                                ...                  ...
       100                          0.7088025              19.2875
      -------------------------------------------------------------
                  HL-Gap            0.0253989 Eh            0.6911 eV

Wiberg/Mayer (AO) data.
largest (>0.10) Wiberg bond orders for each atom

     #   Z sym  total        # sym  WBO       # sym  WBO       # sym  WBO
 ---------------------------------------------------------------------------
     1   6 C    3.837 --    18 H    0.984    20 H    0.976    19 H    0.974
                             2 O    0.867
     2   8 O    2.256 --     3 C    1.187     1 C    0.867     4 O    0.156
     3   6 C    3.864 --     4 O    1.664     2 O    1.187     5 C    0.944
     4   8 O    1.976 --     3 C    1.664     2 O    0.156
     5   6 C    3.909 --     6 N    1.645    15 C    0.997     3 C    0.944
     6   7 N    3.052 --     5 C    1.645     7 C    1.191
     7   6 C    3.866 --    12 N    1.431     6 N    1.191     8 C    1.018
     8   6 C    3.956 --     7 C    1.018    11 N    1.000    10 C    0.948
                             9 C    0.936
     9   6 C    3.978 --    21 H    0.984    23 H    0.983    22 H    0.974
                             8 C    0.936
    10   6 C    3.979 --    24 H    0.983    26 H    0.982    25 H    0.979
                             8 C    0.948
    11   7 N    2.995 --     8 C    1.000    27 H    0.926    28 H    0.923
    12   7 N    3.529 --     7 C    1.431    13 C    0.990    29 H    0.830
    13   6 C    3.857 --    14 O    1.798    12 N    0.990    15 C    0.947
    14   8 O    2.040 --    13 C    1.798
    15   6 C    3.942 --    17 O    1.006     5 C    0.997    13 C    0.947
                            16 C    0.862
    16   6 C    3.962 --    30 H    0.985    31 H    0.975    32 H    0.970
                            15 C    0.862
    17   8 O    1.923 --    15 C    1.006    33 H    0.811
    18   1 H    1.005 --     1 C    0.984
    19   1 H    0.999 --     1 C    0.974
    20   1 H    1.001 --     1 C    0.976
    21   1 H    0.996 --     9 C    0.984
    22   1 H    0.994 --     9 C    0.974
    23   1 H    0.999 --     9 C    0.983
    24   1 H    0.997 --    10 C    0.983
    25   1 H    0.997 --    10 C    0.979
    26   1 H    1.003 --    10 C    0.982
    27   1 H    0.940 --    11 N    0.926
    28   1 H    0.937 --    11 N    0.923
    29   1 H    0.923 --    12 N    0.830
    30   1 H    0.994 --    16 C    0.985
    31   1 H    0.998 --    16 C    0.975
    32   1 H    0.993 --    16 C    0.970
    33   1 H    0.851 --    17 O    0.811
 ---------------------------------------------------------------------------

           -------------------------------------------------
          | TOTAL ENERGY              -57.818350532391 Eh   |
          | GRADIENT NORM               0.000615607136 Eh/α |
          | HOMO-LUMO GAP               0.691139647554 eV   |
           -------------------------------------------------

 * finished run on 2023/06/20 at 15:09:50.730
