   * xtb version 6.5.1 (579679a) compiled by 'ehlert@majestix' on 2022-07-11
          program call               : /lustre/hpc/kemi/ree/PhD/git/ReactivityQM/dep/xtb-6.5.1/bin/xtb --gfn 1 /lustre/hpc/kemi/ree/PhD/git/ReactivityQM/calculations/R02/reac01prodN08/conf10/R02_reac01prodN08_conf10_gfn1.xyz --opt --vfukui --chrg 1 --uhf 0 --alpb DMSO

   ID    Z sym.   atoms
    1    6 C      1, 3, 4, 6, 8-11, 13, 15, 18, 19, 22, 24
    2    8 O      2, 5, 14, 20, 23, 25
    3    7 N      7, 12, 16, 17, 21
    4    1 H      26-43

      * Solvation model:               ALPB
        Solvent                        DMSO
        Solvent mass                       7.8130E+01 g/mol
          :  Hamiltonian                  GFN1-xTB          :
 * total energy  :   -83.0132547 Eh     change       -0.6716334E-09 Eh
 * total energy  :   -83.0297097 Eh     change       -0.1645501E-01 Eh
 * total energy  :   -83.0403924 Eh     change       -0.1068267E-01 Eh
 * total energy  :   -83.0441962 Eh     change       -0.3803837E-02 Eh
 * total energy  :   -83.0468193 Eh     change       -0.2623104E-02 Eh
 * total energy  :   -83.0487584 Eh     change       -0.1939062E-02 Eh
 * total energy  :   -83.0517207 Eh     change       -0.2962332E-02 Eh
 * total energy  :   -83.0564930 Eh     change       -0.4772289E-02 Eh
 * total energy  :   -83.0601284 Eh     change       -0.3635414E-02 Eh
 * total energy  :   -83.0647869 Eh     change       -0.4658533E-02 Eh
 * total energy  :   -83.1658922 Eh     change       -0.3410499E-04 Eh
 * total energy  :   -83.1659117 Eh     change       -0.1953210E-04 Eh
 * total energy  :   -83.1659270 Eh     change       -0.1528741E-04 Eh
 * total energy  :   -83.1659527 Eh     change       -0.2574107E-04 Eh
 * total energy  :   -83.1659604 Eh     change       -0.7664169E-05 Eh
 * total energy  :   -83.1659765 Eh     change       -0.1606703E-04 Eh
 * total energy  :   -83.1659866 Eh     change       -0.1012147E-04 Eh
 * total energy  :   -83.1659930 Eh     change       -0.6428170E-05 Eh
 * total energy  :   -83.1659973 Eh     change       -0.4293835E-05 Eh
   *** GEOMETRY OPTIMIZATION CONVERGED AFTER 79 ITERATIONS ***

 final structure:
================
43
 xtb: 6.5.1 (579679a)
C           -4.18568478028024        2.91082260228674        0.99476274852868
O           -2.94255889877271        2.93670991772332        0.26198641103208
C           -2.35641787658541        1.85627419182111       -0.08315889269732
C           -1.08934951670108        1.98888748472383       -0.82400862553800
O           -2.93193929716688        0.74860473844347        0.23877260483198
C           -2.47465575153753       -0.54888298316345        0.02245719014022
N           -1.14845839096200       -0.71971837169599       -0.17856917676394
C           -0.68548111538163       -1.92315144720421       -0.35206454427059
C            0.79691567336696       -2.11243860911706       -0.59008549019058
C            1.02231271607290       -2.39416424558694       -2.08465126431365
C            1.37741843377343       -3.23024184957763        0.28432060564133
N            1.41427829312372       -0.84297387310881       -0.22673760669994
C            2.71356174147059       -0.52501745200162       -0.39743550929637
O            3.58610811302263       -1.26846199877860       -0.80141738433906
C            2.92847223727467        0.89686091927414       -0.01323025725096
N            1.99723375754743        1.73703545107231        0.33808811693078
N            2.61381473859201        2.92571567210682        0.58801774300866
C            3.88191957211508        2.73661306929839        0.37060670082845
C            4.97793198996184        3.72219368051260        0.49567281490127
O            4.13783650987658        1.47667306812395       -0.01167822809114
N           -1.50531863997936       -3.00176666203062       -0.35987518271605
C           -2.87386935175853       -2.93388191845562       -0.15282096006645
O           -3.58417897036971       -3.91975038017407       -0.15099581736162
C           -3.36858303490344       -1.57835098508642        0.06024485631825
O           -4.67884003335970       -1.41106091971202        0.26349074124702
H           -4.03551645136254        2.38490972116681        1.93780132764820
H           -4.94222656584748        2.40008785936822        0.39837785884451
H           -4.45253997994577        3.95181642934689        1.16083680915072
H           -0.24675466823718        1.81843518600922       -0.14270896218534
H           -1.00954511528209        2.99480553576810       -1.23197428158357
H           -1.02504561225980        1.23607876205598       -1.60671517130211
H            0.49337491544875       -3.30075972369029       -2.37114804298970
H            0.64989441612273       -1.55963626900999       -2.67621576975526
H            2.08663854469213       -2.52439457643343       -2.27439188228632
H            1.17994737390366       -3.02211964698219        1.33444815520057
H            0.93626795379188       -4.18803726687562        0.01758926139286
H            2.45366969242332       -3.28366694805287        0.12487236175332
H            0.78771105039977       -0.12426363081080        0.10434941303404
H            5.76124587228588        3.32852645580985        1.14350655391028
H            4.58949194813812        4.65024067878763        0.90828640674743
H            5.41588529434308        3.91556830846049       -0.48420305535369
H           -1.13384149613959       -3.92997014774095       -0.51189119046487
H           -5.13112629093000       -2.27414782687699        0.23808961441626

          :  Hamiltonian                  GFN1-xTB          :
         :: total energy             -83.165997305875 Eh    ::
         :: gradient norm              0.000634725502 Eh/a0 ::
         :: HOMO-LUMO gap              2.349035200126 eV    ::
         :: SCC energy               -83.966157892042 Eh    ::
         :: -> Gsolv                  -0.105075067208 Eh    ::
         :: repulsion energy           0.827179305534 Eh    ::

    * Orbital Energies and Occupations

         #    Occupation            Energy/Eh            Energy/eV
      -------------------------------------------------------------
         1        2.0000           -0.9313016             -25.3420
       ...           ...                  ...                  ...
        55        2.0000           -0.5299799             -14.4215
        56        2.0000           -0.5172227             -14.0743
        57        2.0000           -0.5165964             -14.0573
        58        2.0000           -0.5165102             -14.0550
        59        2.0000           -0.5140526             -13.9881
        60        2.0000           -0.4942022             -13.4479
        61        2.0000           -0.4925086             -13.4018
        62        2.0000           -0.4909026             -13.3581
        63        2.0000           -0.4755997             -12.9417
        64        2.0000           -0.4706739             -12.8077
        65        2.0000           -0.4627337             -12.5916
        66        2.0000           -0.4592493             -12.4968
        67        2.0000           -0.4538398             -12.3496 (HOMO)
        68                         -0.3675143             -10.0006 (LUMO)
        69                         -0.3248871              -8.8406
        70                         -0.3204675              -8.7204
        71                         -0.3046223              -8.2892
        72                         -0.2662752              -7.2457
        73                         -0.2089180              -5.6849
        74                         -0.1994689              -5.4278
        75                         -0.1759508              -4.7879
        76                         -0.1610659              -4.3828
        77                         -0.1518024              -4.1308
        78                         -0.1463103              -3.9813
       ...                                ...                  ...
       136                          0.7274072              19.7938
      -------------------------------------------------------------
                  HL-Gap            0.0863255 Eh            2.3490 eV

Wiberg/Mayer (AO) data.
largest (>0.10) Wiberg bond orders for each atom

     #   Z sym  total        # sym  WBO       # sym  WBO       # sym  WBO
 ---------------------------------------------------------------------------
     1   6 C    3.814 --    28 H    0.981    26 H    0.972    27 H    0.972
                             2 O    0.842
     2   8 O    2.328 --     3 C    1.307     1 C    0.842
     3   6 C    3.770 --     2 O    1.307     5 O    1.240     4 C    1.042
     4   6 C    3.964 --     3 C    1.042    30 H    0.968    31 H    0.952
                            29 H    0.908
     5   8 O    2.358 --     3 C    1.240     6 C    0.903
     6   6 C    3.840 --    24 C    1.481     7 N    1.202     5 O    0.903
     7   7 N    3.044 --     8 C    1.517     6 C    1.202
     8   6 C    3.920 --     7 N    1.517    21 N    1.215     9 C    0.986
     9   6 C    3.936 --     8 C    0.986    11 C    0.981    10 C    0.967
                            12 N    0.937
    10   6 C    3.984 --    33 H    0.985    32 H    0.984    34 H    0.976
                             9 C    0.967
    11   6 C    3.985 --    35 H    0.985    36 H    0.982     9 C    0.981
                            37 H    0.977
    12   7 N    3.341 --    13 C    1.247     9 C    0.937    38 H    0.878
                            14 O    0.179
    13   6 C    3.917 --    14 O    1.604    12 N    1.247    15 C    0.984
    14   8 O    1.921 --    13 C    1.604    12 N    0.179
    15   6 C    3.875 --    16 N    1.598    20 O    1.075    13 C    0.984
    16   7 N    3.055 --    15 C    1.598    17 N    1.199
    17   7 N    2.979 --    18 C    1.601    16 N    1.199
    18   6 C    3.867 --    17 N    1.601    20 O    1.082    19 C    1.032
    19   6 C    3.985 --    18 C    1.032    40 H    0.982    39 H    0.964
                            41 H    0.960
    20   8 O    2.338 --    18 C    1.082    15 C    1.075
    21   7 N    3.474 --     8 C    1.215    22 C    1.105    42 H    0.872
                            23 O    0.129
    22   6 C    3.912 --    23 O    1.609    21 N    1.105    24 C    1.068
    23   8 O    1.924 --    22 C    1.609    21 N    0.129
    24   6 C    3.929 --     6 C    1.481    25 O    1.109    22 C    1.068
    25   8 O    2.079 --    24 C    1.109    43 H    0.798
    26   1 H    0.996 --     1 C    0.972
    27   1 H    0.996 --     1 C    0.972
    28   1 H    1.000 --     1 C    0.981
    29   1 H    1.022 --     4 C    0.908
    30   1 H    0.989 --     4 C    0.968
    31   1 H    1.000 --     4 C    0.952
    32   1 H    0.998 --    10 C    0.984
    33   1 H    1.000 --    10 C    0.985
    34   1 H    1.004 --    10 C    0.976
    35   1 H    0.999 --    11 C    0.985
    36   1 H    0.997 --    11 C    0.982
    37   1 H    1.004 --    11 C    0.977
    38   1 H    0.964 --    12 N    0.878
    39   1 H    0.996 --    19 C    0.964
    40   1 H    0.998 --    19 C    0.982
    41   1 H    0.996 --    19 C    0.960
    42   1 H    0.917 --    21 N    0.872
    43   1 H    0.829 --    25 O    0.798
 ---------------------------------------------------------------------------

           -------------------------------------------------
          | TOTAL ENERGY              -83.165997305875 Eh   |
          | GRADIENT NORM               0.000634725502 Eh/α |
          | HOMO-LUMO GAP               2.349035200126 eV   |
           -------------------------------------------------

 * finished run on 2023/06/20 at 15:28:00.572
