   * xtb version 6.5.1 (579679a) compiled by 'ehlert@majestix' on 2022-07-11
          program call               : /lustre/hpc/kemi/ree/PhD/git/ReactivityQM/dep/xtb-6.5.1/bin/xtb --gfn 1 /lustre/hpc/kemi/ree/PhD/git/ReactivityQM/calculations/R01/reac01prodE03/conf02/R01_reac01prodE03_conf02_gfn1.xyz --opt --vfukui --chrg -1 --uhf 0 --alpb DMSO

   ID    Z sym.   atoms
    1    6 C      1, 3, 5, 6, 9, 10
    2    8 O      2, 4, 11
    3    7 N      7, 8
    4    1 H      12-20

      * Solvation model:               ALPB
        Solvent                        DMSO
        Solvent mass                       7.8130E+01 g/mol
          :  Hamiltonian                  GFN1-xTB          :
 * total energy  :   -38.3084615 Eh     change       -0.1305978E-10 Eh
 * total energy  :   -38.3200849 Eh     change       -0.1162342E-01 Eh
 * total energy  :   -38.3238889 Eh     change       -0.3804074E-02 Eh
 * total energy  :   -38.3247125 Eh     change       -0.8235292E-03 Eh
 * total energy  :   -38.3254140 Eh     change       -0.7015057E-03 Eh
 * total energy  :   -38.3258090 Eh     change       -0.3950401E-03 Eh
 * total energy  :   -38.3263734 Eh     change       -0.5643682E-03 Eh
 * total energy  :   -38.3269666 Eh     change       -0.5931893E-03 Eh
 * total energy  :   -38.3275453 Eh     change       -0.5786784E-03 Eh
 * total energy  :   -38.3278613 Eh     change       -0.3159983E-03 Eh
 * total energy  :   -38.3286018 Eh     change       -0.3249014E-04 Eh
 * total energy  :   -38.3286252 Eh     change       -0.2338994E-04 Eh
 * total energy  :   -38.3286411 Eh     change       -0.1586392E-04 Eh
 * total energy  :   -38.3286531 Eh     change       -0.1202339E-04 Eh
 * total energy  :   -38.3286631 Eh     change       -0.1003563E-04 Eh
 * total energy  :   -38.3286732 Eh     change       -0.1006821E-04 Eh
 * total energy  :   -38.3286796 Eh     change       -0.6434223E-05 Eh
 * total energy  :   -38.3286885 Eh     change       -0.8851769E-05 Eh
 * total energy  :   -38.3286927 Eh     change       -0.4177369E-05 Eh
   *** GEOMETRY OPTIMIZATION CONVERGED AFTER 26 ITERATIONS ***

 final structure:
================
20
 xtb: 6.5.1 (579679a)
C           -3.38574338788820        0.35122462030430       -0.31711046187569
O           -2.19081655279560       -0.40897465295760       -0.44079672444862
C           -1.10258938331171        0.06005308951265        0.24576880182462
O           -1.18878320019548        1.02908970114202        0.98924438144865
C            0.18561045046489       -0.59106646652375       -0.24537133807013
C            0.07559119460185       -2.08304595558888       -0.56745626415026
N            0.32975822111565        0.26813278160022       -1.41909459228631
N            1.42153827906573        1.05778927921492       -1.15110549308741
C            1.94275309550536        0.72594080162038       -0.03245802283066
C            3.15907956130211        1.29432176422473        0.60935568642295
O            1.27755306451700       -0.32135664662688        0.61699822060128
H           -3.64343843634455        0.50091798681754        0.73679420386739
H           -3.27718572576485        1.32985233598963       -0.79785350132838
H           -4.17707801120733       -0.21288477355577       -0.80995472964838
H           -0.14672083898232       -2.65256321562609        0.33315608375141
H            1.02200660988280       -2.42490212232014       -0.98190134171220
H           -0.71271621190224       -2.23953131125107       -1.29996316268888
H            3.92191176710682        0.52445922475813        0.74087924561343
H            2.92848061368011        1.70674476291120        1.59377312039100
H            3.56078789115056        2.08579879635456       -0.02107711179354

          :  Hamiltonian                  GFN1-xTB          :
         :: total energy             -38.328692661597 Eh    ::
         :: gradient norm              0.000857970276 Eh/a0 ::
         :: HOMO-LUMO gap              2.111357409624 eV    ::
         :: SCC energy               -38.635911849683 Eh    ::
         :: -> Gsolv                  -0.105329589082 Eh    ::
         :: repulsion energy           0.316009023950 Eh    ::

    * Orbital Energies and Occupations

         #    Occupation            Energy/Eh            Energy/eV
      -------------------------------------------------------------
         1        2.0000           -0.7915950             -21.5404
       ...           ...                  ...                  ...
        19        2.0000           -0.5038321             -13.7100
        20        2.0000           -0.4975949             -13.5402
        21        2.0000           -0.4937168             -13.4347
        22        2.0000           -0.4894537             -13.3187
        23        2.0000           -0.4812143             -13.0945
        24        2.0000           -0.4643650             -12.6360
        25        2.0000           -0.4607228             -12.5369
        26        2.0000           -0.4576480             -12.4532
        27        2.0000           -0.4188369             -11.3971
        28        2.0000           -0.4129931             -11.2381
        29        2.0000           -0.3888373             -10.5808
        30        2.0000           -0.3630964              -9.8804
        31        2.0000           -0.2897901              -7.8856 (HOMO)
        32                         -0.2121992              -5.7742 (LUMO)
        33                         -0.1703081              -4.6343
        34                         -0.1217561              -3.3132
        35                         -0.1126767              -3.0661
        36                         -0.0977409              -2.6597
        37                         -0.0593980              -1.6163
        38                         -0.0559818              -1.5233
        39                         -0.0465518              -1.2667
        40                         -0.0449833              -1.2241
        41                         -0.0403238              -1.0973
        42                         -0.0347760              -0.9463
       ...                                ...                  ...
        62                          0.6875569              18.7094
      -------------------------------------------------------------
                  HL-Gap            0.0775910 Eh            2.1114 eV

Wiberg/Mayer (AO) data.
largest (>0.10) Wiberg bond orders for each atom

     #   Z sym  total        # sym  WBO       # sym  WBO       # sym  WBO
 ---------------------------------------------------------------------------
     1   6 C    3.903 --    14 H    0.987    13 H    0.981    12 H    0.981
                             2 O    0.925
     2   8 O    2.133 --     3 C    1.019     1 C    0.925     4 O    0.103
     3   6 C    3.815 --     4 O    1.588     2 O    1.019     5 C    0.921
                             7 N    0.185
     4   8 O    1.867 --     3 C    1.588     2 O    0.103
     5   6 C    3.900 --     6 C    0.979     7 N    0.967    11 O    0.927
                             3 C    0.921
     6   6 C    3.996 --    15 H    0.987    17 H    0.986    16 H    0.986
                             5 C    0.979
     7   7 N    2.662 --     8 N    1.157     5 C    0.967     3 C    0.185
                             9 C    0.157
     8   7 N    3.013 --     9 C    1.691     7 N    1.157
     9   6 C    3.880 --     8 N    1.691    10 C    1.018    11 O    0.942
                             7 N    0.157
    10   6 C    3.996 --     9 C    1.018    20 H    0.987    19 H    0.976
                            18 H    0.976
    11   8 O    2.070 --     9 C    0.942     5 C    0.927
    12   1 H    1.016 --     1 C    0.981
    13   1 H    1.012 --     1 C    0.981
    14   1 H    1.016 --     1 C    0.987
    15   1 H    1.010 --     6 C    0.987
    16   1 H    1.017 --     6 C    0.986
    17   1 H    1.019 --     6 C    0.986
    18   1 H    1.008 --    10 C    0.976
    19   1 H    1.008 --    10 C    0.976
    20   1 H    1.009 --    10 C    0.987
 ---------------------------------------------------------------------------

           -------------------------------------------------
          | TOTAL ENERGY              -38.328692661597 Eh   |
          | GRADIENT NORM               0.000857970276 Eh/α |
          | HOMO-LUMO GAP               2.111357409624 eV   |
           -------------------------------------------------

 * finished run on 2023/06/20 at 14:53:21.501
