   * xtb version 6.5.1 (579679a) compiled by 'ehlert@majestix' on 2022-07-11
          program call               : /lustre/hpc/kemi/ree/PhD/git/ReactivityQM/dep/xtb-6.5.1/bin/xtb --gfn 1 /lustre/hpc/kemi/ree/PhD/git/ReactivityQM/calculations/RaltegravirCLI/reac02prodN09/conf16/RaltegravirCLI_reac02prodN09_conf16_gfn1.xyz --opt --vfukui --chrg 1 --uhf 0 --alpb DMSO

   ID    Z sym.   atoms
    1    6 C      1-4, 6-9, 11, 13, 15-18, 21, 22, 24
    2    9 F      5
    3    7 N      10, 14, 19, 20
    4    8 O      12, 23, 25
    5    1 H      26-47

      * Solvation model:               ALPB
        Solvent                        DMSO
        Solvent mass                       7.8130E+01 g/mol
          :  Hamiltonian                  GFN1-xTB          :
 * total energy  :   -79.4647808 Eh     change       -0.6602363E-10 Eh
 * total energy  :   -79.4741460 Eh     change       -0.9365209E-02 Eh
 * total energy  :   -79.4766750 Eh     change       -0.2529022E-02 Eh
 * total energy  :   -79.4771917 Eh     change       -0.5167297E-03 Eh
 * total energy  :   -79.4777365 Eh     change       -0.5448148E-03 Eh
 * total energy  :   -79.4780903 Eh     change       -0.3537870E-03 Eh
 * total energy  :   -79.4784485 Eh     change       -0.3582056E-03 Eh
 * total energy  :   -79.4788334 Eh     change       -0.3848435E-03 Eh
 * total energy  :   -79.4792032 Eh     change       -0.3698063E-03 Eh
 * total energy  :   -79.4795536 Eh     change       -0.3504464E-03 Eh
 * total energy  :   -79.4828074 Eh     change       -0.2329591E-04 Eh
 * total energy  :   -79.4828203 Eh     change       -0.1290746E-04 Eh
 * total energy  :   -79.4828357 Eh     change       -0.1537352E-04 Eh
 * total energy  :   -79.4828463 Eh     change       -0.1056604E-04 Eh
 * total energy  :   -79.4828552 Eh     change       -0.8960571E-05 Eh
 * total energy  :   -79.4828690 Eh     change       -0.1379100E-04 Eh
 * total energy  :   -79.4828774 Eh     change       -0.8391059E-05 Eh
 * total energy  :   -79.4828837 Eh     change       -0.6261761E-05 Eh
 * total energy  :   -79.4828883 Eh     change       -0.4597455E-05 Eh
   *** GEOMETRY OPTIMIZATION CONVERGED AFTER 49 ITERATIONS ***

 final structure:
================
47
 xtb: 6.5.1 (579679a)
C            5.37740541644563        1.96156114317694        1.14191094601086
C            5.19662047943688        0.66825447943131        0.30410670137887
C            6.14093418752153       -0.38733421502621        0.71988563058099
C            5.71360397706929       -1.66577217502548        0.89228451436076
F            6.57696748450341       -2.60571323041192        1.25484894641301
C            4.37152327699999       -2.03885437928255        0.71966563852179
C            3.43358511079775       -1.08621806173137        0.34686026058778
C            3.78717997811959        0.23794562819956        0.15405553299370
C            2.76922243187637        1.26248575987836       -0.22302721107939
N            1.52044760679863        0.66741793011071       -0.63491965039632
C            0.40585646466490        0.82773731248260        0.12643060172235
O            0.39100207234007        1.54411973891799        1.11293452626423
C           -0.78435003942693        0.05065309840661       -0.33821687865068
N           -1.99757257085660        0.58569288668598       -0.02443674457254
C           -3.10371545143927       -0.02341519183396       -0.32478602822214
C           -4.38341184101054        0.69440441192994        0.08699055321711
C           -4.82568343061148        0.17026566257888        1.46088483879689
C           -4.10030297027529        2.20458688409816        0.18183388121914
N           -5.44092831096498        0.46710269572822       -0.88583621354650
N           -3.11235204365291       -1.25560123673093       -0.92606134005625
C           -4.33818445485371       -2.00424618926732       -1.21995361894606
C           -1.93450764064830       -1.87326567991276       -1.30866369617142
O           -1.90362373135012       -2.96205845828208       -1.87580517942815
C           -0.72230297120579       -1.15043438212591       -0.97935199868830
O            0.43445075780836       -1.76290436180113       -1.31787584811680
H            4.98807918283284        1.79914689519054        2.14455094404727
H            4.84762468382972        2.78649384673573        0.67255207654473
H            6.43560548170360        2.20693791600290        1.19982894512114
H            5.52489142410408        0.95909767481952       -0.71131085237415
H            7.17880799266437       -0.11650540260819        0.86850927441387
H            4.08255910110426       -3.06982535058514        0.88682456399071
H            2.40026823281909       -1.38715553150209        0.20951956088132
H            2.55406205801371        1.89237791216217        0.65376790477457
H            3.15828963919147        1.91535929457805       -1.00998301926450
H            1.52554998622889        0.07762099314857       -1.44892253707968
H           -5.08094781425544       -0.88671520773684        1.41232169546611
H           -5.69967733515013        0.72498003884783        1.79899208115690
H           -4.02072122233192        0.30463469062937        2.18247791269767
H           -3.35782539538621        2.40289975415884        0.95349552085478
H           -5.02175984053287        2.72947621842677        0.42696337386253
H           -3.72417737545556        2.57341120254682       -0.77087276281159
H           -5.24919143978405        0.96894976653920       -1.74142012213817
H           -6.32895133872605        0.77689518128453       -0.51851307477617
H           -5.03791193414901       -1.91327208216160       -0.39538698713971
H           -4.06795871509393       -3.05051940495383       -1.36139713026677
H           -4.79486402191921       -1.61718955917102       -2.12930031999730
H            0.21638686220769       -2.60351091653980       -1.76645421216291

          :  Hamiltonian                  GFN1-xTB          :
         :: total energy             -79.482888277809 Eh    ::
         :: gradient norm              0.000515613301 Eh/a0 ::
         :: HOMO-LUMO gap              0.164377219614 eV    ::
         :: SCC energy               -80.365843681622 Eh    ::
         :: -> Gsolv                  -0.108333099202 Eh    ::
         :: repulsion energy           0.913115529023 Eh    ::

    * Orbital Energies and Occupations

         #    Occupation            Energy/Eh            Energy/eV
      -------------------------------------------------------------
         1        2.0000           -0.9140249             -24.8719
       ...           ...                  ...                  ...
        55        2.0000           -0.5201343             -14.1536
        56        2.0000           -0.5155677             -14.0293
        57        2.0000           -0.5093150             -13.8592
        58        2.0000           -0.5014288             -13.6446
        59        2.0000           -0.4997858             -13.5999
        60        2.0000           -0.4932423             -13.4218
        61        2.0000           -0.4811051             -13.0915
        62        2.0000           -0.4743745             -12.9084
        63        2.0000           -0.4638415             -12.6218
        64        2.0000           -0.4596604             -12.5080
        65        2.0000           -0.4456257             -12.1261
        66        2.0000           -0.4300665             -11.7027
        67        1.9201           -0.4226264             -11.5003 (HOMO)
        68        0.0799           -0.4165857             -11.3359 (LUMO)
        69                         -0.3241410              -8.8203
        70                         -0.3202843              -8.7154
        71                         -0.2834893              -7.7141
        72                         -0.2444365              -6.6515
        73                         -0.2402149              -6.5366
        74                         -0.1658343              -4.5126
        75                         -0.1638455              -4.4585
        76                         -0.1536736              -4.1817
        77                         -0.1463504              -3.9824
        78                         -0.1377374              -3.7480
       ...                                ...                  ...
       144                          0.7051627              19.1885
      -------------------------------------------------------------
                  HL-Gap            0.0060408 Eh            0.1644 eV

Wiberg/Mayer (AO) data.
largest (>0.10) Wiberg bond orders for each atom

     #   Z sym  total        # sym  WBO       # sym  WBO       # sym  WBO
 ---------------------------------------------------------------------------
     1   6 C    3.963 --    26 H    0.983    27 H    0.982    28 H    0.981
                             2 C    0.920
     2   6 C    3.987 --     3 C    1.079     8 C    1.076     1 C    0.920
                            29 H    0.842
     3   6 C    3.932 --     4 C    1.546     2 C    1.079    30 H    0.959
     4   6 C    3.883 --     3 C    1.546     6 C    1.282     5 F    0.964
     5   9 F    1.106 --     4 C    0.964
     6   6 C    3.911 --     7 C    1.430     4 C    1.282    31 H    0.960
     7   6 C    3.982 --     8 C    1.460     6 C    1.430    32 H    0.954
     8   6 C    3.898 --     7 C    1.460     2 C    1.076     9 C    1.046
     9   6 C    3.957 --     8 C    1.046    10 N    0.969    34 H    0.943
                            33 H    0.912
    10   7 N    3.320 --    11 C    1.218     9 C    0.969    35 H    0.886
                            12 O    0.161
    11   6 C    3.896 --    12 O    1.608    10 N    1.218    13 C    0.989
    12   8 O    1.905 --    11 C    1.608    10 N    0.161
    13   6 C    3.966 --    24 C    1.508    14 N    1.204    11 C    0.989
    14   7 N    3.026 --    15 C    1.553    13 C    1.204
    15   6 C    3.920 --    14 N    1.553    20 N    1.182    16 C    0.975
    16   6 C    3.956 --    19 N    0.985    17 C    0.981    18 C    0.981
                            15 C    0.975
    17   6 C    3.992 --    38 H    0.985    37 H    0.982    16 C    0.981
                            36 H    0.980
    18   6 C    3.980 --    40 H    0.985    41 H    0.985    39 H    0.981
                            16 C    0.981
    19   7 N    2.947 --    16 C    0.985    42 H    0.933    43 H    0.930
    20   7 N    3.517 --    15 C    1.182    22 C    1.131    21 C    0.925
                            23 O    0.133
    21   6 C    3.916 --    44 H    0.978    45 H    0.975    46 H    0.975
                            20 N    0.925
    22   6 C    3.917 --    23 O    1.546    20 N    1.131    24 C    1.091
    23   8 O    1.893 --    22 C    1.546    20 N    0.133
    24   6 C    3.914 --    13 C    1.508    22 C    1.091    25 O    1.065
    25   8 O    2.059 --    24 C    1.065    47 H    0.798
    26   1 H    0.995 --     1 C    0.983
    27   1 H    0.995 --     1 C    0.982
    28   1 H    0.993 --     1 C    0.981
    29   1 H    0.972 --     2 C    0.842
    30   1 H    0.986 --     3 C    0.959
    31   1 H    0.988 --     6 C    0.960
    32   1 H    1.006 --     7 C    0.954
    33   1 H    1.000 --     9 C    0.912
    34   1 H    0.993 --     9 C    0.943
    35   1 H    0.934 --    10 N    0.886
    36   1 H    1.003 --    17 C    0.980
    37   1 H    0.999 --    17 C    0.982
    38   1 H    1.003 --    17 C    0.985
    39   1 H    1.012 --    18 C    0.981
    40   1 H    1.002 --    18 C    0.985
    41   1 H    1.006 --    18 C    0.985
    42   1 H    0.949 --    19 N    0.933
    43   1 H    0.946 --    19 N    0.930
    44   1 H    1.018 --    21 C    0.978
    45   1 H    1.007 --    21 C    0.975
    46   1 H    1.013 --    21 C    0.975
    47   1 H    0.841 --    25 O    0.798
 ---------------------------------------------------------------------------

           -------------------------------------------------
          | TOTAL ENERGY              -79.482888277809 Eh   |
          | GRADIENT NORM               0.000515613301 Eh/α |
          | HOMO-LUMO GAP               0.164377219614 eV   |
           -------------------------------------------------

 * finished run on 2023/06/20 at 15:28:25.003
