   * xtb version 6.5.1 (579679a) compiled by 'ehlert@majestix' on 2022-07-11
          program call               : /lustre/hpc/kemi/ree/PhD/git/ReactivityQM/dep/xtb-6.5.1/bin/xtb --gfn 1 /lustre/hpc/kemi/ree/PhD/git/ReactivityQM/calculations/R02methylcation/reac01prodN10/conf19/R02methylcation_reac01prodN10_conf19_gfn1.xyz --opt --vfukui --chrg 0 --uhf 0 --alpb DMSO

   ID    Z sym.   atoms
    1    6 C      1, 3, 5, 6, 8, 11-15, 17, 19, 22, 23
    2    8 O      2, 4, 7, 9, 18, 24
    3    7 N      10, 16, 20, 21, 25
    4    1 H      26-42

      * Solvation model:               ALPB
        Solvent                        DMSO
        Solvent mass                       7.8130E+01 g/mol
          :  Hamiltonian                  GFN1-xTB          :
 * total energy  :   -82.9635364 Eh     change       -0.1715250E-10 Eh
 * total energy  :   -82.9748790 Eh     change       -0.1134264E-01 Eh
 * total energy  :   -82.9798155 Eh     change       -0.4936480E-02 Eh
 * total energy  :   -82.9809356 Eh     change       -0.1120070E-02 Eh
 * total energy  :   -82.9819100 Eh     change       -0.9744297E-03 Eh
 * total energy  :   -82.9826309 Eh     change       -0.7208499E-03 Eh
 * total energy  :   -82.9832376 Eh     change       -0.6067033E-03 Eh
 * total energy  :   -82.9836466 Eh     change       -0.4090755E-03 Eh
 * total energy  :   -82.9838212 Eh     change       -0.1745956E-03 Eh
 * total energy  :   -82.9839046 Eh     change       -0.8331814E-04 Eh
 * total energy  :   -82.9848531 Eh     change       -0.1996459E-04 Eh
 * total energy  :   -82.9848712 Eh     change       -0.1811066E-04 Eh
 * total energy  :   -82.9848761 Eh     change       -0.4867160E-05 Eh
 * total energy  :   -82.9848876 Eh     change       -0.1147610E-04 Eh
 * total energy  :   -82.9848971 Eh     change       -0.9529508E-05 Eh
 * total energy  :   -82.9849042 Eh     change       -0.7101099E-05 Eh
 * total energy  :   -82.9849066 Eh     change       -0.2348116E-05 Eh
 * total energy  :   -82.9849122 Eh     change       -0.5654823E-05 Eh
 * total energy  :   -82.9849143 Eh     change       -0.2061973E-05 Eh
   *** GEOMETRY OPTIMIZATION CONVERGED AFTER 58 ITERATIONS ***

 final structure:
================
42
 xtb: 6.5.1 (579679a)
C           -3.76483201826568       -3.77145347094112        0.20080110659617
O           -3.49979365686572       -2.38153346126365        0.43341503314876
C           -2.61665065879838       -1.80212194367788       -0.35922801279420
O           -2.03581046278451       -2.35133532144871       -1.26042054085491
C           -2.39347507122102       -0.34649765707267        0.00755023113170
C           -3.51682211581865        0.47899967007803        0.53150820607976
O           -4.67840168342115        0.18211250036129        0.40786398780688
C           -3.08040486200271        1.77870978694005        1.21006361179402
O           -3.81578082382905        2.42214978437069        1.93167780940470
N           -1.80784850672086        2.14223712872294        0.94909368432366
C           -0.86687899547250        1.46836282795670        0.07359975416518
C           -0.85098823650280        2.18186467555001       -1.28747614778017
C            0.52871483959339        1.41119891746577        0.79527724511709
C            1.08297022501538        2.79535083278946        1.13317619059980
C            0.37065828126186        0.59503591395439        2.08280177011987
N            1.45158257849692        0.66743250506822       -0.05492077703514
C            2.18236993934576        1.16785091715676       -1.07199663923234
O            2.16192261189573        2.32064349795793       -1.47156747773296
C            3.04675222776072        0.13804407295865       -1.70270423762141
N            3.81579718188319        0.27531411081781       -2.73764517854384
N            4.40116569922615       -0.93522612244735       -2.95676767972538
C            3.95393874583196       -1.73822755854997       -2.04188633227861
C            4.29588501824583       -3.16247694454265       -1.83840646425767
O            3.09084543396819       -1.12208404002442       -1.21715335576182
N           -1.22266304911292        0.11331725598598       -0.20100493985799
H           -4.48850911276214       -4.07811409554320        0.95265332592178
H           -4.17119385242663       -3.90983678575100       -0.80314531208439
H           -2.84133616131588       -4.34462864471087        0.30222969401256
H           -1.52724263327530        3.04132144722253        1.30971334232223
H           -1.87297581351969        2.24021286192918       -1.65781820407787
H           -0.24668722543527        1.61905951403699       -1.99417455827949
H           -0.44908336992850        3.18596068559591       -1.18310594546708
H            0.51176176019871        3.22947055656130        1.95169444955172
H            1.04981715609999        3.47159681418043        0.28263921728608
H            2.11854131458518        2.69282018497946        1.45417261115642
H           -0.35057841314637        1.07468027153674        2.74201657812807
H            0.02314967219565       -0.41150789244721        1.85378678300037
H            1.32865415294315        0.53138321301321        2.59510054689801
H            1.54255175527961       -0.31586699772247        0.14921785620306
H            4.84943415965967       -3.28006003712636       -0.90671966918468
H            3.38673724099221       -3.75792284999686       -1.76619465973544
H            4.90470572814051       -3.51623912390432       -2.66702890246769

          :  Hamiltonian                  GFN1-xTB          :
         :: total energy             -82.984914270730 Eh    ::
         :: gradient norm              0.000297150690 Eh/a0 ::
         :: HOMO-LUMO gap              1.772399021226 eV    ::
         :: SCC energy               -83.766048539855 Eh    ::
         :: -> Gsolv                  -0.057350053779 Eh    ::
         :: repulsion energy           0.808654508802 Eh    ::

    * Orbital Energies and Occupations

         #    Occupation            Energy/Eh            Energy/eV
      -------------------------------------------------------------
         1        2.0000           -0.8676774             -23.6107
       ...           ...                  ...                  ...
        55        2.0000           -0.5083281             -13.8323
        56        2.0000           -0.5071364             -13.7999
        57        2.0000           -0.5052025             -13.7473
        58        2.0000           -0.4995680             -13.5939
        59        2.0000           -0.4952565             -13.4766
        60        2.0000           -0.4819769             -13.1153
        61        2.0000           -0.4794869             -13.0475
        62        2.0000           -0.4713205             -12.8253
        63        2.0000           -0.4678860             -12.7318
        64        2.0000           -0.4604205             -12.5287
        65        2.0000           -0.4540776             -12.3561
        66        2.0000           -0.4490141             -12.2183
        67        2.0000           -0.4368221             -11.8865 (HOMO)
        68                         -0.3716876             -10.1141 (LUMO)
        69                         -0.3156503              -8.5893
        70                         -0.3131966              -8.5225
        71                         -0.2586535              -7.0383
        72                         -0.2527044              -6.8764
        73                         -0.2030415              -5.5250
        74                         -0.2004819              -5.4554
        75                         -0.1434316              -3.9030
        76                         -0.1413514              -3.8464
        77                         -0.1377135              -3.7474
        78                         -0.1356708              -3.6918
       ...                                ...                  ...
       134                          0.7669628              20.8701
      -------------------------------------------------------------
                  HL-Gap            0.0651345 Eh            1.7724 eV

Wiberg/Mayer (AO) data.
largest (>0.10) Wiberg bond orders for each atom

     #   Z sym  total        # sym  WBO       # sym  WBO       # sym  WBO
 ---------------------------------------------------------------------------
     1   6 C    3.859 --    26 H    0.985    28 H    0.979    27 H    0.979
                             2 O    0.884
     2   8 O    2.224 --     3 C    1.147     1 C    0.884     4 O    0.146
     3   6 C    3.852 --     4 O    1.687     2 O    1.147     5 C    0.942
     4   8 O    1.947 --     3 C    1.687     2 O    0.146
     5   6 C    3.954 --    25 N    1.786     6 C    0.998     3 C    0.942
     6   6 C    3.858 --     7 O    1.796     5 C    0.998     8 C    0.909
     7   8 O    2.003 --     6 C    1.796
     8   6 C    3.903 --     9 O    1.631    10 N    1.249     6 C    0.909
     9   8 O    1.924 --     8 C    1.631    10 N    0.186
    10   7 N    3.367 --     8 C    1.249    11 C    0.937    29 H    0.884
                             9 O    0.186
    11   6 C    3.909 --    25 N    1.006    12 C    0.947    10 N    0.937
                            13 C    0.910
    12   6 C    3.981 --    30 H    0.983    31 H    0.981    32 H    0.977
                            11 C    0.947
    13   6 C    3.927 --    14 C    1.000    15 C    0.999    16 N    0.939
                            11 C    0.910
    14   6 C    3.988 --    13 C    1.000    33 H    0.981    35 H    0.980
                            34 H    0.975
    15   6 C    3.990 --    13 C    0.999    38 H    0.983    36 H    0.983
                            37 H    0.981
    16   7 N    3.355 --    17 C    1.255    13 C    0.939    39 H    0.893
                            18 O    0.176
    17   6 C    3.916 --    18 O    1.581    16 N    1.255    19 C    0.993
    18   8 O    1.902 --    17 C    1.581    16 N    0.176
    19   6 C    3.873 --    20 N    1.623    24 O    1.047    17 C    0.993
    20   7 N    3.000 --    19 C    1.623    21 N    1.199
    21   7 N    2.981 --    22 C    1.610    20 N    1.199
    22   6 C    3.868 --    21 N    1.610    24 O    1.072    23 C    1.032
    23   6 C    3.986 --    22 C    1.032    42 H    0.982    41 H    0.966
                            40 H    0.960
    24   8 O    2.316 --    22 C    1.072    19 C    1.047
    25   7 N    3.044 --     5 C    1.786    11 C    1.006
    26   1 H    1.009 --     1 C    0.985
    27   1 H    1.004 --     1 C    0.979
    28   1 H    1.005 --     1 C    0.979
    29   1 H    0.929 --    10 N    0.884
    30   1 H    1.001 --    12 C    0.983
    31   1 H    1.004 --    12 C    0.981
    32   1 H    1.005 --    12 C    0.977
    33   1 H    0.999 --    14 C    0.981
    34   1 H    1.012 --    14 C    0.975
    35   1 H    0.998 --    14 C    0.980
    36   1 H    1.002 --    15 C    0.983
    37   1 H    1.002 --    15 C    0.981
    38   1 H    0.998 --    15 C    0.983
    39   1 H    0.943 --    16 N    0.893
    40   1 H    0.997 --    23 C    0.960
    41   1 H    0.996 --    23 C    0.966
    42   1 H    0.998 --    23 C    0.982
 ---------------------------------------------------------------------------

           -------------------------------------------------
          | TOTAL ENERGY              -82.984914270730 Eh   |
          | GRADIENT NORM               0.000297150690 Eh/α |
          | HOMO-LUMO GAP               1.772399021226 eV   |
           -------------------------------------------------

 * finished run on 2023/06/21 at 17:41:38.466
