   * xtb version 6.5.1 (579679a) compiled by 'ehlert@majestix' on 2022-07-11
          program call               : /lustre/hpc/kemi/ree/PhD/git/ReactivityQM/dep/xtb-6.5.1/bin/xtb --gfn 1 /lustre/hpc/kemi/ree/PhD/git/ReactivityQM/calculations/R02oxygendeprot/reac01prodN12/conf11/R02oxygendeprot_reac01prodN12_conf11_gfn1.xyz --opt --vfukui --chrg 0 --uhf 0 --alpb DMSO

   ID    Z sym.   atoms
    1    6 C      1, 3, 5, 7-10, 12, 14, 15, 18, 19, 22, 24
    2    8 O      2, 4, 13, 20, 23, 25
    3    7 N      6, 11, 16, 17, 21
    4    1 H      26-42

      * Solvation model:               ALPB
        Solvent                        DMSO
        Solvent mass                       7.8130E+01 g/mol
          :  Hamiltonian                  GFN1-xTB          :
 * total energy  :   -82.9301923 Eh     change       -0.2753495E-09 Eh
 * total energy  :   -82.9401610 Eh     change       -0.9968785E-02 Eh
 * total energy  :   -82.9437304 Eh     change       -0.3569336E-02 Eh
 * total energy  :   -82.9443879 Eh     change       -0.6575260E-03 Eh
 * total energy  :   -82.9449081 Eh     change       -0.5202203E-03 Eh
 * total energy  :   -82.9451731 Eh     change       -0.2650108E-03 Eh
 * total energy  :   -82.9453503 Eh     change       -0.1771910E-03 Eh
 * total energy  :   -82.9454447 Eh     change       -0.9432590E-04 Eh
 * total energy  :   -82.9455009 Eh     change       -0.5620125E-04 Eh
 * total energy  :   -82.9455473 Eh     change       -0.4649078E-04 Eh
 * total energy  :   -82.9460339 Eh     change       -0.7630953E-05 Eh
 * total energy  :   -82.9460404 Eh     change       -0.6536106E-05 Eh
 * total energy  :   -82.9460460 Eh     change       -0.5610820E-05 Eh
 * total energy  :   -82.9460525 Eh     change       -0.6460092E-05 Eh
 * total energy  :   -82.9460638 Eh     change       -0.1127191E-04 Eh
 * total energy  :   -82.9460829 Eh     change       -0.1915573E-04 Eh
 * total energy  :   -82.9460982 Eh     change       -0.1528855E-04 Eh
 * total energy  :   -82.9461056 Eh     change       -0.7357984E-05 Eh
 * total energy  :   -82.9461106 Eh     change       -0.4988513E-05 Eh
   *** GEOMETRY OPTIMIZATION CONVERGED AFTER 35 ITERATIONS ***

 final structure:
================
42
 xtb: 6.5.1 (579679a)
C            6.08193567047307       -1.25137963799644       -0.13436855973920
O            4.75452883562590       -0.78879541041382        0.11004578459205
C            4.42547143844124       -0.59514848507074        1.40274207381308
O            5.21153361808806       -0.80075918237431        2.30313245785376
C            3.03528805023809       -0.12075973427148        1.55585379906756
N            2.33797836409359        0.03850382713138        0.40119153284093
C            1.12017131004676        0.47492134772847        0.41865303531372
C            0.36406752631892        0.67081369606077       -0.87291862993411
C            0.11299740422618        2.16570874224268       -1.10982531872920
C            1.13361758350563        0.03852013790251       -2.03341727421838
N           -0.93637150812502       -0.01802123986932       -0.70092417105672
C           -1.86842721844566       -0.04856387097207       -1.64312627393687
O           -1.83411010754450        0.44472454726667       -2.74365495439580
C           -3.17134778986733       -0.84666606950703       -1.17925936217876
C           -3.88478989348423       -1.38864766600743       -2.41239017947692
N           -2.82003951824146       -1.84506599934326       -0.23430865907376
N           -3.33326538933783       -1.53436453514454        0.91389937515471
C           -4.03238066493506       -0.40211203388427        0.76852945270566
C           -4.79695175962517        0.27951175742004        1.82131860795987
O           -3.98454554379375        0.05875427313606       -0.45496887968380
N            0.47700467622940        0.78625631232867        1.58394811132036
C            1.04230732754065        0.65159643179657        2.83895911325603
O            0.39543485356338        0.93481626421340        3.83058823681332
C            2.47107216202389        0.14677133189167        2.84865457204214
O            3.04940880925031        0.00050985778678        3.92578202532022
H            6.81168902078966       -0.52366866847416        0.23142367681049
H            6.24887650764446       -2.20944361663395        0.36590185432310
H            6.17946751182687       -1.36954758199437       -1.21183670023296
H           -0.39857088108569        2.31496483560248       -2.05852333346297
H           -0.50059240573535        2.57301460060812       -0.30873371506899
H            1.06545887231752        2.69294504959226       -1.13348503582906
H            2.11721285248067        0.50073937043934       -2.10178498294436
H            1.25789506923389       -1.02933715907630       -1.85972382060073
H            0.59988911243649        0.19258268027913       -2.96850209187868
H           -1.10431841288573       -0.51865577622696        0.15880668667301
H           -4.05635024581156       -0.56995860660815       -3.10841242474914
H           -4.83357466954710       -1.82728354146437       -2.11389445605699
H           -3.25763731644213       -2.14343522171613       -2.88072805838227
H           -5.85630930317496        0.03969050416991        1.70203008802815
H           -4.69155945542999        1.35899336264015        1.72364219684599
H           -4.46929162918309       -0.05469546890048        2.80294877491271
H           -0.46287386369690        1.14543957570091        1.55673342597505

          :  Hamiltonian                  GFN1-xTB          :
         :: total energy             -82.946110567317 Eh    ::
         :: gradient norm              0.000300622254 Eh/a0 ::
         :: HOMO-LUMO gap              0.090598649651 eV    ::
         :: SCC energy               -83.716766895796 Eh    ::
         :: -> Gsolv                  -0.076566508476 Eh    ::
         :: repulsion energy           0.797298092692 Eh    ::

    * Orbital Energies and Occupations

         #    Occupation            Energy/Eh            Energy/eV
      -------------------------------------------------------------
         1        2.0000           -0.8904631             -24.2307
       ...           ...                  ...                  ...
        55        2.0000           -0.5118380             -13.9278
        56        2.0000           -0.5098165             -13.8728
        57        2.0000           -0.5064195             -13.7804
        58        2.0000           -0.4964101             -13.5080
        59        2.0000           -0.4882169             -13.2851
        60        2.0000           -0.4876291             -13.2691
        61        2.0000           -0.4789256             -13.0322
        62        2.0000           -0.4762553             -12.9596
        63        2.0000           -0.4753991             -12.9363
        64        2.0000           -0.4687566             -12.7555
        65        2.0000           -0.4548732             -12.3777
        66        2.0000           -0.4150466             -11.2940
        67        1.7045           -0.4015675             -10.9272 (HOMO)
        68        0.2955           -0.3982381             -10.8366 (LUMO)
        69                         -0.3035224              -8.2593
        70                         -0.2943772              -8.0104
        71                         -0.2813693              -7.6564
        72                         -0.2781425              -7.5686
        73                         -0.2286566              -6.2221
        74                         -0.1582516              -4.3062
        75                         -0.1486681              -4.0455
        76                         -0.1410357              -3.8378
        77                         -0.1362142              -3.7066
        78                         -0.1332287              -3.6253
       ...                                ...                  ...
       134                          0.7540996              20.5201
      -------------------------------------------------------------
                  HL-Gap            0.0033294 Eh            0.0906 eV

Wiberg/Mayer (AO) data.
largest (>0.10) Wiberg bond orders for each atom

     #   Z sym  total        # sym  WBO       # sym  WBO       # sym  WBO
 ---------------------------------------------------------------------------
     1   6 C    3.881 --    28 H    0.986    27 H    0.980    26 H    0.979
                             2 O    0.908
     2   8 O    2.167 --     3 C    1.076     1 C    0.908     4 O    0.126
     3   6 C    3.841 --     4 O    1.638     2 O    1.076     5 C    1.044
     4   8 O    1.883 --     3 C    1.638     2 O    0.126
     5   6 C    3.740 --     6 N    1.255    24 C    1.186     3 C    1.044
     6   7 N    3.001 --     7 C    1.525     5 C    1.255
     7   6 C    3.849 --     6 N    1.525    21 N    1.152     8 C    0.985
     8   6 C    3.917 --    10 C    0.995     7 C    0.985     9 C    0.980
                            11 N    0.890
     9   6 C    3.982 --    31 H    0.984    30 H    0.983     8 C    0.980
                            29 H    0.979
    10   6 C    3.988 --     8 C    0.995    33 H    0.984    32 H    0.982
                            34 H    0.982
    11   7 N    3.366 --    12 C    1.333     8 C    0.890    35 H    0.887
                            13 O    0.179
    12   6 C    3.869 --    13 O    1.644    11 N    1.333    14 C    0.790
    13   8 O    1.991 --    12 C    1.644    11 N    0.179
    14   6 C    3.843 --    16 N    1.073    15 C    0.944    20 O    0.898
                            12 C    0.790
    15   6 C    3.940 --    38 H    0.981    37 H    0.980    36 H    0.976
                            14 C    0.944
    16   7 N    2.732 --    17 N    1.474    14 C    1.073
    17   7 N    2.961 --    16 N    1.474    18 C    1.328
    18   6 C    3.710 --    17 N    1.328    20 O    1.191    19 C    1.054
    19   6 C    3.971 --    18 C    1.054    41 H    0.974    40 H    0.959
                            39 H    0.930
    20   8 O    2.253 --    18 C    1.191    14 C    0.898
    21   7 N    3.425 --     7 C    1.152    22 C    1.116    42 H    0.890
                            23 O    0.119
    22   6 C    3.847 --    23 O    1.639    21 N    1.116    24 C    0.952
    23   8 O    1.873 --    22 C    1.639    21 N    0.119
    24   6 C    3.885 --    25 O    1.597     5 C    1.186    22 C    0.952
    25   8 O    1.797 --    24 C    1.597
    26   1 H    1.008 --     1 C    0.979
    27   1 H    1.009 --     1 C    0.980
    28   1 H    1.013 --     1 C    0.986
    29   1 H    1.003 --     9 C    0.979
    30   1 H    1.000 --     9 C    0.983
    31   1 H    0.999 --     9 C    0.984
    32   1 H    1.009 --    10 C    0.982
    33   1 H    1.005 --    10 C    0.984
    34   1 H    1.005 --    10 C    0.982
    35   1 H    0.941 --    11 N    0.887
    36   1 H    1.001 --    15 C    0.976
    37   1 H    0.995 --    15 C    0.980
    38   1 H    0.997 --    15 C    0.981
    39   1 H    0.977 --    19 C    0.930
    40   1 H    0.986 --    19 C    0.959
    41   1 H    0.992 --    19 C    0.974
    42   1 H    0.935 --    21 N    0.890
 ---------------------------------------------------------------------------

           -------------------------------------------------
          | TOTAL ENERGY              -82.946110567317 Eh   |
          | GRADIENT NORM               0.000300622254 Eh/α |
          | HOMO-LUMO GAP               0.090598649651 eV   |
           -------------------------------------------------

 * finished run on 2023/06/21 at 17:27:42.115
