   * xtb version 6.5.1 (579679a) compiled by 'ehlert@majestix' on 2022-07-11
          program call               : /lustre/hpc/kemi/ree/PhD/git/ReactivityQM/dep/xtb-6.5.1/bin/xtb --gfn 1 /lustre/hpc/kemi/ree/PhD/git/ReactivityQM/calculations/R02deprot/reac01prodN17/conf13/R02deprot_reac01prodN17_conf13_gfn1.xyz --opt --vfukui --chrg 0 --uhf 0 --alpb DMSO

   ID    Z sym.   atoms
    1    6 C      1, 2, 5, 6, 9-12, 14, 15, 18-20, 22
    2    7 N      3, 4, 8, 13, 24
    3    8 O      7, 16, 17, 21, 23, 25
    4    1 H      26-42

      * Solvation model:               ALPB
        Solvent                        DMSO
        Solvent mass                       7.8130E+01 g/mol
          :  Hamiltonian                  GFN1-xTB          :
 * total energy  :   -82.9067496 Eh     change       -0.2728484E-11 Eh
 * total energy  :   -82.9205452 Eh     change       -0.1379561E-01 Eh
 * total energy  :   -82.9258408 Eh     change       -0.5295647E-02 Eh
 * total energy  :   -82.9269845 Eh     change       -0.1143638E-02 Eh
 * total energy  :   -82.9279529 Eh     change       -0.9684562E-03 Eh
 * total energy  :   -82.9287385 Eh     change       -0.7855386E-03 Eh
 * total energy  :   -82.9294381 Eh     change       -0.6996028E-03 Eh
 * total energy  :   -82.9300670 Eh     change       -0.6288794E-03 Eh
 * total energy  :   -82.9305741 Eh     change       -0.5071729E-03 Eh
 * total energy  :   -82.9310062 Eh     change       -0.4320271E-03 Eh
 * total energy  :   -82.9343718 Eh     change       -0.5383769E-05 Eh
 * total energy  :   -82.9343779 Eh     change       -0.6069154E-05 Eh
 * total energy  :   -82.9343845 Eh     change       -0.6607064E-05 Eh
 * total energy  :   -82.9343913 Eh     change       -0.6747828E-05 Eh
 * total energy  :   -82.9343982 Eh     change       -0.6924085E-05 Eh
 * total energy  :   -82.9344051 Eh     change       -0.6870260E-05 Eh
 * total energy  :   -82.9344114 Eh     change       -0.6326997E-05 Eh
 * total energy  :   -82.9344165 Eh     change       -0.5109786E-05 Eh
 * total energy  :   -82.9344207 Eh     change       -0.4165164E-05 Eh
   *** GEOMETRY OPTIMIZATION CONVERGED AFTER 60 ITERATIONS ***

 final structure:
================
42
 xtb: 6.5.1 (579679a)
C           -5.71203499383214        2.23855060041219       -1.81190228430492
C           -5.54672049518921        1.18299648759069       -0.78847647353190
N           -6.47390055907719        0.54016272170991       -0.15025182057266
N           -5.84059572845501       -0.33885029458453        0.68057936626455
C           -4.56690631641573       -0.17602848160038        0.49748960366269
C           -3.44825283680355       -0.90629794041517        1.15786222570762
O           -3.65633892254830       -1.81465018407586        1.95176619305682
N           -2.24639710679288       -0.46097786691104        0.77319797177252
C           -0.97146935010861       -1.00070990219374        1.23790360783947
C           -0.83727267128434       -0.80248005464289        2.75578403562917
C           -0.86023152885470       -2.48435909890738        0.86717525602057
C            0.12985877409491       -0.20811681695329        0.54625471445199
N            1.33139823379602       -0.73521579548384        0.60141498423150
C            2.35627780482988       -0.05067156070164       -0.01201854553016
C            3.61143174727205       -0.71046423501410        0.11820955763540
O            3.97540506800931       -1.67693728021181        0.69573192556751
O            4.74870491330369        0.05626312442236       -0.63649998248411
C            6.03666006448484       -0.15725023076287       -0.01104855048795
C            4.75417906930715       -0.20443470979365       -2.06341147129321
C            2.09082595570504        1.15756750255164       -0.62582328187675
O            2.97854989861785        1.92073517573043       -1.25896776714076
C            0.71678529522710        1.69829192010274       -0.61966515250314
O            0.53401222839452        2.79158616847917       -1.17212388520316
N           -0.22561856696204        0.94832868758212       -0.01833678933986
O           -4.31875829645848        0.77909520163861       -0.42477512804700
H           -6.76958926764763        2.43759269823778       -1.96609106386041
H           -5.26019808614590        1.91865797184483       -2.75077850605073
H           -5.21030185890875        3.15132300961693       -1.49117141309278
H           -2.17428090411700        0.32742955313145        0.13807350542692
H           -0.95991742010593        0.25074367950546        3.00510978681096
H           -1.59141450768206       -1.38555295358130        3.28271884768583
H            0.15248120665913       -1.12848248576735        3.07184840869054
H           -1.60104239720831       -3.07076183801431        1.40850332051169
H           -1.01509105558018       -2.61157198786147       -0.20337372416859
H            0.13656925962705       -2.84052128725321        1.12314380310003
H            6.32353614957902       -1.20574251447924       -0.09838100272664
H            6.74750871829090        0.48607110709089       -0.52284315451707
H            5.93340038053227        0.13259816818079        1.03227379857661
H            5.12164618859007       -1.21325449451871       -2.25319955847174
H            5.40237252801589        0.54135731957105       -2.51810682385685
H            3.73414310524443       -0.08617576437038       -2.41885440857212
H            2.47058628059232        2.71015568076988       -1.57393012490565

          :  Hamiltonian                  GFN1-xTB          :
         :: total energy             -82.934420657581 Eh    ::
         :: gradient norm              0.000200730571 Eh/a0 ::
         :: HOMO-LUMO gap              1.679254569547 eV    ::
         :: SCC energy               -83.714966213471 Eh    ::
         :: -> Gsolv                  -0.069583062186 Eh    ::
         :: repulsion energy           0.806136567350 Eh    ::

    * Orbital Energies and Occupations

         #    Occupation            Energy/Eh            Energy/eV
      -------------------------------------------------------------
         1        2.0000           -0.9011685             -24.5220
       ...           ...                  ...                  ...
        55        2.0000           -0.4991052             -13.5813
        56        2.0000           -0.4899309             -13.3317
        57        2.0000           -0.4878440             -13.2749
        58        2.0000           -0.4738673             -12.8946
        59        2.0000           -0.4668061             -12.7024
        60        2.0000           -0.4578178             -12.4579
        61        2.0000           -0.4561246             -12.4118
        62        2.0000           -0.4519786             -12.2990
        63        2.0000           -0.4448045             -12.1037
        64        2.0000           -0.4349965             -11.8369
        65        2.0000           -0.4307739             -11.7220
        66        2.0000           -0.4039781             -10.9928
        67        2.0000           -0.4032266             -10.9724 (HOMO)
        68                         -0.3415151              -9.2931 (LUMO)
        69                         -0.3010400              -8.1917
        70                         -0.2572041              -6.9989
        71                         -0.2518933              -6.8544
        72                         -0.2333691              -6.3503
        73                         -0.1895231              -5.1572
        74                         -0.1705630              -4.6413
        75                         -0.1597447              -4.3469
        76                         -0.1414497              -3.8490
        77                         -0.1399758              -3.8089
        78                         -0.1389284              -3.7804
       ...                                ...                  ...
       134                          0.7839878              21.3334
      -------------------------------------------------------------
                  HL-Gap            0.0617115 Eh            1.6793 eV

Wiberg/Mayer (AO) data.
largest (>0.10) Wiberg bond orders for each atom

     #   Z sym  total        # sym  WBO       # sym  WBO       # sym  WBO
 ---------------------------------------------------------------------------
     1   6 C    3.987 --     2 C    1.031    26 H    0.983    28 H    0.964
                            27 H    0.963
     2   6 C    3.871 --     3 N    1.616    25 O    1.073     1 C    1.031
     3   7 N    2.980 --     2 C    1.616     4 N    1.192
     4   7 N    2.995 --     5 C    1.627     3 N    1.192
     5   6 C    3.869 --     4 N    1.627    25 O    1.049     6 C    0.985
     6   6 C    3.923 --     7 O    1.561     8 N    1.295     5 C    0.985
     7   8 O    1.881 --     6 C    1.561     8 N    0.185
     8   7 N    3.380 --     6 C    1.295     9 C    0.927    29 H    0.873
                             7 O    0.185
     9   6 C    3.934 --    11 C    0.987    10 C    0.977    12 C    0.975
                             8 N    0.927
    10   6 C    3.991 --    30 H    0.986    32 H    0.986    31 H    0.982
                             9 C    0.977
    11   6 C    3.991 --     9 C    0.987    34 H    0.986    35 H    0.984
                            33 H    0.983
    12   6 C    3.951 --    13 N    1.479    24 N    1.343     9 C    0.975
    13   7 N    2.989 --    12 C    1.479    14 C    1.160
    14   6 C    3.955 --    20 C    1.387    15 C    1.164    13 N    1.160
    15   6 C    3.790 --    16 O    1.799    14 C    1.164    17 O    0.656
    16   8 O    2.086 --    15 C    1.799
    17   8 O    2.458 --    18 C    0.842    19 C    0.834    15 C    0.656
    18   6 C    3.813 --    36 H    0.979    37 H    0.978    38 H    0.978
                            17 O    0.842
    19   6 C    3.809 --    39 H    0.982    40 H    0.977    41 H    0.975
                            17 O    0.834
    20   6 C    3.893 --    14 C    1.387    21 O    1.132    22 C    1.036
    21   8 O    2.110 --    20 C    1.132    42 H    0.780
    22   6 C    3.931 --    23 O    1.501    24 N    1.263    20 C    1.036
    23   8 O    1.851 --    22 C    1.501    24 N    0.134
    24   7 N    3.021 --    12 C    1.343    22 C    1.263    23 O    0.134
    25   8 O    2.317 --     2 C    1.073     5 C    1.049
    26   1 H    0.999 --     1 C    0.983
    27   1 H    0.997 --     1 C    0.963
    28   1 H    0.997 --     1 C    0.964
    29   1 H    0.964 --     8 N    0.873
    30   1 H    1.004 --    10 C    0.986
    31   1 H    1.010 --    10 C    0.982
    32   1 H    1.007 --    10 C    0.986
    33   1 H    1.011 --    11 C    0.983
    34   1 H    1.004 --    11 C    0.986
    35   1 H    1.016 --    11 C    0.984
    36   1 H    1.001 --    18 C    0.979
    37   1 H    0.997 --    18 C    0.978
    38   1 H    0.999 --    18 C    0.978
    39   1 H    0.995 --    19 C    0.982
    40   1 H    0.999 --    19 C    0.977
    41   1 H    1.006 --    19 C    0.975
    42   1 H    0.849 --    21 O    0.780
 ---------------------------------------------------------------------------

           -------------------------------------------------
          | TOTAL ENERGY              -82.934420657581 Eh   |
          | GRADIENT NORM               0.000200730571 Eh/α |
          | HOMO-LUMO GAP               1.679254569547 eV   |
           -------------------------------------------------

 * finished run on 2023/06/20 at 18:28:22.235
