   * xtb version 6.5.1 (579679a) compiled by 'ehlert@majestix' on 2022-07-11
          program call               : /lustre/hpc/kemi/ree/PhD/git/ReactivityQM/dep/xtb-6.5.1/bin/xtb --gfn 1 /lustre/hpc/kemi/ree/PhD/git/ReactivityQM/calculations/R02methylcation/reac01prodN03/conf10/R02methylcation_reac01prodN03_conf10_gfn1.xyz --opt --vfukui --chrg 0 --uhf 0 --alpb DMSO

   ID    Z sym.   atoms
    1    6 C      1, 3, 5, 6, 8-11, 13, 15, 18, 19, 22, 24
    2    8 O      2, 4, 14, 20, 23, 25
    3    7 N      7, 12, 16, 17, 21
    4    1 H      26-42

      * Solvation model:               ALPB
        Solvent                        DMSO
        Solvent mass                       7.8130E+01 g/mol
          :  Hamiltonian                  GFN1-xTB          :
 * total energy  :   -82.9823591 Eh     change       -0.7304379E-11 Eh
 * total energy  :   -82.9936203 Eh     change       -0.1126122E-01 Eh
 * total energy  :   -82.9983307 Eh     change       -0.4710408E-02 Eh
 * total energy  :   -82.9993335 Eh     change       -0.1002746E-02 Eh
 * total energy  :   -82.9998763 Eh     change       -0.5428104E-03 Eh
 * total energy  :   -83.0001051 Eh     change       -0.2287801E-03 Eh
 * total energy  :   -83.0002470 Eh     change       -0.1419661E-03 Eh
 * total energy  :   -83.0003612 Eh     change       -0.1141631E-03 Eh
 * total energy  :   -83.0004713 Eh     change       -0.1101194E-03 Eh
 * total energy  :   -83.0005788 Eh     change       -0.1074681E-03 Eh
 * total energy  :   -83.0030078 Eh     change       -0.1331211E-04 Eh
 * total energy  :   -83.0030207 Eh     change       -0.1297179E-04 Eh
 * total energy  :   -83.0030330 Eh     change       -0.1229923E-04 Eh
 * total energy  :   -83.0030450 Eh     change       -0.1202174E-04 Eh
 * total energy  :   -83.0030557 Eh     change       -0.1070257E-04 Eh
 * total energy  :   -83.0030647 Eh     change       -0.8922433E-05 Eh
 * total energy  :   -83.0030742 Eh     change       -0.9498239E-05 Eh
 * total energy  :   -83.0030816 Eh     change       -0.7438778E-05 Eh
 * total energy  :   -83.0030843 Eh     change       -0.2696393E-05 Eh
   *** GEOMETRY OPTIMIZATION CONVERGED AFTER 90 ITERATIONS ***

 final structure:
================
42
 xtb: 6.5.1 (579679a)
C            6.04027269381533        0.46901099027961        0.50609407651725
O            4.97505797313467       -0.26502081044588       -0.11836235767551
C            3.74461662823541        0.09259596468402        0.18155961910140
O            3.44170740994161        0.99309521932683        0.91794139376649
C            2.69161433901656       -0.77015752662048       -0.57288027624480
C            3.24722921582242       -2.14045826526333       -0.95893618981839
N            1.58336670436658       -0.92773610172500        0.34002507935622
C            0.65434630304683       -0.06459165714808        0.38427390060606
C           -0.42731948045097       -0.19750647370867        1.44771712202911
C           -0.21425177443953       -1.49587224624610        2.22776006978554
C           -0.36917061700731        1.00022697817746        2.40418772427504
N           -1.74494353726989       -0.29871004113878        0.80743109031634
C           -2.44787751884649        0.71276802035330        0.26213798252594
O           -2.05823009018825        1.86227096731161        0.12283121503129
C           -3.78092608411455        0.24806835559999       -0.19093163231299
N           -4.23338974838615       -0.96836988001219       -0.12185554431329
N           -5.48466685203998       -0.95228934836354       -0.65727475903671
C           -5.71728918207623        0.27425577318003       -1.01863675333678
C           -6.94094725109134        0.81250060191119       -1.65177302647745
O           -4.67776044931265        1.07795004539589       -0.75228654622950
N            0.56501101209619        1.02030376723661       -0.47188157466860
C            1.31785274178145        1.16856538763991       -1.59365655817605
O            1.16332422248586        2.07912438206114       -2.37719444774580
C            2.36658009707890        0.06768857712329       -1.79740700417389
O            2.91951928138895       -0.08565752809395       -2.85508615659311
H            5.94516229084134        1.53130198514055        0.27338767950565
H            6.96634548340501        0.06794443263213        0.10163547088737
H            6.00026339453263        0.32545813207458        1.58706730704070
H            2.45781470209874       -2.72716989233338       -1.42510869565343
H            3.59953211573663       -2.65877108137282       -0.07031385271151
H            4.06926413382803       -2.02364530036751       -1.66223058838263
H            0.75736234805707       -1.47261645071065        2.71821225741474
H           -0.24207110387641       -2.35179064489474        1.55542903998890
H           -0.99122357582550       -1.60530170589845        2.98158246046888
H           -1.16610798286526        0.91454217332208        3.14068858625473
H           -0.48007445409307        1.94265345010137        1.87294182634610
H            0.59179442073738        0.99688516285477        2.91693337465991
H           -2.19945982909151       -1.19872444448791        0.85921993555592
H           -7.67736908491978        0.01961606747873       -1.75637022362906
H           -6.70319597863323        1.22205492388387       -2.63368282234324
H           -7.35225058215476        1.61652057207322       -1.04194375979459
H           -0.18951433476144        1.68898346899580       -0.32672744210963

          :  Hamiltonian                  GFN1-xTB          :
         :: total energy             -83.003084302500 Eh    ::
         :: gradient norm              0.000368776412 Eh/a0 ::
         :: HOMO-LUMO gap              2.382550935898 eV    ::
         :: SCC energy               -83.788385784512 Eh    ::
         :: -> Gsolv                  -0.049257946717 Eh    ::
         :: repulsion energy           0.812029089023 Eh    ::

    * Orbital Energies and Occupations

         #    Occupation            Energy/Eh            Energy/eV
      -------------------------------------------------------------
         1        2.0000           -0.8668500             -23.5882
       ...           ...                  ...                  ...
        55        2.0000           -0.5114372             -13.9169
        56        2.0000           -0.5095863             -13.8665
        57        2.0000           -0.5091528             -13.8548
        58        2.0000           -0.5043874             -13.7251
        59        2.0000           -0.4908124             -13.3557
        60        2.0000           -0.4862613             -13.2318
        61        2.0000           -0.4748834             -12.9222
        62        2.0000           -0.4701025             -12.7921
        63        2.0000           -0.4620976             -12.5743
        64        2.0000           -0.4570441             -12.4368
        65        2.0000           -0.4561882             -12.4135
        66        2.0000           -0.4504612             -12.2577
        67        2.0000           -0.4383310             -11.9276 (HOMO)
        68                         -0.3507739              -9.5450 (LUMO)
        69                         -0.3165144              -8.6128
        70                         -0.2959643              -8.0536
        71                         -0.2694749              -7.3328
        72                         -0.2596870              -7.0664
        73                         -0.2217854              -6.0351
        74                         -0.2042756              -5.5586
        75                         -0.1470053              -4.0002
        76                         -0.1432713              -3.8986
        77                         -0.1314882              -3.5780
        78                         -0.1266173              -3.4454
       ...                                ...                  ...
       134                          0.7592749              20.6609
      -------------------------------------------------------------
                  HL-Gap            0.0875571 Eh            2.3826 eV

Wiberg/Mayer (AO) data.
largest (>0.10) Wiberg bond orders for each atom

     #   Z sym  total        # sym  WBO       # sym  WBO       # sym  WBO
 ---------------------------------------------------------------------------
     1   6 C    3.853 --    27 H    0.985    26 H    0.980    28 H    0.980
                             2 O    0.875
     2   8 O    2.230 --     3 C    1.156     1 C    0.875     4 O    0.139
     3   6 C    3.845 --     4 O    1.695     2 O    1.156     5 C    0.865
     4   8 O    1.964 --     3 C    1.695     2 O    0.139
     5   6 C    3.964 --     6 C    0.983     7 N    0.981    24 C    0.947
                             3 C    0.865
     6   6 C    3.985 --    30 H    0.985    29 H    0.984     5 C    0.983
                            31 H    0.982
     7   7 N    3.026 --     8 C    1.753     5 C    0.981
     8   6 C    3.929 --     7 N    1.753    21 N    1.082     9 C    0.966
     9   6 C    3.933 --    10 C    1.001    11 C    0.982     8 C    0.966
                            12 N    0.918
    10   6 C    3.990 --     9 C    1.001    34 H    0.985    33 H    0.983
                            32 H    0.982
    11   6 C    3.988 --    37 H    0.984    35 H    0.983     9 C    0.982
                            36 H    0.978
    12   7 N    3.347 --    13 C    1.264     9 C    0.918    38 H    0.891
                            14 O    0.175
    13   6 C    3.915 --    14 O    1.569    12 N    1.264    15 C    0.995
    14   8 O    1.924 --    13 C    1.569    12 N    0.175
    15   6 C    3.877 --    16 N    1.606    20 O    1.065    13 C    0.995
    16   7 N    3.019 --    15 C    1.606    17 N    1.204
    17   7 N    2.981 --    18 C    1.600    16 N    1.204
    18   6 C    3.869 --    17 N    1.600    20 O    1.084    19 C    1.032
    19   6 C    3.986 --    18 C    1.032    39 H    0.982    41 H    0.963
                            40 H    0.962
    20   8 O    2.333 --    18 C    1.084    15 C    1.065
    21   7 N    3.439 --    22 C    1.198     8 C    1.082    42 H    0.848
                            23 O    0.150
    22   6 C    3.897 --    23 O    1.665    21 N    1.198    24 C    0.906
    23   8 O    1.952 --    22 C    1.665    21 N    0.150
    24   6 C    3.845 --    25 O    1.810     5 C    0.947    22 C    0.906
    25   8 O    2.024 --    24 C    1.810
    26   1 H    1.004 --     1 C    0.980
    27   1 H    1.007 --     1 C    0.985
    28   1 H    1.003 --     1 C    0.980
    29   1 H    1.001 --     6 C    0.984
    30   1 H    1.003 --     6 C    0.985
    31   1 H    1.008 --     6 C    0.982
    32   1 H    1.007 --    10 C    0.982
    33   1 H    1.004 --    10 C    0.983
    34   1 H    0.999 --    10 C    0.985
    35   1 H    0.999 --    11 C    0.983
    36   1 H    1.008 --    11 C    0.978
    37   1 H    1.000 --    11 C    0.984
    38   1 H    0.948 --    12 N    0.891
    39   1 H    0.998 --    19 C    0.982
    40   1 H    0.996 --    19 C    0.962
    41   1 H    0.996 --    19 C    0.963
    42   1 H    0.929 --    21 N    0.848
 ---------------------------------------------------------------------------

           -------------------------------------------------
          | TOTAL ENERGY              -83.003084302500 Eh   |
          | GRADIENT NORM               0.000368776412 Eh/α |
          | HOMO-LUMO GAP               2.382550935898 eV   |
           -------------------------------------------------

 * finished run on 2023/06/21 at 17:32:28.465
