                         Program Version 5.0.1 -  RELEASE  -
|  1> # ORCA input file
|  2> ! SP r2SCAN-3c CPCM
|  3>
|  4> %maxcore 1875.0
|  5> %pal nprocs 4 end
|  6> %cpcm smd true SMDsolvent "DMSO" end
|  7>
|  8> *xyz 1 1
|  9> C       2.377826    1.287780    2.198053
| 10> O       1.683638    0.466785    1.227706
| 11> C       2.325844    0.081646    0.174649
| 12> O       3.461336    0.251396   -0.128832
| 13> C       1.340915   -0.751668   -0.817075
| 14> C       2.064066   -0.884276   -2.158903
| 15> N       0.175519    0.062642   -0.918686
| 16> C      -0.857375   -0.183688   -0.206812
| 17> C      -2.063722    0.729207   -0.228534
| 18> C      -1.765190    1.884480    0.738513
| 19> C      -2.308479    1.250668   -1.649038
| 20> N      -3.196966   -0.031909    0.278697
| 21> N      -0.953037   -1.244310    0.669518
| 22> C      -0.016933   -2.207672    0.806552
| 23> O      -0.084536   -3.191482    1.510855
| 24> C       1.175039   -1.983799   -0.066979
| 25> O       2.066905   -2.898134   -0.082048
| 26> H       3.422450    0.981204    2.259027
| 27> H       1.863860    1.129360    3.143262
| 28> H       2.301745    2.330885    1.889826
| 29> H       3.002901   -1.416060   -2.020763
| 30> H       2.257760    0.109078   -2.557063
| 31> H       1.427435   -1.434109   -2.848136
| 32> H      -1.647988    1.499694    1.750522
| 33> H      -0.847756    2.391162    0.441899
| 34> H      -2.588522    2.596625    0.721443
| 35> H      -1.424421    1.777644   -2.006546
| 36> H      -3.157566    1.931363   -1.646386
| 37> H      -2.520915    0.420306   -2.320522
| 38> H      -3.611539   -0.574990   -0.466036
| 39> H      -3.902031    0.592829    0.643502
| 40> H      -1.852348   -1.325083    1.148192
| 41> H       1.852084   -3.647571    0.520144
| 42> **                         ****END OF INPUT****

CARTESIAN COORDINATES (ANGSTROEM)
---------------------------------
  C      2.377826    1.287780    2.198053
  O      1.683638    0.466785    1.227706
  C      2.325844    0.081646    0.174649
  O      3.461336    0.251396   -0.128832
  C      1.340915   -0.751668   -0.817075
  C      2.064066   -0.884276   -2.158903
  N      0.175519    0.062642   -0.918686
  C     -0.857375   -0.183688   -0.206812
  C     -2.063722    0.729207   -0.228534
  C     -1.765190    1.884480    0.738513
  C     -2.308479    1.250668   -1.649038
  N     -3.196966   -0.031909    0.278697
  N     -0.953037   -1.244310    0.669518
  C     -0.016933   -2.207672    0.806552
  O     -0.084536   -3.191482    1.510855
  C      1.175039   -1.983799   -0.066979
  O      2.066905   -2.898134   -0.082048
  H      3.422450    0.981204    2.259027
  H      1.863860    1.129360    3.143262
  H      2.301745    2.330885    1.889826
  H      3.002901   -1.416060   -2.020763
  H      2.257760    0.109078   -2.557063
  H      1.427435   -1.434109   -2.848136
  H     -1.647988    1.499694    1.750522
  H     -0.847756    2.391162    0.441899
  H     -2.588522    2.596625    0.721443
  H     -1.424421    1.777644   -2.006546
  H     -3.157566    1.931363   -1.646386
  H     -2.520915    0.420306   -2.320522
  H     -3.611539   -0.574990   -0.466036
  H     -3.902031    0.592829    0.643502
  H     -1.852348   -1.325083    1.148192
  H      1.852084   -3.647571    0.520144

 Total Charge           Charge          ....    1
 Multiplicity           Mult            ....    1
 Number of Electrons    NEL             ....  128
 Basis Dimension        Dim             ....  438

ORBITAL ENERGIES
----------------

  NO   OCC          E(Eh)            E(eV)
   0   2.0000     -19.100918      -519.7624
   1   2.0000     -19.050393      -518.3875
   2   2.0000     -18.996685      -516.9261
   3   2.0000     -18.986510      -516.6492
   4   2.0000     -14.252251      -387.8235
   5   2.0000     -14.187461      -386.0604
   6   2.0000     -14.151995      -385.0954
   7   2.0000     -10.220077      -278.1024
   8   2.0000     -10.217823      -278.0411
   9   2.0000     -10.198528      -277.5161
  10   2.0000     -10.150414      -276.2068
  11   2.0000     -10.146900      -276.1112
  12   2.0000     -10.098837      -274.8033
  13   2.0000     -10.094799      -274.6934
  14   2.0000     -10.050145      -273.4783
  15   2.0000     -10.028252      -272.8826
  16   2.0000     -10.021270      -272.6926
  17   2.0000      -1.159772       -31.5590
  18   2.0000      -1.132388       -30.8138
  19   2.0000      -1.071365       -29.1533
  20   2.0000      -1.048014       -28.5179
  21   2.0000      -0.999336       -27.1933
  22   2.0000      -0.915567       -24.9138
  23   2.0000      -0.881531       -23.9877
  24   2.0000      -0.821891       -22.3648
  25   2.0000      -0.738651       -20.0997
  26   2.0000      -0.735727       -20.0202
  27   2.0000      -0.729348       -19.8466
  28   2.0000      -0.687347       -18.7037
  29   2.0000      -0.664653       -18.0861
  30   2.0000      -0.644503       -17.5378
  31   2.0000      -0.630718       -17.1627
  32   2.0000      -0.577262       -15.7081
  33   2.0000      -0.571384       -15.5482
  34   2.0000      -0.562112       -15.2958
  35   2.0000      -0.541120       -14.7246
  36   2.0000      -0.526092       -14.3157
  37   2.0000      -0.498163       -13.5557
  38   2.0000      -0.488624       -13.2961
  39   2.0000      -0.476815       -12.9748
  40   2.0000      -0.472999       -12.8710
  41   2.0000      -0.462247       -12.5784
  42   2.0000      -0.449733       -12.2378
  43   2.0000      -0.443035       -12.0556
  44   2.0000      -0.430841       -11.7238
  45   2.0000      -0.423870       -11.5341
  46   2.0000      -0.422958       -11.5093
  47   2.0000      -0.406681       -11.0663
  48   2.0000      -0.400495       -10.8980
  49   2.0000      -0.386474       -10.5165
  50   2.0000      -0.376373       -10.2416
  51   2.0000      -0.370387       -10.0787
  52   2.0000      -0.366015        -9.9598
  53   2.0000      -0.353534        -9.6202
  54   2.0000      -0.350360        -9.5338
  55   2.0000      -0.347638        -9.4597
  56   2.0000      -0.341032        -9.2799
  57   2.0000      -0.321937        -8.7604
  58   2.0000      -0.318684        -8.6718
  59   2.0000      -0.309276        -8.4158
  60   2.0000      -0.294353        -8.0097
  61   2.0000      -0.281368        -7.6564
  62   2.0000      -0.266683        -7.2568
  63   2.0000      -0.233783        -6.3616
  64   0.0000      -0.189862        -5.1664
  65   0.0000      -0.085951        -2.3389
  66   0.0000      -0.033124        -0.9013
  67   0.0000       0.002929         0.0797
  68   0.0000       0.016304         0.4437

MULLIKEN ATOMIC CHARGES
-----------------------
   0 C :   -0.292138
   1 O :   -0.102883
   2 C :    0.278970
   3 O :   -0.312859
   4 C :    0.040945
   5 C :   -0.481602
   6 N :   -0.284766
   7 C :    0.299425
   8 C :    0.164132
   9 C :   -0.590121
  10 C :   -0.539669
  11 N :   -0.689710
  12 N :   -0.020951
  13 C :    0.114800
  14 O :   -0.398431
  15 C :    0.423512
  16 O :   -0.274631
  17 H :    0.191247
  18 H :    0.196567
  19 H :    0.201128
  20 H :    0.198252
  21 H :    0.209164
  22 H :    0.208657
  23 H :    0.186560
  24 H :    0.193788
  25 H :    0.189394
  26 H :    0.178011
  27 H :    0.183957
  28 H :    0.176886
  29 H :    0.293735
  30 H :    0.305042
  31 H :    0.346461
  32 H :    0.407128
Sum of atomic charges:    1.0000000

LOEWDIN ATOMIC CHARGES
----------------------
   0 C :   -0.006883
   1 O :   -0.533288
   2 C :    0.424867
   3 O :   -0.325849
   4 C :    0.136037
   5 C :   -0.294257
   6 N :   -0.556471
   7 C :    0.371348
   8 C :    0.063033
   9 C :   -0.344008
  10 C :   -0.361421
  11 N :   -0.665199
  12 N :   -0.425355
  13 C :    0.376243
  14 O :   -0.388260
  15 C :    0.423278
  16 O :   -0.281439
  17 H :    0.195289
  18 H :    0.198640
  19 H :    0.195148
  20 H :    0.189135
  21 H :    0.192536
  22 H :    0.185586
  23 H :    0.174668
  24 H :    0.175512
  25 H :    0.174121
  26 H :    0.173854
  27 H :    0.169684
  28 H :    0.171074
  29 H :    0.258530
  30 H :    0.262650
  31 H :    0.325964
  32 H :    0.345234

  Mayer bond orders larger than 0.100000
B(  0-C ,  1-O ) :   0.7907 B(  0-C , 17-H ) :   0.9494 B(  0-C , 18-H ) :   0.9519
B(  0-C , 19-H ) :   0.9400 B(  1-O ,  2-C ) :   1.1631 B(  2-C ,  3-O ) :   1.8983
B(  2-C ,  4-C ) :   0.9011 B(  2-C , 15-C ) :   0.1701 B(  4-C ,  5-C ) :   0.9213
B(  4-C ,  6-N ) :   0.8134 B(  4-C , 15-C ) :   1.0543 B(  5-C , 20-H ) :   0.9445
B(  5-C , 21-H ) :   0.9463 B(  5-C , 22-H ) :   0.9665 B(  6-N ,  7-C ) :   1.6907
B(  7-C ,  8-C ) :   0.8980 B(  7-C , 12-N ) :   1.0771 B(  8-C ,  9-C ) :   0.8978
B(  8-C , 10-C ) :   0.9566 B(  8-C , 11-N ) :   0.8778 B(  9-C , 23-H ) :   0.9536
B(  9-C , 24-H ) :   0.9668 B(  9-C , 25-H ) :   0.9576 B( 10-C , 26-H ) :   0.9651
B( 10-C , 27-H ) :   0.9677 B( 10-C , 28-H ) :   0.9633 B( 11-N , 29-H ) :   0.9107
B( 11-N , 30-H ) :   0.9042 B( 12-N , 13-C ) :   1.1499 B( 12-N , 31-H ) :   0.8292
B( 13-C , 14-O ) :   1.9647 B( 13-C , 15-C ) :   0.8736 B( 15-C , 16-O ) :   1.2454
B( 16-O , 32-H ) :   0.7873

Dispersion correction           -0.013879246
FINAL SINGLE POINT ENERGY      -855.532009234670

DIPOLE MOMENT
-------------
                                X             Y             Z
Electronic contribution:      9.16368     -13.50767       3.17016
Nuclear contribution   :     -9.99920      13.35070      -2.78162
                        -----------------------------------------
Total Dipole Moment    :     -0.83552      -0.15697       0.38854
                        -----------------------------------------
Magnitude (a.u.)       :      0.93472
Magnitude (Debye)      :      2.37587

Rotational constants in cm-1:     0.021334     0.013238     0.011540
Rotational constants in MHz :   639.590163   396.863165   345.974370

                             ****ORCA TERMINATED NORMALLY****
TOTAL RUN TIME: 0 days 0 hours 1 minutes 25 seconds 826 msec
