   * xtb version 6.5.1 (579679a) compiled by 'ehlert@majestix' on 2022-07-11
          program call               : /lustre/hpc/kemi/ree/PhD/git/ReactivityQM/dep/xtb-6.5.1/bin/xtb --gfn 1 /lustre/hpc/kemi/ree/PhD/git/ReactivityQM/calculations/R01/reac02prodN06/conf15/R01_reac02prodN06_conf15_gfn1.xyz --opt --vfukui --chrg 1 --uhf 0 --alpb DMSO

   ID    Z sym.   atoms
    1    6 C      1, 3, 5, 6, 8-11, 14, 16
    2    8 O      2, 4, 15, 17
    3    7 N      7, 12, 13
    4    1 H      18-33

      * Solvation model:               ALPB
        Solvent                        DMSO
        Solvent mass                       7.8130E+01 g/mol
          :  Hamiltonian                  GFN1-xTB          :
 * total energy  :   -57.7970201 Eh     change       -0.2501110E-11 Eh
 * total energy  :   -57.8119532 Eh     change       -0.1493305E-01 Eh
 * total energy  :   -57.8177849 Eh     change       -0.5831698E-02 Eh
 * total energy  :   -57.8190649 Eh     change       -0.1280067E-02 Eh
 * total energy  :   -57.8198644 Eh     change       -0.7995044E-03 Eh
 * total energy  :   -57.8201183 Eh     change       -0.2538605E-03 Eh
 * total energy  :   -57.8203469 Eh     change       -0.2285675E-03 Eh
 * total energy  :   -57.8204638 Eh     change       -0.1169383E-03 Eh
 * total energy  :   -57.8205542 Eh     change       -0.9036136E-04 Eh
 * total energy  :   -57.8206443 Eh     change       -0.9014947E-04 Eh
 * total energy  :   -57.8213244 Eh     change       -0.2940576E-04 Eh
 * total energy  :   -57.8213552 Eh     change       -0.3081380E-04 Eh
 * total energy  :   -57.8213824 Eh     change       -0.2720615E-04 Eh
 * total energy  :   -57.8214025 Eh     change       -0.2005336E-04 Eh
 * total energy  :   -57.8214142 Eh     change       -0.1176506E-04 Eh
 * total energy  :   -57.8214214 Eh     change       -0.7146976E-05 Eh
 * total energy  :   -57.8214274 Eh     change       -0.6069440E-05 Eh
 * total energy  :   -57.8214333 Eh     change       -0.5898547E-05 Eh
 * total energy  :   -57.8214380 Eh     change       -0.4652632E-05 Eh
   *** GEOMETRY OPTIMIZATION CONVERGED AFTER 37 ITERATIONS ***

 final structure:
================
33
 xtb: 6.5.1 (579679a)
C            2.37782571467483        1.28778009374540        2.19805321744461
O            1.68363804021088        0.46678462012443        1.22770557203483
C            2.32584396592489        0.08164649773696        0.17464857973477
O            3.46133613465724        0.25139550720100       -0.12883183524731
C            1.34091531313404       -0.75166771646289       -0.81707475446444
C            2.06406623758979       -0.88427573113055       -2.15890293316113
N            0.17551900544303        0.06264166136576       -0.91868554290689
C           -0.85737509084600       -0.18368848599974       -0.20681221786870
C           -2.06372187071536        0.72920696763961       -0.22853401124778
C           -1.76519017049530        1.88447960444077        0.73851344147735
C           -2.30847872217851        1.25066765492179       -1.64903762356381
N           -3.19696636271686       -0.03190913333563        0.27869655608290
N           -0.95303717444456       -1.24431002486557        0.66951754836730
C           -0.01693277920655       -2.20767211500829        0.80655178172431
O           -0.08453599736094       -3.19148227325654        1.51085548691653
C            1.17503878740634       -1.98379934372674       -0.06697905467548
O            2.06690523156902       -2.89813438200443       -0.08204819435924
H            3.42245010661580        0.98120353073287        2.25902708974267
H            1.86385998200082        1.12936009722959        3.14326218799234
H            2.30174507862281        2.33088541346721        1.88982587028338
H            3.00290089171160       -1.41606018562589       -2.02076314636753
H            2.25775973479183        0.10907824892844       -2.55706292037720
H            1.42743468933434       -1.43410871122846       -2.84813573907997
H           -1.64798828487986        1.49969448506392        1.75052247365225
H           -0.84775601216781        2.39116161824806        0.44189876579439
H           -2.58852178803007        2.59662489695555        0.72144346401919
H           -1.42442121781393        1.77764382233712       -2.00654555383604
H           -3.15756598608562        1.93136329867514       -1.64638623737435
H           -2.52091468391978        0.42030631399197       -2.32052166740486
H           -3.61153888540304       -0.57499042413903       -0.46603557854099
H           -3.90203075738537        0.59282937096384        0.64350181500750
H           -1.85234754119576       -1.32508280733726        1.14819218107047
H            1.85208441116134       -3.64757136965506        0.52014397912884

          :  Hamiltonian                  GFN1-xTB          :
         :: total energy             -57.821437989117 Eh    ::
         :: gradient norm              0.000488131689 Eh/a0 ::
         :: HOMO-LUMO gap              0.382964365249 eV    ::
         :: SCC energy               -58.400174873784 Eh    ::
         :: -> Gsolv                  -0.094403914197 Eh    ::
         :: repulsion energy           0.598779536780 Eh    ::

    * Orbital Energies and Occupations

         #    Occupation            Energy/Eh            Energy/eV
      -------------------------------------------------------------
         1        2.0000           -0.9145614             -24.8865
       ...           ...                  ...                  ...
        35        2.0000           -0.5509919             -14.9933
        36        2.0000           -0.5482002             -14.9173
        37        2.0000           -0.5405867             -14.7101
        38        2.0000           -0.5349448             -14.5566
        39        2.0000           -0.5307005             -14.4411
        40        2.0000           -0.5277857             -14.3618
        41        2.0000           -0.5227897             -14.2258
        42        2.0000           -0.5183220             -14.1043
        43        2.0000           -0.5055618             -13.7570
        44        2.0000           -0.5025621             -13.6754
        45        2.0000           -0.4900538             -13.3350
        46        2.0000           -0.4859434             -13.2232
        47        1.9988           -0.4360545             -11.8656 (HOMO)
        48        0.0012           -0.4219808             -11.4827 (LUMO)
        49                         -0.3313589              -9.0167
        50                         -0.3050457              -8.3007
        51                         -0.2617498              -7.1226
        52                         -0.1662152              -4.5229
        53                         -0.1536394              -4.1807
        54                         -0.1497137              -4.0739
        55                         -0.1361978              -3.7061
        56                         -0.1328629              -3.6154
        57                         -0.1191090              -3.2411
        58                         -0.1071622              -2.9160
       ...                                ...                  ...
       100                          0.7442804              20.2529
      -------------------------------------------------------------
                  HL-Gap            0.0140737 Eh            0.3830 eV

Wiberg/Mayer (AO) data.
largest (>0.10) Wiberg bond orders for each atom

     #   Z sym  total        # sym  WBO       # sym  WBO       # sym  WBO
 ---------------------------------------------------------------------------
     1   6 C    3.819 --    19 H    0.980    18 H    0.980    20 H    0.976
                             2 O    0.839
     2   8 O    2.252 --     3 C    1.216     1 C    0.839     4 O    0.148
     3   6 C    3.855 --     4 O    1.746     2 O    1.216     5 C    0.710
     4   8 O    2.086 --     3 C    1.746     2 O    0.148
     5   6 C    3.958 --    16 C    1.102     7 N    1.020     6 C    0.954
                             3 C    0.710
     6   6 C    3.967 --    21 H    0.981    22 H    0.980    23 H    0.978
                             5 C    0.954
     7   7 N    3.021 --     8 C    1.674     5 C    1.020
     8   6 C    3.903 --     7 N    1.674    13 N    1.110     9 C    0.975
     9   6 C    3.960 --    12 N    0.991    11 C    0.984     8 C    0.975
                            10 C    0.971
    10   6 C    3.990 --    24 H    0.985    25 H    0.985    26 H    0.980
                             9 C    0.971
    11   6 C    3.991 --    29 H    0.984    28 H    0.984     9 C    0.984
                            27 H    0.982
    12   7 N    2.997 --     9 C    0.991    30 H    0.933    31 H    0.928
    13   7 N    3.494 --    14 C    1.211     8 C    1.110    32 H    0.839
                            15 O    0.168
    14   6 C    3.924 --    15 O    1.624    13 N    1.211    16 C    0.975
    15   8 O    1.965 --    14 C    1.624    13 N    0.168
    16   6 C    3.803 --    17 O    1.355     5 C    1.102    14 C    0.975
    17   8 O    2.276 --    16 C    1.355    33 H    0.745
    18   1 H    0.998 --     1 C    0.980
    19   1 H    1.003 --     1 C    0.980
    20   1 H    0.998 --     1 C    0.976
    21   1 H    0.999 --     6 C    0.981
    22   1 H    0.998 --     6 C    0.980
    23   1 H    0.995 --     6 C    0.978
    24   1 H    1.000 --    10 C    0.985
    25   1 H    1.003 --    10 C    0.985
    26   1 H    0.997 --    10 C    0.980
    27   1 H    1.006 --    11 C    0.982
    28   1 H    1.000 --    11 C    0.984
    29   1 H    1.001 --    11 C    0.984
    30   1 H    0.946 --    12 N    0.933
    31   1 H    0.942 --    12 N    0.928
    32   1 H    0.931 --    13 N    0.839
    33   1 H    0.790 --    17 O    0.745
 ---------------------------------------------------------------------------

           -------------------------------------------------
          | TOTAL ENERGY              -57.821437989117 Eh   |
          | GRADIENT NORM               0.000488131689 Eh/α |
          | HOMO-LUMO GAP               0.382964365249 eV   |
           -------------------------------------------------

 * finished run on 2023/06/20 at 15:07:03.105
