   * xtb version 6.5.1 (579679a) compiled by 'ehlert@majestix' on 2022-07-11
          program call               : /lustre/hpc/kemi/ree/PhD/git/ReactivityQM/dep/xtb-6.5.1/bin/xtb --gfn 1 /lustre/hpc/kemi/ree/PhD/git/ReactivityQM/calculations/RaltegravirCLI/reac02prodN04/conf10/RaltegravirCLI_reac02prodN04_conf10_gfn1.xyz --opt --vfukui --chrg 1 --uhf 0 --alpb DMSO

   ID    Z sym.   atoms
    1    6 C      1, 3-6, 9-11, 14-18, 20-22, 24
    2    7 N      2, 7, 8, 13
    3    8 O      12, 23, 25
    4    9 F      19
    5    1 H      26-47

      * Solvation model:               ALPB
        Solvent                        DMSO
        Solvent mass                       7.8130E+01 g/mol
          :  Hamiltonian                  GFN1-xTB          :
 * total energy  :   -79.4965503 Eh     change       -0.2108891E-10 Eh
 * total energy  :   -79.5113022 Eh     change       -0.1475187E-01 Eh
 * total energy  :   -79.5164696 Eh     change       -0.5167410E-02 Eh
 * total energy  :   -79.5177905 Eh     change       -0.1320900E-02 Eh
 * total energy  :   -79.5188777 Eh     change       -0.1087232E-02 Eh
 * total energy  :   -79.5195383 Eh     change       -0.6605502E-03 Eh
 * total energy  :   -79.5201649 Eh     change       -0.6265755E-03 Eh
 * total energy  :   -79.5207755 Eh     change       -0.6106106E-03 Eh
 * total energy  :   -79.5213447 Eh     change       -0.5691825E-03 Eh
 * total energy  :   -79.5217943 Eh     change       -0.4496223E-03 Eh
 * total energy  :   -79.5244053 Eh     change       -0.2583005E-04 Eh
 * total energy  :   -79.5244307 Eh     change       -0.2545887E-04 Eh
 * total energy  :   -79.5244585 Eh     change       -0.2779400E-04 Eh
 * total energy  :   -79.5244781 Eh     change       -0.1956184E-04 Eh
 * total energy  :   -79.5244912 Eh     change       -0.1311866E-04 Eh
 * total energy  :   -79.5245043 Eh     change       -0.1304789E-04 Eh
 * total energy  :   -79.5245117 Eh     change       -0.7446560E-05 Eh
 * total energy  :   -79.5245179 Eh     change       -0.6164179E-05 Eh
 * total energy  :   -79.5245205 Eh     change       -0.2660673E-05 Eh
   *** GEOMETRY OPTIMIZATION CONVERGED AFTER 42 ITERATIONS ***

 final structure:
================
47
 xtb: 6.5.1 (579679a)
C           -3.58879449191705        0.07536279994693        2.26562660504205
N           -2.37613354654968        0.13851096517522        1.43632435040012
C           -2.36842584240902        0.08973348601695        0.08625526038441
C           -3.55362697508316       -0.49746805610596       -0.69600232024815
C           -4.19896652940862       -1.68622522290513        0.04932358960478
C           -4.60474850850066        0.57298017063460       -1.02090898634342
N           -3.03003791318775       -1.02877577915412       -1.94941651951411
N           -1.25150517443984        0.46551773606535       -0.54520748513366
C           -1.26505994758147        0.88102542159631       -1.96128117742070
C           -0.03189285016364        0.62915557905430        0.10507115811903
C            1.22909672064212        0.72780537977372       -0.73145452813709
O            1.33894036720679        0.12533636098334       -1.78833452530093
N            2.18502473543606        1.49354434785724       -0.20241909069238
C            3.49157103327236        1.60652254606261       -0.85739791035356
C            4.38614934410096        0.46037742437883       -0.43836868397495
C            5.21004055821619        0.58533761340444        0.67734505091212
C            6.01654461612398       -0.47008976544732        1.07984761500800
C            5.97515726502612       -1.64279461562432        0.34739133972720
F            6.75156270959482       -2.66779126009323        0.72977361591117
C            5.16538232102418       -1.80143363592416       -0.76275667487382
C            4.36655226524715       -0.73592069707876       -1.15189625055686
C           -0.00411262923192        0.52827255370146        1.45877824170281
O            1.11915477527805        0.62918416377365        2.17502159601456
C           -1.22830529108006        0.34290284137535        2.21261101666871
O           -1.26382019855132        0.35775882030415        3.42650567900989
H           -3.70516626692525       -0.92590223216213        2.67541031003399
H           -3.44863675568898        0.77928137841594        3.08619900451440
H           -4.45630094774843        0.36768767945674        1.68920385149208
H           -4.99897117836382       -1.37690196935115        0.71590670168384
H           -4.63771834808614       -2.34445295081875       -0.69937134613116
H           -3.45330737589584       -2.25018799968856        0.60602941783356
H           -4.97846638414450        1.04679854062140       -0.11612506438432
H           -5.43864667055864        0.09835415066058       -1.53554018638984
H           -4.18720308647862        1.34194896808231       -1.66788799025674
H           -2.56254825898022       -1.90848543017671       -1.77304318914417
H           -3.80315104868530       -1.20525887449104       -2.57549765724034
H           -0.59264399595073        1.73092260507605       -2.05989255836742
H           -0.92904674490929        0.06398008908502       -2.59528217754525
H           -2.26609163952399        1.18363178027236       -2.24081224057780
H            2.06808255629824        1.92705571008142        0.69635341050294
H            3.32590463570134        1.59194874074173       -1.93829033049854
H            3.92100240898152        2.56668287827158       -0.56664693925835
H            5.22413950929980        1.51278937396592        1.23705364238109
H            6.66176049332475       -0.38675700279340        1.94496019097807
H            5.15998661441312       -2.73689664728654       -1.30688260767396
H            3.71952858659903       -0.83581207633885       -2.01536093009004
H            0.90774808423337        0.58074411060139        3.12649472217978

          :  Hamiltonian                  GFN1-xTB          :
         :: total energy             -79.524520523525 Eh    ::
         :: gradient norm              0.000723575120 Eh/a0 ::
         :: HOMO-LUMO gap              2.316514444670 eV    ::
         :: SCC energy               -80.425397047555 Eh    ::
         :: -> Gsolv                  -0.107460158272 Eh    ::
         :: repulsion energy           0.932265793681 Eh    ::

    * Orbital Energies and Occupations

         #    Occupation            Energy/Eh            Energy/eV
      -------------------------------------------------------------
         1        2.0000           -0.8795558             -23.9339
       ...           ...                  ...                  ...
        55        2.0000           -0.5186821             -14.1141
        56        2.0000           -0.5160084             -14.0413
        57        2.0000           -0.5145798             -14.0024
        58        2.0000           -0.5123994             -13.9431
        59        2.0000           -0.5088728             -13.8471
        60        2.0000           -0.5056894             -13.7605
        61        2.0000           -0.4808854             -13.0856
        62        2.0000           -0.4779195             -13.0049
        63        2.0000           -0.4709921             -12.8163
        64        2.0000           -0.4600555             -12.5187
        65        2.0000           -0.4574270             -12.4472
        66        2.0000           -0.4442982             -12.0900
        67        2.0000           -0.4374653             -11.9040 (HOMO)
        68                         -0.3523350              -9.5875 (LUMO)
        69                         -0.3503381              -9.5332
        70                         -0.2793747              -7.6022
        71                         -0.2748730              -7.4797
        72                         -0.2673888              -7.2760
        73                         -0.2095248              -5.7015
        74                         -0.1624285              -4.4199
        75                         -0.1527716              -4.1571
        76                         -0.1518727              -4.1327
        77                         -0.1449978              -3.9456
        78                         -0.1369918              -3.7277
       ...                                ...                  ...
       144                          0.6954063              18.9230
      -------------------------------------------------------------
                  HL-Gap            0.0851303 Eh            2.3165 eV

Wiberg/Mayer (AO) data.
largest (>0.10) Wiberg bond orders for each atom

     #   Z sym  total        # sym  WBO       # sym  WBO       # sym  WBO
 ---------------------------------------------------------------------------
     1   6 C    3.896 --    28 H    0.977    26 H    0.972    27 H    0.967
                             2 N    0.910
     2   7 N    3.529 --     3 C    1.280    24 C    1.072     1 C    0.910
                            25 O    0.118
     3   6 C    3.886 --     8 N    1.369     2 N    1.280     4 C    0.968
     4   6 C    3.954 --     7 N    0.994     6 C    0.978     5 C    0.977
                             3 C    0.968
     5   6 C    3.987 --    31 H    0.984    29 H    0.979    30 H    0.978
                             4 C    0.977
     6   6 C    3.987 --    33 H    0.979     4 C    0.978    32 H    0.977
                            34 H    0.977
     7   7 N    2.976 --     4 C    0.994    35 H    0.935    36 H    0.929
     8   7 N    3.575 --     3 C    1.369    10 C    1.099     9 C    0.900
     9   6 C    3.890 --    39 H    0.977    37 H    0.975    38 H    0.966
                             8 N    0.900
    10   6 C    3.922 --    22 C    1.537     8 N    1.099    11 C    0.958
    11   6 C    3.920 --    12 O    1.571    13 N    1.315    10 C    0.958
    12   8 O    1.914 --    11 C    1.571    13 N    0.184
    13   7 N    3.385 --    11 C    1.315    14 C    0.924    40 H    0.889
                            12 O    0.184
    14   6 C    3.933 --    15 C    0.993    42 H    0.976    41 H    0.971
                            13 N    0.924
    15   6 C    3.987 --    16 C    1.420    21 C    1.418    14 C    0.993
    16   6 C    3.994 --    17 C    1.443    15 C    1.420    43 H    0.971
                            20 C    0.110
    17   6 C    3.991 --    16 C    1.443    18 C    1.400    44 H    0.969
                            21 C    0.111
    18   6 C    3.861 --    17 C    1.400    20 C    1.400    19 F    0.928
    19   9 F    1.057 --    18 C    0.928
    20   6 C    3.992 --    21 C    1.445    18 C    1.400    45 H    0.969
                            16 C    0.110
    21   6 C    3.993 --    20 C    1.445    15 C    1.418    46 H    0.969
                            17 C    0.111
    22   6 C    3.927 --    10 C    1.537    23 O    1.107    24 C    1.067
    23   8 O    2.086 --    22 C    1.107    47 H    0.790
    24   6 C    3.908 --    25 O    1.622     2 N    1.072    22 C    1.067
    25   8 O    1.953 --    24 C    1.622     2 N    0.118
    26   1 H    0.997 --     1 C    0.972
    27   1 H    0.999 --     1 C    0.967
    28   1 H    1.004 --     1 C    0.977
    29   1 H    1.000 --     5 C    0.979
    30   1 H    0.998 --     5 C    0.978
    31   1 H    0.997 --     5 C    0.984
    32   1 H    1.001 --     6 C    0.977
    33   1 H    0.995 --     6 C    0.979
    34   1 H    1.001 --     6 C    0.977
    35   1 H    0.948 --     7 N    0.935
    36   1 H    0.944 --     7 N    0.929
    37   1 H    1.000 --     9 C    0.975
    38   1 H    1.023 --     9 C    0.966
    39   1 H    1.017 --     9 C    0.977
    40   1 H    0.936 --    13 N    0.889
    41   1 H    1.005 --    14 C    0.971
    42   1 H    1.001 --    14 C    0.976
    43   1 H    0.998 --    16 C    0.971
    44   1 H    0.997 --    17 C    0.969
    45   1 H    0.998 --    20 C    0.969
    46   1 H    1.009 --    21 C    0.969
    47   1 H    0.824 --    23 O    0.790
 ---------------------------------------------------------------------------

           -------------------------------------------------
          | TOTAL ENERGY              -79.524520523525 Eh   |
          | GRADIENT NORM               0.000723575120 Eh/α |
          | HOMO-LUMO GAP               2.316514444670 eV   |
           -------------------------------------------------

 * finished run on 2023/06/20 at 15:20:19.721
