   * xtb version 6.5.1 (579679a) compiled by 'ehlert@majestix' on 2022-07-11
          program call               : /lustre/hpc/kemi/ree/PhD/git/ReactivityQM/dep/xtb-6.5.1/bin/xtb --gfn 1 /lustre/hpc/kemi/ree/PhD/git/ReactivityQM/calculations/RaltegravirCLI/reac02prodN17/conf04/RaltegravirCLI_reac02prodN17_conf04_gfn1.xyz --opt --vfukui --chrg 1 --uhf 0 --alpb DMSO

   ID    Z sym.   atoms
    1    6 C      1, 3, 4, 6, 7, 10-14, 16, 17, 19-22, 25
    2    8 O      2, 5, 8
    3    7 N      9, 18, 23, 24
    4    9 F      15
    5    1 H      26-47

      * Solvation model:               ALPB
        Solvent                        DMSO
        Solvent mass                       7.8130E+01 g/mol
          :  Hamiltonian                  GFN1-xTB          :
 * total energy  :   -79.4975587 Eh     change       -0.1011813E-10 Eh
 * total energy  :   -79.5127137 Eh     change       -0.1515503E-01 Eh
 * total energy  :   -79.5180304 Eh     change       -0.5316699E-02 Eh
 * total energy  :   -79.5191129 Eh     change       -0.1082497E-02 Eh
 * total energy  :   -79.5199043 Eh     change       -0.7913511E-03 Eh
 * total energy  :   -79.5202475 Eh     change       -0.3432643E-03 Eh
 * total energy  :   -79.5205193 Eh     change       -0.2717427E-03 Eh
 * total energy  :   -79.5206900 Eh     change       -0.1707060E-03 Eh
 * total energy  :   -79.5207781 Eh     change       -0.8808708E-04 Eh
 * total energy  :   -79.5208283 Eh     change       -0.5024164E-04 Eh
 * total energy  :   -79.5210754 Eh     change       -0.6832678E-05 Eh
 * total energy  :   -79.5210810 Eh     change       -0.5619405E-05 Eh
 * total energy  :   -79.5210885 Eh     change       -0.7487524E-05 Eh
 * total energy  :   -79.5210938 Eh     change       -0.5341059E-05 Eh
 * total energy  :   -79.5210989 Eh     change       -0.5087903E-05 Eh
 * total energy  :   -79.5211044 Eh     change       -0.5508553E-05 Eh
 * total energy  :   -79.5211100 Eh     change       -0.5584333E-05 Eh
 * total energy  :   -79.5211154 Eh     change       -0.5427766E-05 Eh
 * total energy  :   -79.5211194 Eh     change       -0.4004669E-05 Eh
   *** GEOMETRY OPTIMIZATION CONVERGED AFTER 35 ITERATIONS ***

 final structure:
================
47
 xtb: 6.5.1 (579679a)
C           -2.56988531460336       -3.72132665897373        1.76121126712538
O           -1.79589237020589       -3.20229895119273        0.65558758789806
C           -1.55574945542244       -1.89560707146146        0.52887516671222
C           -0.27039738956829       -1.41013424015147        0.81408987223779
O            0.67645808469233       -2.25643549419264        1.22742612138549
C           -0.04343805421789       -0.04217580261041        0.67310036777818
C            1.22630432325126        0.72477116478024        0.98590425556762
O            1.22494223161251        1.94485395982986        0.94588264515480
N            2.30115192085728       -0.00992393459144        1.29985091322589
C            3.57892019899173        0.62872881961599        1.61288314139136
C            4.46990465738231        0.68797920410816        0.39074758572410
C            5.66889406330334       -0.01877743141200        0.36102116448808
C            6.49347522292263        0.03543369658176       -0.75493564430980
C            6.08926605523722        0.80308907994266       -1.83163329468083
F            6.87793775475768        0.85864906904598       -2.91584266767693
C            4.90281553286508        1.51548104731396       -1.83633544869779
C            4.09326975728298        1.45358751609485       -0.71197072228890
N           -1.03998425248411        0.73132246994168        0.23634569838077
C           -2.22087330827045        0.27085145328188       -0.09373451574169
C           -3.23253911769288        1.29962020178770       -0.57966742284058
C           -2.51687822685401        2.63765126177584       -0.82423249168593
C           -4.31522441422400        1.48363674129746        0.49381802633780
N           -3.85117246216634        0.83386140366552       -1.81590157736770
N           -2.50402990866020       -1.05887915839881        0.05134283565664
C           -3.79275429291489       -1.64156842006106       -0.33007091897163
H           -3.58118010332611       -3.31340430066559        1.75706400344033
H           -2.59688730243207       -4.79860219558244        1.60938542331014
H           -2.07044964711510       -3.47935993165018        2.70102390426841
H            0.36848452593297       -3.17694184470036        1.22811351093654
H            2.27702906177903       -1.01381322638113        1.28539989320893
H            3.36530214481066        1.63865869241843        1.97849394548483
H            4.05411617365130        0.05076287394821        2.40843502496743
H            5.96462778686363       -0.61783827200545        1.21403689297284
H            7.42780725799376       -0.50946215396370       -0.78965758612372
H            4.62130746495443        2.10417087141027       -2.69984859565414
H            3.16116308080429        2.00561341220942       -0.69142336973484
H           -1.71575637981620        2.50798134490082       -1.55013702902826
H           -3.23484339568603        3.35687941506450       -1.21394229437945
H           -2.09422274724130        3.01997141117894        0.10401444722805
H           -4.97369839267236        2.30012479166376        0.20123007526956
H           -3.85602153512127        1.72465321735344        1.45167804779505
H           -4.91149971096385        0.58125333532869        0.60443355891848
H           -3.17925570036170        0.86532153870086       -2.57061179172880
H           -4.62431665988409        1.44075748324881       -2.05111974696937
H           -4.45557686772049       -1.63909839569271        0.53254481410521
H           -3.62081064943530       -2.66054180150405       -0.66818326596776
H           -4.21983764089460       -1.03947619130247       -1.13212580711791

          :  Hamiltonian                  GFN1-xTB          :
         :: total energy             -79.521119433761 Eh    ::
         :: gradient norm              0.000629999926 Eh/a0 ::
         :: HOMO-LUMO gap              1.639411980407 eV    ::
         :: SCC energy               -80.415162484906 Eh    ::
         :: -> Gsolv                  -0.111014094895 Eh    ::
         :: repulsion energy           0.923717566427 Eh    ::

    * Orbital Energies and Occupations

         #    Occupation            Energy/Eh            Energy/eV
      -------------------------------------------------------------
         1        2.0000           -0.8832728             -24.0351
       ...           ...                  ...                  ...
        55        2.0000           -0.5181012             -14.0983
        56        2.0000           -0.5129106             -13.9570
        57        2.0000           -0.5099024             -13.8751
        58        2.0000           -0.5080683             -13.8252
        59        2.0000           -0.5035913             -13.7034
        60        2.0000           -0.4863301             -13.2337
        61        2.0000           -0.4821074             -13.1188
        62        2.0000           -0.4782653             -13.0143
        63        2.0000           -0.4696497             -12.7798
        64        2.0000           -0.4569214             -12.4335
        65        2.0000           -0.4556194             -12.3980
        66        2.0000           -0.4421402             -12.0312
        67        2.0000           -0.4321321             -11.7589 (HOMO)
        68                         -0.3718848             -10.1195 (LUMO)
        69                         -0.3297751              -8.9736
        70                         -0.2783362              -7.5739
        71                         -0.2740428              -7.4571
        72                         -0.2690820              -7.3221
        73                         -0.1963318              -5.3425
        74                         -0.1674054              -4.5553
        75                         -0.1521733              -4.1408
        76                         -0.1512154              -4.1148
        77                         -0.1379779              -3.7546
        78                         -0.1312822              -3.5724
       ...                                ...                  ...
       144                          0.6900879              18.7782
      -------------------------------------------------------------
                  HL-Gap            0.0602473 Eh            1.6394 eV

Wiberg/Mayer (AO) data.
largest (>0.10) Wiberg bond orders for each atom

     #   Z sym  total        # sym  WBO       # sym  WBO       # sym  WBO
 ---------------------------------------------------------------------------
     1   6 C    3.843 --    28 H    0.983    26 H    0.982    27 H    0.980
                             2 O    0.848
     2   8 O    2.109 --     3 C    1.078     1 C    0.848
     3   6 C    3.905 --     4 C    1.287    24 N    1.265     2 O    1.078
     4   6 C    3.925 --     6 C    1.339     3 C    1.287     5 O    1.101
     5   8 O    2.088 --     4 C    1.101    29 H    0.794
     6   6 C    3.953 --    18 N    1.347     4 C    1.339     7 C    0.964
     7   6 C    3.918 --     8 O    1.584     9 N    1.295     6 C    0.964
     8   8 O    1.902 --     7 C    1.584     9 N    0.190
     9   7 N    3.381 --     7 C    1.295    10 C    0.933    30 H    0.884
                             8 O    0.190
    10   6 C    3.937 --    11 C    0.993    32 H    0.975    31 H    0.965
                             9 N    0.933
    11   6 C    3.986 --    12 C    1.423    17 C    1.413    10 C    0.993
    12   6 C    3.993 --    13 C    1.439    11 C    1.423    33 H    0.970
                            16 C    0.109
    13   6 C    3.991 --    12 C    1.439    14 C    1.403    34 H    0.969
                            17 C    0.111
    14   6 C    3.862 --    13 C    1.403    16 C    1.397    15 F    0.927
    15   9 F    1.056 --    14 C    0.927
    16   6 C    3.992 --    17 C    1.449    14 C    1.397    35 H    0.969
                            12 C    0.109
    17   6 C    3.993 --    16 C    1.449    11 C    1.413    36 H    0.970
                            13 C    0.111
    18   7 N    3.050 --    19 C    1.466     6 C    1.347
    19   6 C    3.897 --    18 N    1.466    24 N    1.213    20 C    0.976
    20   6 C    3.958 --    21 C    0.990    23 N    0.983    22 C    0.976
                            19 C    0.976
    21   6 C    3.992 --    20 C    0.990    38 H    0.984    37 H    0.984
                            39 H    0.983
    22   6 C    3.990 --    41 H    0.985    42 H    0.981    40 H    0.980
                            20 C    0.976
    23   7 N    3.004 --    20 C    0.983    43 H    0.935    44 H    0.930
    24   7 N    3.598 --     3 C    1.265    19 C    1.213    25 C    0.909
    25   6 C    3.884 --    46 H    0.974    45 H    0.964    47 H    0.949
                            24 N    0.909
    26   1 H    1.003 --     1 C    0.982
    27   1 H    1.003 --     1 C    0.980
    28   1 H    1.001 --     1 C    0.983
    29   1 H    0.822 --     5 O    0.794
    30   1 H    0.937 --     9 N    0.884
    31   1 H    1.007 --    10 C    0.965
    32   1 H    1.001 --    10 C    0.975
    33   1 H    0.999 --    12 C    0.970
    34   1 H    0.997 --    13 C    0.969
    35   1 H    0.998 --    16 C    0.969
    36   1 H    1.006 --    17 C    0.970
    37   1 H    1.005 --    21 C    0.984
    38   1 H    1.001 --    21 C    0.984
    39   1 H    1.008 --    21 C    0.983
    40   1 H    0.997 --    22 C    0.980
    41   1 H    1.000 --    22 C    0.985
    42   1 H    1.001 --    22 C    0.981
    43   1 H    0.949 --    23 N    0.935
    44   1 H    0.945 --    23 N    0.930
    45   1 H    1.000 --    25 C    0.964
    46   1 H    0.994 --    25 C    0.974
    47   1 H    1.021 --    25 C    0.949
 ---------------------------------------------------------------------------

           -------------------------------------------------
          | TOTAL ENERGY              -79.521119433761 Eh   |
          | GRADIENT NORM               0.000629999926 Eh/α |
          | HOMO-LUMO GAP               1.639411980407 eV   |
           -------------------------------------------------

 * finished run on 2023/06/20 at 15:40:58.965
