   * xtb version 6.5.1 (579679a) compiled by 'ehlert@majestix' on 2022-07-11
          program call               : /lustre/hpc/kemi/ree/PhD/git/ReactivityQM/dep/xtb-6.5.1/bin/xtb --gfn 1 /lustre/hpc/kemi/ree/PhD/git/ReactivityQM/calculations/RaltegravirCLI/reac02prodE10/conf06/RaltegravirCLI_reac02prodE10_conf06_gfn1.xyz --opt --vfukui --chrg -1 --uhf 0 --alpb DMSO

   ID    Z sym.   atoms
    1    6 C      1, 3, 5, 6, 8, 9, 12-16, 18, 19, 21-24
    2    7 N      2, 11, 20, 25
    3    8 O      4, 7, 10
    4    9 F      17
    5    1 H      26-47

      * Solvation model:               ALPB
        Solvent                        DMSO
        Solvent mass                       7.8130E+01 g/mol
          :  Hamiltonian                  GFN1-xTB          :
 * total energy  :   -80.2151786 Eh     change       -0.1404032E-10 Eh
 * total energy  :   -80.2245833 Eh     change       -0.9404736E-02 Eh
 * total energy  :   -80.2270516 Eh     change       -0.2468320E-02 Eh
 * total energy  :   -80.2273837 Eh     change       -0.3320991E-03 Eh
 * total energy  :   -80.2276128 Eh     change       -0.2291168E-03 Eh
 * total energy  :   -80.2277076 Eh     change       -0.9475551E-04 Eh
 * total energy  :   -80.2278121 Eh     change       -0.1045116E-03 Eh
 * total energy  :   -80.2278801 Eh     change       -0.6796647E-04 Eh
 * total energy  :   -80.2279308 Eh     change       -0.5069657E-04 Eh
 * total energy  :   -80.2279690 Eh     change       -0.3818728E-04 Eh
 * total energy  :   -80.2286198 Eh     change       -0.8581066E-05 Eh
 * total energy  :   -80.2286275 Eh     change       -0.7734175E-05 Eh
 * total energy  :   -80.2286351 Eh     change       -0.7574261E-05 Eh
 * total energy  :   -80.2286437 Eh     change       -0.8589041E-05 Eh
 * total energy  :   -80.2286544 Eh     change       -0.1070798E-04 Eh
 * total energy  :   -80.2286689 Eh     change       -0.1446970E-04 Eh
 * total energy  :   -80.2286838 Eh     change       -0.1493100E-04 Eh
 * total energy  :   -80.2286985 Eh     change       -0.1475412E-04 Eh
 * total energy  :   -80.2287035 Eh     change       -0.4936929E-05 Eh
   *** GEOMETRY OPTIMIZATION CONVERGED AFTER 44 ITERATIONS ***

 final structure:
================
47
 xtb: 6.5.1 (579679a)
C           -3.51502687973243        1.67967969570845       -1.52921503309458
N           -2.38945893417486        0.76720474400556       -1.32104769387427
C           -1.86081553070997        0.24791958732229       -2.45887038528744
O           -2.31820036725878        0.55839752028384       -3.56437666240547
C           -0.72354239468560       -0.78027392325514       -2.34884193677400
C           -1.29919091998519       -2.13165276309282       -2.84170656541377
O            0.30869207379281       -0.37270921208697       -3.25243684043565
C           -0.20307659771728       -0.89191261676488       -0.93305826447741
C            0.95833802496960       -1.64721494572641       -0.69038644843057
O            1.66974327215613       -2.17793212105960       -1.58036573033920
N            1.28099793423803       -1.85083138455752        0.67090684766852
C            2.66752964106426       -2.10108959449511        0.99974683061361
C            3.49749148662633       -0.84355111098333        1.18260954631037
C            3.05117965326139        0.40905188834069        0.76985376535702
C            3.84241311531104        1.53742960681429        0.94077545471756
C            5.08367665261838        1.38751430023756        1.52908597608513
F            5.85827400970454        2.47772149633666        1.69751899194318
C            5.56068867162913        0.16190039673630        1.95659427167915
C            4.75509747587152       -0.95329994264036        1.77717214726556
N           -0.84494377073117       -0.29560959869199        0.10635884307944
C           -1.87021947444615        0.47199480407160       -0.02545549983046
C           -2.52469699527511        0.99706937783039        1.24425947266619
C           -1.64931496465496        0.60477646917636        2.44795872925106
C           -3.92223516193262        0.38721031034597        1.43925832223024
N           -2.65150458843482        2.46144123402577        1.20978078172593
H           -4.43606802689663        1.11139147528888       -1.68055317133582
H           -3.32657129509883        2.28023949210320       -2.42230013714824
H           -3.62923794329980        2.34500203830268       -0.67812434199764
H           -1.69344312906132       -2.01871586138079       -3.85173811217537
H           -0.50843859817078       -2.88021825810496       -2.84795222270864
H           -2.09626112922240       -2.45909017868640       -2.17588280609190
H            1.06814414829686       -0.95936738897910       -3.06629602323644
H            0.82346624725318       -1.19198476677091        1.29236719152548
H            2.71626940889550       -2.69528545394495        1.91941676019773
H            3.10509184907126       -2.70321050919456        0.19205228274691
H            2.07269671199678        0.51519202642583        0.31322762214937
H            3.50527430658483        2.51644408349922        0.62542890988829
H            6.53519052765181        0.08515673503367        2.42005329117394
H            5.11114936239273       -1.92234878453405        2.10853991954237
H           -2.07593654745831        1.01604822719707        3.36162777006396
H           -1.59077130556087       -0.47933068347630        2.54002793220395
H           -0.64046712380625        0.99631361514857        2.32205881948712
H           -3.85542089259152       -0.70055404800959        1.42553641222616
H           -4.33145884468228        0.69829626441416        2.40020547763290
H           -4.60813686878608        0.70594950623779        0.65660465100092
H           -1.73158463431882        2.87734014728686        1.27860372150948
H           -3.17538565468505        2.75949910426496        2.01982413311568

          :  Hamiltonian                  GFN1-xTB          :
         :: total energy             -80.228703474524 Eh    ::
         :: gradient norm              0.000338730063 Eh/a0 ::
         :: HOMO-LUMO gap              1.588346237811 eV    ::
         :: SCC energy               -81.084065836269 Eh    ::
         :: -> Gsolv                  -0.105245909480 Eh    ::
         :: repulsion energy           0.886907745579 Eh    ::

    * Orbital Energies and Occupations

         #    Occupation            Energy/Eh            Energy/eV
      -------------------------------------------------------------
         1        2.0000           -0.8526306             -23.2013
       ...           ...                  ...                  ...
        56        2.0000           -0.4602602             -12.5243
        57        2.0000           -0.4591527             -12.4942
        58        2.0000           -0.4553693             -12.3912
        59        2.0000           -0.4381486             -11.9226
        60        2.0000           -0.4338251             -11.8050
        61        2.0000           -0.4200781             -11.4309
        62        2.0000           -0.4139887             -11.2652
        63        2.0000           -0.4091472             -11.1335
        64        2.0000           -0.3992267             -10.8635
        65        2.0000           -0.3922615             -10.6740
        66        2.0000           -0.3851849             -10.4814
        67        2.0000           -0.3713854             -10.1059
        68        2.0000           -0.3186372              -8.6706 (HOMO)
        69                         -0.2602665              -7.0822 (LUMO)
        70                         -0.2499352              -6.8011
        71                         -0.2368362              -6.4446
        72                         -0.1935300              -5.2662
        73                         -0.1377926              -3.7495
        74                         -0.1301341              -3.5411
        75                         -0.1176725              -3.2020
        76                         -0.1080998              -2.9415
        77                         -0.1047674              -2.8509
        78                         -0.1013313              -2.7574
        79                         -0.0913342              -2.4853
       ...                                ...                  ...
       144                          0.6700202              18.2322
      -------------------------------------------------------------
                  HL-Gap            0.0583707 Eh            1.5883 eV

Wiberg/Mayer (AO) data.
largest (>0.10) Wiberg bond orders for each atom

     #   Z sym  total        # sym  WBO       # sym  WBO       # sym  WBO
 ---------------------------------------------------------------------------
     1   6 C    3.949 --    26 H    0.982    27 H    0.980    28 H    0.972
                             2 N    0.946
     2   7 N    3.435 --     3 C    1.247    21 C    0.984     1 C    0.946
                             4 O    0.147
     3   6 C    3.891 --     4 O    1.550     2 N    1.247     5 C    0.939
     4   8 O    1.849 --     3 C    1.550     2 N    0.147
     5   6 C    3.914 --     8 C    0.973     6 C    0.964     3 C    0.939
                             7 O    0.936
     6   6 C    3.995 --    31 H    0.988    29 H    0.986    30 H    0.984
                             5 C    0.964
     7   8 O    1.877 --     5 C    0.936    32 H    0.843
     8   6 C    3.865 --     9 C    1.299    20 N    1.215     5 C    0.973
                            21 C    0.114    10 O    0.101
     9   6 C    3.911 --    10 O    1.420     8 C    1.299    11 N    1.050
    10   8 O    1.792 --     9 C    1.420     8 C    0.101
    11   7 N    3.160 --     9 C    1.050    12 C    0.981    33 H    0.924
    12   6 C    3.971 --    13 C    0.994    11 N    0.981    34 H    0.972
                            35 H    0.957
    13   6 C    3.986 --    14 C    1.419    19 C    1.409    12 C    0.994
    14   6 C    3.994 --    15 C    1.438    13 C    1.419    36 H    0.968
                            18 C    0.109
    15   6 C    3.992 --    14 C    1.438    16 C    1.406    37 H    0.971
                            19 C    0.111
    16   6 C    3.857 --    15 C    1.406    18 C    1.398    17 F    0.914
    17   9 F    1.039 --    16 C    0.914
    18   6 C    3.992 --    19 C    1.448    16 C    1.398    38 H    0.970
                            14 C    0.109
    19   6 C    3.994 --    18 C    1.448    13 C    1.409    39 H    0.973
                            15 C    0.111
    20   7 N    3.081 --    21 C    1.595     8 C    1.215
    21   6 C    3.897 --    20 N    1.595     2 N    0.984    22 C    0.982
                             8 C    0.114
    22   6 C    3.964 --    23 C    0.992    24 C    0.989    21 C    0.982
                            25 N    0.970
    23   6 C    3.996 --    22 C    0.992    40 H    0.986    42 H    0.984
                            41 H    0.984
    24   6 C    3.992 --    22 C    0.989    43 H    0.986    44 H    0.985
                            45 H    0.982
    25   7 N    2.992 --    22 C    0.970    47 H    0.948    46 H    0.946
    26   1 H    1.010 --     1 C    0.982
    27   1 H    1.017 --     1 C    0.980
    28   1 H    1.034 --     1 C    0.972
    29   1 H    1.014 --     6 C    0.986
    30   1 H    1.017 --     6 C    0.984
    31   1 H    1.012 --     6 C    0.988
    32   1 H    0.908 --     7 O    0.843
    33   1 H    0.986 --    11 N    0.924
    34   1 H    1.014 --    12 C    0.972
    35   1 H    1.024 --    12 C    0.957
    36   1 H    1.008 --    14 C    0.968
    37   1 H    1.000 --    15 C    0.971
    38   1 H    0.999 --    18 C    0.970
    39   1 H    1.001 --    19 C    0.973
    40   1 H    1.006 --    23 C    0.986
    41   1 H    1.017 --    23 C    0.984
    42   1 H    1.017 --    23 C    0.984
    43   1 H    1.008 --    24 C    0.986
    44   1 H    1.002 --    24 C    0.985
    45   1 H    1.007 --    24 C    0.982
    46   1 H    0.965 --    25 N    0.946
    47   1 H    0.962 --    25 N    0.948
 ---------------------------------------------------------------------------

           -------------------------------------------------
          | TOTAL ENERGY              -80.228703474524 Eh   |
          | GRADIENT NORM               0.000338730063 Eh/α |
          | HOMO-LUMO GAP               1.588346237811 eV   |
           -------------------------------------------------

 * finished run on 2023/06/20 at 15:10:43.132
