   * xtb version 6.5.1 (579679a) compiled by 'ehlert@majestix' on 2022-07-11
          program call               : /lustre/hpc/kemi/ree/PhD/git/ReactivityQM/dep/xtb-6.5.1/bin/xtb --gfn 1 /lustre/hpc/kemi/ree/PhD/git/ReactivityQM/calculations/R02deprot/reac01prodN10/conf18/R02deprot_reac01prodN10_conf18_gfn1.xyz --opt --vfukui --chrg 0 --uhf 0 --alpb DMSO

   ID    Z sym.   atoms
    1    6 C      1, 3, 5, 6, 8-11, 13, 15, 18, 19, 22, 24
    2    8 O      2, 4, 14, 20, 23, 25
    3    7 N      7, 12, 16, 17, 21
    4    1 H      26-42

      * Solvation model:               ALPB
        Solvent                        DMSO
        Solvent mass                       7.8130E+01 g/mol
          :  Hamiltonian                  GFN1-xTB          :
 * total energy  :   -82.9312582 Eh     change       -0.4490630E-11 Eh
 * total energy  :   -82.9439078 Eh     change       -0.1264961E-01 Eh
 * total energy  :   -82.9487544 Eh     change       -0.4846680E-02 Eh
 * total energy  :   -82.9498065 Eh     change       -0.1052037E-02 Eh
 * total energy  :   -82.9505992 Eh     change       -0.7927045E-03 Eh
 * total energy  :   -82.9509631 Eh     change       -0.3639271E-03 Eh
 * total energy  :   -82.9512468 Eh     change       -0.2837006E-03 Eh
 * total energy  :   -82.9514662 Eh     change       -0.2193727E-03 Eh
 * total energy  :   -82.9516498 Eh     change       -0.1836312E-03 Eh
 * total energy  :   -82.9518316 Eh     change       -0.1818110E-03 Eh
 * total energy  :   -82.9559920 Eh     change       -0.1325956E-04 Eh
 * total energy  :   -82.9560096 Eh     change       -0.1761169E-04 Eh
 * total energy  :   -82.9560234 Eh     change       -0.1371992E-04 Eh
 * total energy  :   -82.9560354 Eh     change       -0.1201800E-04 Eh
 * total energy  :   -82.9560484 Eh     change       -0.1302814E-04 Eh
 * total energy  :   -82.9560641 Eh     change       -0.1567024E-04 Eh
 * total energy  :   -82.9560769 Eh     change       -0.1287418E-04 Eh
 * total energy  :   -82.9560842 Eh     change       -0.7255360E-05 Eh
 * total energy  :   -82.9560887 Eh     change       -0.4453850E-05 Eh
   *** GEOMETRY OPTIMIZATION CONVERGED AFTER 103 ITERATIONS ***

 final structure:
================
42
 xtb: 6.5.1 (579679a)
C           -5.80844124496247       -0.11903782231647       -0.92291627022406
O           -4.73555856741183        0.57495830243831       -0.25720146384914
C           -3.55327995993545        0.01951830096435       -0.28136326813204
O           -3.25095482135852       -1.00622484423942       -0.81165466142679
C           -2.50446213615656        0.91913264046821        0.51418539649584
C           -3.21402150945331        1.65404211867440        1.65591709836633
N           -1.53029135739726        0.00856823702155        1.01120188638848
C           -0.41746420237689       -0.15095424219357        0.36711327371016
C            0.50531044925748       -1.25024069844145        0.86933671178171
C            0.08841207099741       -2.54895891643579        0.15865674106614
C            0.40426230601345       -1.39235759188925        2.39044293691172
N            1.86756916881290       -0.88572555691563        0.48529611003030
C            2.94550028346343       -1.64401255016005        0.73514668363741
O            2.94194697911524       -2.71738187887339        1.32109253325603
C            4.20614367246432       -1.03548181522247        0.22935879541091
N            5.40131538456340       -1.53705255028157        0.27420146176612
N            6.23526396977638       -0.61979903869114       -0.29543454920545
C            5.49717126982796        0.38463537489514       -0.65135151489268
C            5.92657202941807        1.63891080527311       -1.30757756176883
O            4.20351982365402        0.18493952214477       -0.34981340747383
N            0.02101117715851        0.50678998762510       -0.73459392826355
C           -0.71365957889284        1.49479304485311       -1.24539769485487
O           -0.44812364128449        2.23047622371231       -2.19954069684523
C           -2.01020311438894        1.77275889091298       -0.56158750528278
O           -2.68226032318453        2.75816650912309       -1.03518503563266
H           -5.51347636782082       -0.35625949038011       -1.94605499878069
H           -6.04060850226216       -1.03638892885992       -0.38015077001448
H           -6.65788207048248        0.55918320702895       -0.91110002576540
H           -2.46845534703485        2.19023762465468        2.23913842992736
H           -3.93654246810028        2.35981081800469        1.25415775288469
H           -3.71769932041969        0.93328405143106        2.29521168686899
H           -0.96281603373521       -2.74660853369964        0.36328638331630
H            0.68789010860787       -3.38448393986639        0.51629087837954
H            0.22643931636439       -2.44091674408481       -0.91642660254775
H           -0.63165070605978       -1.58415165888284        2.66478715186201
H            0.73082497381094       -0.47100698606799        2.87020867710038
H            1.02437771056219       -2.21696777636277        2.73750617738996
H            1.96269311462647       -0.04179199642068       -0.06532140529212
H            7.00723966931357        1.63888464550410       -1.42674181869645
H            5.62394058028820        2.49520556928267       -0.70563307266331
H            5.45183053908179        1.73023652129870       -2.28439694451289
H           -2.16138032446325        3.13127016497224       -1.79996057043224

          :  Hamiltonian                  GFN1-xTB          :
         :: total energy             -82.956088657460 Eh    ::
         :: gradient norm              0.000272374315 Eh/a0 ::
         :: HOMO-LUMO gap              1.245657947622 eV    ::
         :: SCC energy               -83.727703946515 Eh    ::
         :: -> Gsolv                  -0.056963409165 Eh    ::
         :: repulsion energy           0.797964624586 Eh    ::

    * Orbital Energies and Occupations

         #    Occupation            Energy/Eh            Energy/eV
      -------------------------------------------------------------
         1        2.0000           -0.8747672             -23.8036
       ...           ...                  ...                  ...
        55        2.0000           -0.5017970             -13.6546
        56        2.0000           -0.4981508             -13.5554
        57        2.0000           -0.4952704             -13.4770
        58        2.0000           -0.4875181             -13.2660
        59        2.0000           -0.4861003             -13.2275
        60        2.0000           -0.4765959             -12.9688
        61        2.0000           -0.4609770             -12.5438
        62        2.0000           -0.4555553             -12.3963
        63        2.0000           -0.4516489             -12.2900
        64        2.0000           -0.4460518             -12.1377
        65        2.0000           -0.4406722             -11.9913
        66        2.0000           -0.4314899             -11.7414
        67        2.0000           -0.4243353             -11.5468 (HOMO)
        68                         -0.3785582             -10.3011 (LUMO)
        69                         -0.3048251              -8.2947
        70                         -0.2932445              -7.9796
        71                         -0.2703472              -7.3565
        72                         -0.2540929              -6.9142
        73                         -0.1977753              -5.3817
        74                         -0.1929934              -5.2516
        75                         -0.1516807              -4.1274
        76                         -0.1412763              -3.8443
        77                         -0.1336625              -3.6371
        78                         -0.1176535              -3.2015
       ...                                ...                  ...
       134                          0.7327785              19.9399
      -------------------------------------------------------------
                  HL-Gap            0.0457771 Eh            1.2457 eV

Wiberg/Mayer (AO) data.
largest (>0.10) Wiberg bond orders for each atom

     #   Z sym  total        # sym  WBO       # sym  WBO       # sym  WBO
 ---------------------------------------------------------------------------
     1   6 C    3.840 --    28 H    0.983    26 H    0.980    27 H    0.979
                             2 O    0.861
     2   8 O    2.240 --     3 C    1.177     1 C    0.861     4 O    0.142
     3   6 C    3.851 --     4 O    1.726     2 O    1.177     5 C    0.774
     4   8 O    2.022 --     3 C    1.726     2 O    0.142
     5   6 C    3.969 --    24 C    1.057     7 N    1.025     6 C    0.952
                             3 C    0.774
     6   6 C    3.978 --    31 H    0.984    30 H    0.983    29 H    0.981
                             5 C    0.952
     7   7 N    3.001 --     8 C    1.598     5 C    1.025
     8   6 C    3.943 --     7 N    1.598    21 N    1.242     9 C    0.977
     9   6 C    3.936 --    11 C    0.991     8 C    0.977    10 C    0.972
                            12 N    0.927
    10   6 C    3.989 --    34 H    0.986    32 H    0.985    33 H    0.981
                             9 C    0.972
    11   6 C    3.991 --     9 C    0.991    36 H    0.986    35 H    0.984
                            37 H    0.982
    12   7 N    3.370 --    13 C    1.283     9 C    0.927    38 H    0.880
                            14 O    0.182
    13   6 C    3.921 --    14 O    1.569    12 N    1.283    15 C    0.987
    14   8 O    1.888 --    13 C    1.569    12 N    0.182
    15   6 C    3.870 --    16 N    1.626    20 O    1.048    13 C    0.987
    16   7 N    2.997 --    15 C    1.626    17 N    1.194
    17   7 N    2.980 --    18 C    1.614    16 N    1.194
    18   6 C    3.870 --    17 N    1.614    20 O    1.073    19 C    1.031
    19   6 C    3.987 --    18 C    1.031    39 H    0.983    40 H    0.965
                            41 H    0.962
    20   8 O    2.316 --    18 C    1.073    15 C    1.048
    21   7 N    3.022 --    22 C    1.310     8 C    1.242    23 O    0.163
                            24 C    0.110
    22   6 C    3.934 --    23 O    1.513    21 N    1.310    24 C    0.988
    23   8 O    1.886 --    22 C    1.513    21 N    0.163
    24   6 C    3.785 --    25 O    1.331     5 C    1.057    22 C    0.988
                            21 N    0.110
    25   8 O    2.252 --    24 C    1.331    42 H    0.743
    26   1 H    1.002 --     1 C    0.980
    27   1 H    1.001 --     1 C    0.979
    28   1 H    1.005 --     1 C    0.983
    29   1 H    0.999 --     6 C    0.981
    30   1 H    1.004 --     6 C    0.983
    31   1 H    1.001 --     6 C    0.984
    32   1 H    1.006 --    10 C    0.985
    33   1 H    1.009 --    10 C    0.981
    34   1 H    1.004 --    10 C    0.986
    35   1 H    1.014 --    11 C    0.984
    36   1 H    1.004 --    11 C    0.986
    37   1 H    1.011 --    11 C    0.982
    38   1 H    0.958 --    12 N    0.880
    39   1 H    0.999 --    19 C    0.983
    40   1 H    0.997 --    19 C    0.965
    41   1 H    0.997 --    19 C    0.962
    42   1 H    0.821 --    25 O    0.743
 ---------------------------------------------------------------------------

           -------------------------------------------------
          | TOTAL ENERGY              -82.956088657460 Eh   |
          | GRADIENT NORM               0.000272374315 Eh/α |
          | HOMO-LUMO GAP               1.245657947622 eV   |
           -------------------------------------------------

 * finished run on 2023/06/20 at 18:17:59.115
