   * xtb version 6.5.1 (579679a) compiled by 'ehlert@majestix' on 2022-07-11
          program call               : /lustre/hpc/kemi/ree/PhD/git/ReactivityQM/dep/xtb-6.5.1/bin/xtb --gfn 1 /lustre/hpc/kemi/ree/PhD/git/ReactivityQM/calculations/R02deprot/reac01prodN16/conf06/R02deprot_reac01prodN16_conf06_gfn1.xyz --opt --vfukui --chrg 0 --uhf 0 --alpb DMSO

   ID    Z sym.   atoms
    1    6 C      1, 3, 5, 7-10, 12, 14, 17, 18, 21, 23, 24
    2    8 O      2, 4, 13, 19, 22, 25
    3    7 N      6, 11, 15, 16, 20
    4    1 H      26-42

      * Solvation model:               ALPB
        Solvent                        DMSO
        Solvent mass                       7.8130E+01 g/mol
          :  Hamiltonian                  GFN1-xTB          :
 * total energy  :   -82.9455909 Eh     change       -0.1629985E-10 Eh
 * total energy  :   -82.9582845 Eh     change       -0.1269362E-01 Eh
 * total energy  :   -82.9634295 Eh     change       -0.5145014E-02 Eh
 * total energy  :   -82.9644350 Eh     change       -0.1005512E-02 Eh
 * total energy  :   -82.9649624 Eh     change       -0.5274176E-03 Eh
 * total energy  :   -82.9652725 Eh     change       -0.3101180E-03 Eh
 * total energy  :   -82.9656301 Eh     change       -0.3575134E-03 Eh
 * total energy  :   -82.9660353 Eh     change       -0.4052849E-03 Eh
 * total energy  :   -82.9664764 Eh     change       -0.4410244E-03 Eh
 * total energy  :   -82.9669389 Eh     change       -0.4625500E-03 Eh
 * total energy  :   -82.9716412 Eh     change       -0.1672746E-04 Eh
 * total energy  :   -82.9716644 Eh     change       -0.2324208E-04 Eh
 * total energy  :   -82.9716859 Eh     change       -0.2146348E-04 Eh
 * total energy  :   -82.9716972 Eh     change       -0.1132786E-04 Eh
 * total energy  :   -82.9717141 Eh     change       -0.1686626E-04 Eh
 * total energy  :   -82.9717208 Eh     change       -0.6712267E-05 Eh
 * total energy  :   -82.9717286 Eh     change       -0.7778943E-05 Eh
 * total energy  :   -82.9717333 Eh     change       -0.4668700E-05 Eh
 * total energy  :   -82.9717382 Eh     change       -0.4987670E-05 Eh
   *** GEOMETRY OPTIMIZATION CONVERGED AFTER 57 ITERATIONS ***

 final structure:
================
42
 xtb: 6.5.1 (579679a)
C           -6.07598738172491        1.20641515880440        1.44741365520847
O           -4.87837918985236        0.88547106463307        0.72623033725340
C           -4.07090483760181       -0.01030498759864        1.26260004752058
O           -4.26256643932974       -0.58148779756210        2.30458026142020
C           -2.83542567500028       -0.23135396015818        0.41382723718651
N           -1.71995622926264       -0.35798564648448        1.02091977427368
C           -0.56633630555925       -0.50476377168798        0.23394535392438
C            0.71589804673810       -0.23487060134726        0.97073668155054
C            0.86590058899689       -1.28136308723511        2.08700288150909
C            0.66225981840896        1.18613871137008        1.55270078342231
N            1.80895107352755       -0.35039825266007        0.01531852294341
C            3.10247906710770       -0.15553704889939        0.33779376622564
O            3.52250735481137        0.09746108152266        1.45356670200058
C            3.97342256000937       -0.29176401787703       -0.85810079426697
N            3.58207723871402       -0.56853184354270       -2.06563086324519
N            4.69815609154625       -0.58574976122872       -2.84609148115299
C            5.70041775527973       -0.31705985692512       -2.06436605121610
C            7.12959400590350       -0.22046336468495       -2.43337149533661
O            5.30720324231509       -0.12305372833718       -0.79755923126298
N           -0.56726733508243       -0.88110419975813       -0.98792012358820
C           -1.79295766880840       -1.10147860379608       -1.62727442938279
O           -1.93786676127343       -1.87756688014480       -2.53455496767559
C           -2.93257364984701       -0.23590436492751       -1.09840772316165
C           -2.73104177450997        1.21882462702876       -1.58767917970851
O           -4.16185842816208       -0.73892864238005       -1.53164255934621
H           -5.82544825916505        1.80223568654398        2.32748436520059
H           -6.58258899383082        0.28980281616623        1.75693512319237
H           -6.70154042575438        1.78053178418198        0.76759522729218
H            0.95895926993440       -2.27587626476909        1.65330358299030
H            1.75363599158976       -1.06205750889430        2.67687187169676
H           -0.01091847088495       -1.24926639759214        2.73142138698940
H            1.55813623539700        1.37934388705065        2.13943469579401
H            0.59809784276856        1.91418424388763        0.74598411537771
H           -0.21409176180453        1.28140785887796        2.19139614266135
H            1.56078190292211       -0.54584626776533       -0.94719843958892
H            7.51819916957514        0.76209114525604       -2.16780463720455
H            7.24148116348977       -0.38049108853091       -3.50256566787142
H            7.70618503645894       -0.96897409462589       -1.89008318452494
H           -3.53352979902305        1.83724412054688       -1.19247187161421
H           -1.77026638578188        1.60241348886598       -1.25298566677112
H           -2.77378024829317        1.22751179167932       -2.67461609393804
H           -4.01905543493238       -1.33889542702719       -2.28178105478652

          :  Hamiltonian                  GFN1-xTB          :
         :: total energy             -82.971738239761 Eh    ::
         :: gradient norm              0.000933746600 Eh/a0 ::
         :: HOMO-LUMO gap              1.841831141218 eV    ::
         :: SCC energy               -83.748225325525 Eh    ::
         :: -> Gsolv                  -0.048835859290 Eh    ::
         :: repulsion energy           0.802516683017 Eh    ::

    * Orbital Energies and Occupations

         #    Occupation            Energy/Eh            Energy/eV
      -------------------------------------------------------------
         1        2.0000           -0.8648490             -23.5337
       ...           ...                  ...                  ...
        55        2.0000           -0.5093108             -13.8591
        56        2.0000           -0.5073935             -13.8069
        57        2.0000           -0.5069348             -13.7944
        58        2.0000           -0.5013130             -13.6414
        59        2.0000           -0.4978702             -13.5477
        60        2.0000           -0.4899210             -13.3314
        61        2.0000           -0.4838542             -13.1663
        62        2.0000           -0.4672845             -12.7155
        63        2.0000           -0.4626029             -12.5881
        64        2.0000           -0.4621914             -12.5769
        65        2.0000           -0.4535473             -12.3417
        66        2.0000           -0.4491162             -12.2211
        67        2.0000           -0.4391310             -11.9494 (HOMO)
        68                         -0.3714450             -10.1075 (LUMO)
        69                         -0.3117980              -8.4845
        70                         -0.3095101              -8.4222
        71                         -0.2579909              -7.0203
        72                         -0.2560628              -6.9678
        73                         -0.2420898              -6.5876
        74                         -0.1996072              -5.4316
        75                         -0.1444445              -3.9305
        76                         -0.1430632              -3.8929
        77                         -0.1352199              -3.6795
        78                         -0.1259895              -3.4283
       ...                                ...                  ...
       134                          0.7241815              19.7060
      -------------------------------------------------------------
                  HL-Gap            0.0676860 Eh            1.8418 eV

Wiberg/Mayer (AO) data.
largest (>0.10) Wiberg bond orders for each atom

     #   Z sym  total        # sym  WBO       # sym  WBO       # sym  WBO
 ---------------------------------------------------------------------------
     1   6 C    3.856 --    28 H    0.984    27 H    0.979    26 H    0.978
                             2 O    0.881
     2   8 O    2.234 --     3 C    1.147     1 C    0.881     4 O    0.148
     3   6 C    3.852 --     4 O    1.690     2 O    1.147     5 C    0.940
     4   8 O    1.954 --     3 C    1.690     2 O    0.148
     5   6 C    3.933 --     6 N    1.771    23 C    0.959     3 C    0.940
     6   7 N    3.050 --     5 C    1.771     7 C    1.059
     7   6 C    3.923 --    20 N    1.693     6 N    1.059     8 C    0.998
     8   6 C    3.940 --     7 C    0.998    10 C    0.968     9 C    0.964
                            11 N    0.937
     9   6 C    3.985 --    29 H    0.985    31 H    0.984    30 H    0.978
                             8 C    0.964
    10   6 C    3.985 --    33 H    0.985    34 H    0.983    32 H    0.978
                             8 C    0.968
    11   7 N    3.349 --    12 C    1.255     8 C    0.937    35 H    0.881
                            13 O    0.177
    12   6 C    3.917 --    13 O    1.591    11 N    1.255    14 C    0.989
    13   8 O    1.908 --    12 C    1.591    11 N    0.177
    14   6 C    3.875 --    15 N    1.611    19 O    1.063    12 C    0.989
    15   7 N    3.015 --    14 C    1.611    16 N    1.201
    16   7 N    2.980 --    17 C    1.604    15 N    1.201
    17   6 C    3.871 --    16 N    1.604    19 O    1.084    18 C    1.031
    18   6 C    3.986 --    17 C    1.031    37 H    0.983    36 H    0.964
                            38 H    0.962
    19   8 O    2.330 --    17 C    1.084    14 C    1.063
    20   7 N    3.089 --     7 C    1.693    21 C    1.063
    21   6 C    3.865 --    22 O    1.742    20 N    1.063    23 C    0.935
    22   8 O    1.994 --    21 C    1.742
    23   6 C    3.932 --    25 O    0.982     5 C    0.959    21 C    0.935
                            24 C    0.921
    24   6 C    3.983 --    40 H    0.986    39 H    0.980    41 H    0.979
                            23 C    0.921
    25   8 O    1.900 --    23 C    0.982    42 H    0.827
    26   1 H    1.003 --     1 C    0.978
    27   1 H    1.005 --     1 C    0.979
    28   1 H    1.008 --     1 C    0.984
    29   1 H    1.001 --     9 C    0.985
    30   1 H    1.008 --     9 C    0.978
    31   1 H    1.006 --     9 C    0.984
    32   1 H    1.007 --    10 C    0.978
    33   1 H    1.001 --    10 C    0.985
    34   1 H    1.006 --    10 C    0.983
    35   1 H    0.963 --    11 N    0.881
    36   1 H    0.996 --    18 C    0.964
    37   1 H    0.998 --    18 C    0.983
    38   1 H    0.997 --    18 C    0.962
    39   1 H    1.008 --    24 C    0.980
    40   1 H    1.000 --    24 C    0.986
    41   1 H    0.999 --    24 C    0.979
    42   1 H    0.859 --    25 O    0.827
 ---------------------------------------------------------------------------

           -------------------------------------------------
          | TOTAL ENERGY              -82.971738239761 Eh   |
          | GRADIENT NORM               0.000933746600 Eh/α |
          | HOMO-LUMO GAP               1.841831141218 eV   |
           -------------------------------------------------

 * finished run on 2023/06/20 at 18:27:04.836
