   * xtb version 6.5.1 (579679a) compiled by 'ehlert@majestix' on 2022-07-11
          program call               : /lustre/hpc/kemi/ree/PhD/git/ReactivityQM/dep/xtb-6.5.1/bin/xtb --gfn 1 /lustre/hpc/kemi/ree/PhD/git/ReactivityQM/calculations/R02/reac01prodN16/conf01/R02_reac01prodN16_conf01_gfn1.xyz --opt --vfukui --chrg 1 --uhf 0 --alpb DMSO

   ID    Z sym.   atoms
    1    6 C      1, 2, 5, 6, 9-12, 14, 15, 18-20, 22
    2    7 N      3, 4, 8, 13, 24
    3    8 O      7, 16, 17, 21, 23, 25
    4    1 H      26-43

      * Solvation model:               ALPB
        Solvent                        DMSO
        Solvent mass                       7.8130E+01 g/mol
          :  Hamiltonian                  GFN1-xTB          :
 * total energy  :   -83.0993785 Eh     change       -0.1818989E-10 Eh
 * total energy  :   -83.1141887 Eh     change       -0.1481015E-01 Eh
 * total energy  :   -83.1198082 Eh     change       -0.5619528E-02 Eh
 * total energy  :   -83.1209910 Eh     change       -0.1182827E-02 Eh
 * total energy  :   -83.1215410 Eh     change       -0.5499759E-03 Eh
 * total energy  :   -83.1218871 Eh     change       -0.3461103E-03 Eh
 * total energy  :   -83.1222148 Eh     change       -0.3276850E-03 Eh
 * total energy  :   -83.1225221 Eh     change       -0.3072993E-03 Eh
 * total energy  :   -83.1228075 Eh     change       -0.2853581E-03 Eh
 * total energy  :   -83.1230904 Eh     change       -0.2829436E-03 Eh
 * total energy  :   -83.1245230 Eh     change       -0.7972675E-05 Eh
 * total energy  :   -83.1245329 Eh     change       -0.9873144E-05 Eh
 * total energy  :   -83.1245403 Eh     change       -0.7407627E-05 Eh
 * total energy  :   -83.1245480 Eh     change       -0.7655081E-05 Eh
 * total energy  :   -83.1245548 Eh     change       -0.6839738E-05 Eh
 * total energy  :   -83.1245568 Eh     change       -0.1978914E-05 Eh
 * total energy  :   -83.1245652 Eh     change       -0.8391954E-05 Eh
 * total energy  :   -83.1245724 Eh     change       -0.7175062E-05 Eh
 * total energy  :   -83.1245757 Eh     change       -0.3313270E-05 Eh
   *** GEOMETRY OPTIMIZATION CONVERGED AFTER 44 ITERATIONS ***

 final structure:
================
43
 xtb: 6.5.1 (579679a)
C            5.94708901061833        3.41817092911338        0.28401056238295
C            4.72409052427382        2.58800909284461        0.21670517593820
N            3.52179228964638        2.91365224327431        0.58736673568447
N            2.73154065410060        1.83318535313574        0.33466563133438
C            3.50080867293675        0.91783303260579       -0.17414183212180
C            3.08741665587406       -0.44549103276642       -0.59253020909023
O            3.85720234967492       -1.27766807016946       -1.03763229613369
N            1.76327461387326       -0.62355896960847       -0.40358571343973
C            1.06437516208867       -1.87008151882388       -0.68864269488031
C            1.63549778923941       -2.99182309472731        0.19220939547669
C            1.19328323214494       -2.21074855860323       -2.18205538872142
C           -0.39321917530614       -1.63662469192515       -0.35628180966604
N           -0.79699726724181       -0.46903197315745        0.01356178458525
C           -2.12904446083094       -0.24941080276589        0.29234553263888
C           -2.37295052386152        1.10004838798933        0.75117644652963
O           -1.62100023397085        1.95977018117774        1.05117958603062
O           -3.83892105740330        1.39724731102353        0.93389911421708
C           -4.07761822248315        2.44322911991492        1.92119983473916
C           -4.59102168230837        1.58724659713644       -0.30248731010619
C           -3.04023444399342       -1.27447820064391        0.19605275940492
O           -4.33167358653673       -1.15997424891495        0.45117225965170
C           -2.58887314996958       -2.61517067756998       -0.21054350659060
O           -3.35713110788041       -3.55166293073968       -0.30019256175406
N           -1.24859481584248       -2.69730891106982       -0.47606707112206
O            4.77391786701861        1.34054605668580       -0.27231127498642
H            6.73750845637325        2.87405088608286        0.80044270163102
H            6.29668367402213        3.64756481349009       -0.72302827841184
H            5.73190252697001        4.34432682135601        0.81154441575672
H            1.20764087315054        0.13671099068103       -0.03136689034751
H            2.68870191745435       -3.13699962541036       -0.04332959993369
H            1.10395414516206       -3.92219014263608        0.00626820403805
H            1.53447398174932       -2.72559508043494        1.24305316660021
H            0.80822437777780       -1.38963625610620       -2.78450729004185
H            2.24047738637804       -2.37870471764438       -2.42817387028563
H            0.62849357093531       -3.11285907079808       -2.40534087280830
H           -3.70242888029904        3.39493898024779        1.54545347269965
H           -5.15191434312523        2.47343455152101        2.08058946827192
H           -3.55563461536925        2.14190243037797        2.82631948510773
H           -4.24471056878518        0.84260878891271       -1.01249595988931
H           -5.63668185581651        1.42344972388135       -0.05362996339547
H           -4.41979553535807        2.59645991053921       -0.67626713409461
H           -4.76793290700519       -2.03091814755984        0.33834884168776
H           -0.91197029805527       -3.60444847991287       -0.77040504657930

          :  Hamiltonian                  GFN1-xTB          :
         :: total energy             -83.124575684021 Eh    ::
         :: gradient norm              0.000377766486 Eh/a0 ::
         :: HOMO-LUMO gap              1.866714875400 eV    ::
         :: SCC energy               -83.930131715122 Eh    ::
         :: -> Gsolv                  -0.117040243742 Eh    ::
         :: repulsion energy           0.831844758683 Eh    ::

    * Orbital Energies and Occupations

         #    Occupation            Energy/Eh            Energy/eV
      -------------------------------------------------------------
         1        2.0000           -0.9325701             -25.3765
       ...           ...                  ...                  ...
        55        2.0000           -0.5303368             -14.4312
        56        2.0000           -0.5219516             -14.2030
        57        2.0000           -0.5158169             -14.0361
        58        2.0000           -0.5137643             -13.9802
        59        2.0000           -0.5097044             -13.8698
        60        2.0000           -0.4962100             -13.5026
        61        2.0000           -0.4869339             -13.2501
        62        2.0000           -0.4866023             -13.2411
        63        2.0000           -0.4705234             -12.8036
        64        2.0000           -0.4700325             -12.7902
        65        2.0000           -0.4644659             -12.6388
        66        2.0000           -0.4565356             -12.4230
        67        2.0000           -0.4525723             -12.3151 (HOMO)
        68                         -0.3839718             -10.4484 (LUMO)
        69                         -0.3177524              -8.6465
        70                         -0.3151416              -8.5754
        71                         -0.2938410              -7.9958
        72                         -0.2607059              -7.0942
        73                         -0.2033219              -5.5327
        74                         -0.2014181              -5.4809
        75                         -0.1835919              -4.9958
        76                         -0.1746842              -4.7534
        77                         -0.1527945              -4.1578
        78                         -0.1446747              -3.9368
       ...                                ...                  ...
       136                          0.7458414              20.2954
      -------------------------------------------------------------
                  HL-Gap            0.0686005 Eh            1.8667 eV

Wiberg/Mayer (AO) data.
largest (>0.10) Wiberg bond orders for each atom

     #   Z sym  total        # sym  WBO       # sym  WBO       # sym  WBO
 ---------------------------------------------------------------------------
     1   6 C    3.986 --     2 C    1.031    28 H    0.982    26 H    0.966
                            27 H    0.960
     2   6 C    3.870 --     3 N    1.603    25 O    1.084     1 C    1.031
     3   7 N    2.980 --     2 C    1.603     4 N    1.201
     4   7 N    3.015 --     5 C    1.609     3 N    1.201
     5   6 C    3.876 --     4 N    1.609    25 O    1.065     6 C    0.990
     6   6 C    3.917 --     7 O    1.594     8 N    1.249     5 C    0.990
     7   8 O    1.914 --     6 C    1.594     8 N    0.177
     8   7 N    3.343 --     6 C    1.249     9 C    0.941    29 H    0.878
                             7 O    0.177
     9   6 C    3.939 --    12 C    0.986    10 C    0.975    11 C    0.972
                             8 N    0.941
    10   6 C    3.985 --    32 H    0.985    31 H    0.982    30 H    0.976
                             9 C    0.975
    11   6 C    3.985 --    33 H    0.985    35 H    0.984    34 H    0.976
                             9 C    0.972
    12   6 C    3.919 --    13 N    1.592    24 N    1.162     9 C    0.986
    13   7 N    3.042 --    12 C    1.592    14 C    1.147
    14   6 C    3.959 --    20 C    1.446    13 N    1.147    15 C    1.100
    15   6 C    3.802 --    16 O    1.824    14 C    1.100    17 O    0.739
    16   8 O    2.086 --    15 C    1.824
    17   8 O    2.481 --    18 C    0.815    19 C    0.808    15 C    0.739
    18   6 C    3.786 --    36 H    0.979    37 H    0.977    38 H    0.976
                            17 O    0.815
    19   6 C    3.783 --    41 H    0.980    39 H    0.976    40 H    0.976
                            17 O    0.808
    20   6 C    3.912 --    14 C    1.446    21 O    1.158    22 C    1.029
    21   8 O    2.133 --    20 C    1.158    42 H    0.777
    22   6 C    3.915 --    23 O    1.613    24 N    1.152    20 C    1.029
    23   8 O    1.938 --    22 C    1.613    24 N    0.142
    24   7 N    3.476 --    12 C    1.162    22 C    1.152    43 H    0.872
                            23 O    0.142
    25   8 O    2.332 --     2 C    1.084     5 C    1.065
    26   1 H    0.996 --     1 C    0.966
    27   1 H    0.996 --     1 C    0.960
    28   1 H    0.998 --     1 C    0.982
    29   1 H    0.964 --     8 N    0.878
    30   1 H    1.005 --    10 C    0.976
    31   1 H    0.998 --    10 C    0.982
    32   1 H    1.000 --    10 C    0.985
    33   1 H    1.000 --    11 C    0.985
    34   1 H    1.006 --    11 C    0.976
    35   1 H    0.998 --    11 C    0.984
    36   1 H    0.996 --    18 C    0.979
    37   1 H    0.993 --    18 C    0.977
    38   1 H    0.995 --    18 C    0.976
    39   1 H    1.000 --    19 C    0.976
    40   1 H    0.996 --    19 C    0.976
    41   1 H    0.991 --    19 C    0.980
    42   1 H    0.818 --    21 O    0.777
    43   1 H    0.917 --    24 N    0.872
 ---------------------------------------------------------------------------

           -------------------------------------------------
          | TOTAL ENERGY              -83.124575684021 Eh   |
          | GRADIENT NORM               0.000377766486 Eh/α |
          | HOMO-LUMO GAP               1.866714875400 eV   |
           -------------------------------------------------

 * finished run on 2023/06/20 at 15:43:01.772
