   * xtb version 6.5.1 (579679a) compiled by 'ehlert@majestix' on 2022-07-11
          program call               : /lustre/hpc/kemi/ree/PhD/git/ReactivityQM/dep/xtb-6.5.1/bin/xtb --gfn 1 /lustre/hpc/kemi/ree/PhD/git/ReactivityQM/calculations/R03/reac01prodE04/conf01/R03_reac01prodE04_conf01_gfn1.xyz --opt --vfukui --chrg -1 --uhf 0 --alpb DMSO

   ID    Z sym.   atoms
    1    6 C      1, 2, 4-7, 9, 10
    2    9 F      3
    3    7 N      8
    4    1 H      11-21

      * Solvation model:               ALPB
        Solvent                        DMSO
        Solvent mass                       7.8130E+01 g/mol
          :  Hamiltonian                  GFN1-xTB          :
 * total energy  :   -31.4665623 Eh     change       -0.1189449E-10 Eh
 * total energy  :   -31.4726371 Eh     change       -0.6074805E-02 Eh
 * total energy  :   -31.4759498 Eh     change       -0.3312696E-02 Eh
 * total energy  :   -31.4781763 Eh     change       -0.2226471E-02 Eh
 * total energy  :   -31.4813597 Eh     change       -0.3183394E-02 Eh
 * total energy  :   -31.4883920 Eh     change       -0.7032290E-02 Eh
 * total energy  :   -31.4951236 Eh     change       -0.6731628E-02 Eh
 * total energy  :   -31.4988323 Eh     change       -0.3708685E-02 Eh
 * total energy  :   -31.5012283 Eh     change       -0.2395982E-02 Eh
 * total energy  :   -31.5027951 Eh     change       -0.1566856E-02 Eh
 * total energy  :   -31.5091062 Eh     change       -0.4062189E-04 Eh
 * total energy  :   -31.5091561 Eh     change       -0.4988800E-04 Eh
 * total energy  :   -31.5091939 Eh     change       -0.3777653E-04 Eh
 * total energy  :   -31.5092118 Eh     change       -0.1789672E-04 Eh
 * total energy  :   -31.5092287 Eh     change       -0.1689075E-04 Eh
 * total energy  :   -31.5092451 Eh     change       -0.1642719E-04 Eh
 * total energy  :   -31.5092563 Eh     change       -0.1124839E-04 Eh
 * total energy  :   -31.5092647 Eh     change       -0.8359778E-05 Eh
 * total energy  :   -31.5092661 Eh     change       -0.1463926E-05 Eh
   *** GEOMETRY OPTIMIZATION CONVERGED AFTER 44 ITERATIONS ***

 final structure:
================
21
 xtb: 6.5.1 (579679a)
C           -3.02671483703416        0.19287100193558        0.18029169708875
C           -1.53235028744304        0.03509626534585        0.15564924967523
F           -4.58044358301794       -0.69403389764559       -2.07473620929853
C           -0.92827098844746       -1.14543194693455        0.58661851446443
C            0.45166989535271       -1.28193798898861        0.57647791533940
C            1.26986627255903       -0.24138759384323        0.13699169147874
C            2.77619242783116       -0.44203412357798        0.14089523115164
N            3.55778845077216        0.74065017527694       -0.19471513650361
C            0.66899763147194        0.93798564192267       -0.29020423378963
C           -0.71277721364204        1.07386083037867       -0.28023141332842
H           -3.37146604001507        0.78557561199814       -0.66874555280754
H           -3.52547120796176       -0.77620300520489        0.13486663590282
H           -3.33108440571076        0.69806347113941        1.09979519411774
H           -1.54094212642448       -1.96900434692666        0.94059830377765
H            0.90140338749120       -2.20896438597718        0.91772680313388
H            3.08796475319542       -0.78773936560421        1.13420316483604
H            3.03417115880110       -1.23526100372468       -0.57224044540116
H            3.33490292652392        1.05293406142507       -1.13054834152739
H            3.34141956071563        1.49206176680386        0.44621396889117
H            1.27939637258653        1.76555888803180       -0.63295165208274
H           -1.15425114760611        2.00733894416880       -0.61555238512463

          :  Hamiltonian                  GFN1-xTB          :
         :: total energy             -31.509266149345 Eh    ::
         :: gradient norm              0.000160682581 Eh/a0 ::
         :: HOMO-LUMO gap              2.300608127838 eV    ::
         :: SCC energy               -31.913381120131 Eh    ::
         :: -> Gsolv                  -0.127141708133 Eh    ::
         :: repulsion energy           0.413763483986 Eh    ::

    * Orbital Energies and Occupations

         #    Occupation            Energy/Eh            Energy/eV
      -------------------------------------------------------------
         1        2.0000           -0.7401221             -20.1397
       ...           ...                  ...                  ...
        16        2.0000           -0.5024282             -13.6718
        17        2.0000           -0.4948604             -13.4658
        18        2.0000           -0.4939756             -13.4418
        19        2.0000           -0.4711488             -12.8206
        20        2.0000           -0.4690301             -12.7630
        21        2.0000           -0.4523904             -12.3102
        22        2.0000           -0.4448733             -12.1056
        23        2.0000           -0.4203596             -11.4386
        24        2.0000           -0.4040629             -10.9951
        25        2.0000           -0.3971069             -10.8058
        26        2.0000           -0.3273390              -8.9073
        27        2.0000           -0.3272289              -8.9044
        28        2.0000           -0.3270660              -8.8999 (HOMO)
        29                         -0.2425202              -6.5993 (LUMO)
        30                         -0.2376337              -6.4663
        31                         -0.1174628              -3.1963
        32                         -0.1121836              -3.0527
        33                         -0.0966892              -2.6310
        34                         -0.0911383              -2.4800
        35                         -0.0840495              -2.2871
        36                         -0.0748774              -2.0375
        37                         -0.0652093              -1.7744
        38                         -0.0577721              -1.5721
        39                         -0.0413066              -1.1240
       ...                                ...                  ...
        62                          0.6651932              18.1008
      -------------------------------------------------------------
                  HL-Gap            0.0845458 Eh            2.3006 eV

Wiberg/Mayer (AO) data.
largest (>0.10) Wiberg bond orders for each atom

     #   Z sym  total        # sym  WBO       # sym  WBO       # sym  WBO
 ---------------------------------------------------------------------------
     1   6 C    3.993 --     2 C    1.023    12 H    0.978    11 H    0.974
                            13 H    0.972
     2   6 C    3.987 --    10 C    1.415     4 C    1.405     1 C    1.023
                             6 C    0.107
     3   9 F    0.076
     4   6 C    3.995 --     5 C    1.456     2 C    1.405    14 H    0.973
                             9 C    0.107
     5   6 C    3.995 --     4 C    1.456     6 C    1.407    15 H    0.974
                            10 C    0.110
     6   6 C    3.988 --     9 C    1.420     5 C    1.407     7 C    0.992
                             2 C    0.107
     7   6 C    3.977 --     8 N    1.001     6 C    0.992    16 H    0.973
                            17 H    0.970
     8   7 N    2.955 --     7 C    1.001    19 H    0.949    18 H    0.948
     9   6 C    3.996 --    10 C    1.444     6 C    1.420    20 H    0.970
                             4 C    0.107
    10   6 C    3.995 --     9 C    1.444     2 C    1.415    21 H    0.974
                             5 C    0.110
    11   1 H    1.034 --     1 C    0.974
    12   1 H    1.030 --     1 C    0.978
    13   1 H    1.009 --     1 C    0.972
    14   1 H    1.004 --     4 C    0.973
    15   1 H    1.002 --     5 C    0.974
    16   1 H    1.014 --     7 C    0.973
    17   1 H    1.013 --     7 C    0.970
    18   1 H    0.963 --     8 N    0.948
    19   1 H    0.963 --     8 N    0.949
    20   1 H    1.006 --     9 C    0.970
    21   1 H    1.004 --    10 C    0.974
 ---------------------------------------------------------------------------

           -------------------------------------------------
          | TOTAL ENERGY              -31.509266149345 Eh   |
          | GRADIENT NORM               0.000160682581 Eh/α |
          | HOMO-LUMO GAP               2.300608127838 eV   |
           -------------------------------------------------

 * finished run on 2023/06/20 at 15:13:49.721
