   * xtb version 6.5.1 (579679a) compiled by 'ehlert@majestix' on 2022-07-11
          program call               : /lustre/hpc/kemi/ree/PhD/git/ReactivityQM/dep/xtb-6.5.1/bin/xtb --gfn 1 /lustre/hpc/kemi/ree/PhD/git/ReactivityQM/calculations/R02oxygendeprot/reac01prodE02/conf14/R02oxygendeprot_reac01prodE02_conf14_gfn1.xyz --opt --vfukui --chrg -2 --uhf 0 --alpb DMSO

   ID    Z sym.   atoms
    1    6 C      1, 3, 4, 6, 8-11, 13, 15, 18, 19, 22, 24
    2    8 O      2, 5, 14, 20, 23, 25
    3    7 N      7, 12, 16, 17, 21
    4    1 H      26-42

      * Solvation model:               ALPB
        Solvent                        DMSO
        Solvent mass                       7.8130E+01 g/mol
          :  Hamiltonian                  GFN1-xTB          :
 * total energy  :   -83.5939092 Eh     change       -0.5775291E-10 Eh
 * total energy  :   -83.6084724 Eh     change       -0.1456319E-01 Eh
 * total energy  :   -83.6150293 Eh     change       -0.6556869E-02 Eh
 * total energy  :   -83.6166054 Eh     change       -0.1576072E-02 Eh
 * total energy  :   -83.6174616 Eh     change       -0.8562715E-03 Eh
 * total energy  :   -83.6178808 Eh     change       -0.4191807E-03 Eh
 * total energy  :   -83.6181759 Eh     change       -0.2951329E-03 Eh
 * total energy  :   -83.6184130 Eh     change       -0.2370269E-03 Eh
 * total energy  :   -83.6186171 Eh     change       -0.2041717E-03 Eh
 * total energy  :   -83.6188000 Eh     change       -0.1828322E-03 Eh
 * total energy  :   -83.6207853 Eh     change       -0.7516334E-05 Eh
 * total energy  :   -83.6207985 Eh     change       -0.1322247E-04 Eh
 * total energy  :   -83.6208055 Eh     change       -0.6989574E-05 Eh
 * total energy  :   -83.6208138 Eh     change       -0.8269544E-05 Eh
 * total energy  :   -83.6208224 Eh     change       -0.8616853E-05 Eh
 * total energy  :   -83.6208276 Eh     change       -0.5186986E-05 Eh
 * total energy  :   -83.6208332 Eh     change       -0.5586881E-05 Eh
 * total energy  :   -83.6208391 Eh     change       -0.5875300E-05 Eh
 * total energy  :   -83.6208432 Eh     change       -0.4102773E-05 Eh
   *** GEOMETRY OPTIMIZATION CONVERGED AFTER 54 ITERATIONS ***

 final structure:
================
42
 xtb: 6.5.1 (579679a)
C           -5.87099620149469       -0.33922182227952       -0.82370589223877
O           -4.82931563034633       -0.58618234411363        0.06890375157741
C           -3.81499286155960        0.61313336682501        0.23383681413190
C           -4.36035988924853        1.37861804399263        1.49375826019228
O           -3.74723224373462        1.35099893200531       -0.82326180110534
C           -2.49026929739734       -0.15282542664146        0.60226952235975
N           -1.54160102887744       -0.06844214472461       -0.37430101665195
C           -0.40027151869549       -0.65371676436799       -0.25078215868658
C            0.63204089494195       -0.60255919620175       -1.35888876401705
C            0.33460567557473        0.56557200807023       -2.30297880569775
C            0.63340726364041       -1.92622955587951       -2.13406054316857
N            1.97958053208160       -0.45700645387873       -0.77830725415250
C            2.38084695110423        0.59763484342264       -0.04524961331026
O            1.68739975129438        1.54140213142607        0.29412791441755
C            3.81771714569379        0.46218376379097        0.32960584279772
N            4.58964430440687       -0.54708611565344        0.05071011223416
N            5.81595742750793       -0.26158132305965        0.57434256245885
C            5.71463953184818        0.90330764848340        1.13761207275620
C            6.77404965546542        1.65548819975250        1.84521754961543
O            4.47817487534289        1.41163891072405        1.01982677206126
N           -0.09878324554126       -1.41108049859311        0.86089428498487
C           -0.96191603231361       -1.56831318377759        1.91877510937618
O           -0.60122576930490       -2.27500969544942        2.87832765950248
C           -2.27776648746569       -0.86714633254142        1.79906533679411
O           -3.09271435223387       -0.96794197943496        2.76768978695971
H           -6.73064418685593        0.16950901231376       -0.34736792219803
H           -6.23413134582925       -1.29539824764289       -1.22568643638566
H           -5.55034298690521        0.28270807797089       -1.67934827290325
H           -4.67599575570568        0.70222254091330        2.28557587275484
H           -5.21150164955460        1.98250081927130        1.17819711595380
H           -3.58162630940527        2.04375877394990        1.86842068566083
H           -0.66266768364376        0.43462836585097       -2.72348331219041
H            1.06556627828327        0.59306493335534       -3.10840935339978
H            0.36230699269667        1.51028121502651       -1.76114146766353
H            1.37453399804746       -1.89886874335797       -2.93085533010349
H           -0.34859803897077       -2.09544031905958       -2.57383819706908
H            0.86728350059133       -2.75415361379563       -1.46683290072941
H            2.67570898576529       -1.13278395870649       -1.04360459639375
H            6.91204498381983        2.63207793024276        1.38222558009338
H            6.49285272047464        1.81178597793862        2.88675762328541
H            7.70605337920967        1.09784956470645        1.80148693893380
H            0.78853666729740       -1.87937534087774        0.91603746917115

          :  Hamiltonian                  GFN1-xTB          :
         :: total energy             -83.620843176154 Eh    ::
         :: gradient norm              0.000903054856 Eh/a0 ::
         :: HOMO-LUMO gap              0.316324780620 eV    ::
         :: SCC energy               -84.360511726759 Eh    ::
         :: -> Gsolv                  -0.328765471752 Eh    ::
         :: repulsion energy           0.765377112944 Eh    ::

    * Orbital Energies and Occupations

         #    Occupation            Energy/Eh            Energy/eV
      -------------------------------------------------------------
         1        2.0000           -0.8555471             -23.2806
       ...           ...                  ...                  ...
        56        2.0000           -0.4416557             -12.0181
        57        2.0000           -0.4403193             -11.9817
        58        2.0000           -0.4331490             -11.7866
        59        2.0000           -0.4276882             -11.6380
        60        2.0000           -0.4109067             -11.1813
        61        2.0000           -0.4072685             -11.0823
        62        2.0000           -0.4009771             -10.9111
        63        2.0000           -0.3786626             -10.3039
        64        2.0000           -0.3755622             -10.2196
        65        2.0000           -0.3468841              -9.4392
        66        2.0000           -0.3328562              -9.0575
        67        2.0000           -0.3164365              -8.6107
        68        1.9956           -0.3101387              -8.4393 (HOMO)
        69        0.0044           -0.2985140              -8.1230 (LUMO)
        70                         -0.2500376              -6.8039
        71                         -0.2160429              -5.8788
        72                         -0.1991397              -5.4189
        73                         -0.1867882              -5.0828
        74                         -0.1394523              -3.7947
        75                         -0.1188772              -3.2348
        76                         -0.1052724              -2.8646
        77                         -0.0916601              -2.4942
        78                         -0.0873481              -2.3769
        79                         -0.0846387              -2.3031
       ...                                ...                  ...
       134                          0.7451558              20.2767
      -------------------------------------------------------------
                  HL-Gap            0.0116247 Eh            0.3163 eV

Wiberg/Mayer (AO) data.
largest (>0.10) Wiberg bond orders for each atom

     #   Z sym  total        # sym  WBO       # sym  WBO       # sym  WBO
 ---------------------------------------------------------------------------
     1   6 C    3.948 --     2 O    1.001    27 H    0.982    26 H    0.978
                            28 H    0.968
     2   8 O    1.907 --     1 C    1.001     3 C    0.710
     3   6 C    3.888 --     5 O    1.271     4 C    0.936     6 C    0.915
                             2 O    0.710
     4   6 C    3.985 --    30 H    0.988    31 H    0.987    29 H    0.985
                             3 C    0.936
     5   8 O    1.544 --     3 C    1.271
     6   6 C    3.923 --    24 C    1.341     7 N    1.246     3 C    0.915
                            25 O    0.138
     7   7 N    3.034 --     8 C    1.559     6 C    1.246
     8   6 C    3.922 --     7 N    1.559    21 N    1.095     9 C    0.971
     9   6 C    3.924 --    10 C    0.993    11 C    0.989     8 C    0.971
                            12 N    0.905
    10   6 C    3.993 --     9 C    0.993    33 H    0.988    32 H    0.983
                            34 H    0.981
    11   6 C    3.992 --     9 C    0.989    35 H    0.985    37 H    0.985
                            36 H    0.984
    12   7 N    3.357 --    13 C    1.269     9 C    0.905    38 H    0.901
                            14 O    0.183
    13   6 C    3.920 --    14 O    1.585    12 N    1.269    15 C    0.982
    14   8 O    1.891 --    13 C    1.585    12 N    0.183
    15   6 C    3.866 --    16 N    1.611    20 O    1.062    13 C    0.982
    16   7 N    3.008 --    15 C    1.611    17 N    1.194
    17   7 N    2.981 --    18 C    1.612    16 N    1.194
    18   6 C    3.872 --    17 N    1.612    20 O    1.081    19 C    1.030
    19   6 C    3.988 --    18 C    1.030    41 H    0.983    39 H    0.965
                            40 H    0.964
    20   8 O    2.324 --    18 C    1.081    15 C    1.062
    21   7 N    3.418 --    22 C    1.150     8 C    1.095    42 H    0.909
                            23 O    0.127
    22   6 C    3.879 --    23 O    1.497    21 N    1.150    24 C    1.022
    23   8 O    1.789 --    22 C    1.497    21 N    0.127
    24   6 C    3.954 --    25 O    1.403     6 C    1.341    22 C    1.022
    25   8 O    1.738 --    24 C    1.403     6 C    0.138
    26   1 H    1.021 --     1 C    0.978
    27   1 H    1.027 --     1 C    0.982
    28   1 H    1.040 --     1 C    0.968
    29   1 H    1.039 --     4 C    0.985
    30   1 H    1.023 --     4 C    0.988
    31   1 H    1.018 --     4 C    0.987
    32   1 H    1.019 --    10 C    0.983
    33   1 H    1.004 --    10 C    0.988
    34   1 H    1.017 --    10 C    0.981
    35   1 H    1.000 --    11 C    0.985
    36   1 H    1.005 --    11 C    0.984
    37   1 H    1.003 --    11 C    0.985
    38   1 H    0.956 --    12 N    0.901
    39   1 H    0.998 --    19 C    0.965
    40   1 H    0.997 --    19 C    0.964
    41   1 H    0.999 --    19 C    0.983
    42   1 H    0.963 --    21 N    0.909
 ---------------------------------------------------------------------------

           -------------------------------------------------
          | TOTAL ENERGY              -83.620843176154 Eh   |
          | GRADIENT NORM               0.000903054856 Eh/α |
          | HOMO-LUMO GAP               0.316324780620 eV   |
           -------------------------------------------------

 * finished run on 2023/06/21 at 17:02:27.112
