   * xtb version 6.5.1 (579679a) compiled by 'ehlert@majestix' on 2022-07-11
          program call               : /lustre/hpc/kemi/ree/PhD/git/ReactivityQM/dep/xtb-6.5.1/bin/xtb --gfn 1 /lustre/hpc/kemi/ree/PhD/git/ReactivityQM/calculations/R02oxygendeprot/reac01prodN07/conf01/R02oxygendeprot_reac01prodN07_conf01_gfn1.xyz --opt --vfukui --chrg 0 --uhf 0 --alpb DMSO

   ID    Z sym.   atoms
    1    6 C      1, 3, 5, 7-10, 12, 14, 17-19, 22, 24
    2    8 O      2, 4, 13, 20, 23, 25
    3    7 N      6, 11, 15, 16, 21
    4    1 H      26-42

      * Solvation model:               ALPB
        Solvent                        DMSO
        Solvent mass                       7.8130E+01 g/mol
          :  Hamiltonian                  GFN1-xTB          :
 * total energy  :   -82.9529323 Eh     change       -0.1847411E-11 Eh
 * total energy  :   -82.9696592 Eh     change       -0.1672691E-01 Eh
 * total energy  :   -82.9763356 Eh     change       -0.6676443E-02 Eh
 * total energy  :   -82.9772631 Eh     change       -0.9274416E-03 Eh
 * total energy  :   -82.9778195 Eh     change       -0.5564011E-03 Eh
 * total energy  :   -82.9780263 Eh     change       -0.2068054E-03 Eh
 * total energy  :   -82.9782650 Eh     change       -0.2387842E-03 Eh
 * total energy  :   -82.9784503 Eh     change       -0.1852701E-03 Eh
 * total energy  :   -82.9786000 Eh     change       -0.1496810E-03 Eh
 * total energy  :   -82.9787254 Eh     change       -0.1253654E-03 Eh
 * total energy  :   -82.9792713 Eh     change       -0.1989316E-04 Eh
 * total energy  :   -82.9792886 Eh     change       -0.1726930E-04 Eh
 * total energy  :   -82.9792974 Eh     change       -0.8831973E-05 Eh
 * total energy  :   -82.9793065 Eh     change       -0.9001966E-05 Eh
 * total energy  :   -82.9793122 Eh     change       -0.5712649E-05 Eh
 * total energy  :   -82.9793197 Eh     change       -0.7499187E-05 Eh
 * total energy  :   -82.9793267 Eh     change       -0.7062279E-05 Eh
 * total energy  :   -82.9793323 Eh     change       -0.5573508E-05 Eh
 * total energy  :   -82.9793372 Eh     change       -0.4923108E-05 Eh
   *** GEOMETRY OPTIMIZATION CONVERGED AFTER 28 ITERATIONS ***

 final structure:
================
42
 xtb: 6.5.1 (579679a)
C            6.90980197272633       -0.05200730638598        1.73709294516501
O            5.69864024531137       -0.70772851628894        1.38479097321542
C            4.78105426159057        0.05186195653535        0.73865952729056
O            5.00800793087902        1.23000139885849        0.48982383641469
C            3.55182731014047       -0.64625279398065        0.38757766464903
N            2.65230044956553        0.16418371854142       -0.28032039893654
C            1.51590639656929       -0.28861039418913       -0.65165543091721
C            0.55640836355894        0.57960102950823       -1.43537700737404
C            0.48926495962738        0.08327970995184       -2.88643441315026
C            0.99722545371648        2.04343446621425       -1.36503995278884
N           -0.77758146769672        0.43869817056839       -0.80881716216122
C           -1.87763178931095        1.02743923402673       -1.28039911166427
O           -1.97719587300480        1.74538285500587       -2.25547886147260
C           -3.09544443497468        0.71120687995884       -0.45087955914933
N           -4.30626380833209        1.13846904655607       -0.64457524538137
N           -5.03223224644106        0.58686690376077        0.34528052993408
C           -6.45352768953077        0.85187795329907        0.43909000439029
C           -4.26131221553402       -0.15583178793613        1.11141754697469
C           -4.61040916081702       -0.93103888575562        2.31174723535202
O           -3.03524980943125       -0.09318977722644        0.63054064180585
N            1.13650546110317       -1.59877943041082       -0.41963947454808
C            1.92804420258391       -2.51378465722837        0.23249678198034
O            1.51364285666180       -3.65453504286827        0.41229947472797
C            3.28338714829726       -2.00964809524160        0.68114074748460
O            4.04502411941650       -2.80109699463391        1.26293744611275
H            7.53414885069940       -0.78626094909746        2.24529083018195
H            7.42361925691329        0.31702000899643        0.84383623611269
H            6.71206474612567        0.79236441855973        2.40467275516945
H            0.09905250911665       -0.93232208712890       -2.91470639062520
H            1.49209332921587        0.09078854555967       -3.31200392803876
H           -0.15327960419398        0.72643362934826       -3.48407500569888
H            0.33754539601055        2.66861522209327       -1.96273918650684
H            2.01517665428653        2.12610854265830       -1.74509382278313
H            0.97937752866411        2.38613744276836       -0.33152111778065
H           -0.85099901098870       -0.10703780983724        0.03353294449848
H           -6.66463083774605        1.31721964987659        1.39984448073531
H           -6.99455974384108       -0.08920821663909        0.35725602255980
H           -6.72268574282191        1.51865053387650       -0.37605591714663
H           -5.64507939035148       -1.26357086718547        2.26140894455877
H           -4.49095544302072       -0.30147516884367        3.19701752635592
H           -3.93829617848860       -1.78345840731828        2.40323162827760
H            0.22721404374502       -1.91403412833940       -0.70617273782965

          :  Hamiltonian                  GFN1-xTB          :
         :: total energy             -82.979337220893 Eh    ::
         :: gradient norm              0.000799287384 Eh/a0 ::
         :: HOMO-LUMO gap              0.425712339930 eV    ::
         :: SCC energy               -83.768424666355 Eh    ::
         :: -> Gsolv                  -0.130903173475 Eh    ::
         :: repulsion energy           0.813969295784 Eh    ::

    * Orbital Energies and Occupations

         #    Occupation            Energy/Eh            Energy/eV
      -------------------------------------------------------------
         1        2.0000           -0.9358210             -25.4650
       ...           ...                  ...                  ...
        55        2.0000           -0.5053181             -13.7504
        56        2.0000           -0.5016445             -13.6504
        57        2.0000           -0.4968541             -13.5201
        58        2.0000           -0.4892279             -13.3126
        59        2.0000           -0.4794023             -13.0452
        60        2.0000           -0.4665661             -12.6959
        61        2.0000           -0.4658869             -12.6774
        62        2.0000           -0.4603770             -12.5275
        63        2.0000           -0.4447739             -12.1029
        64        2.0000           -0.4388736             -11.9424
        65        2.0000           -0.4221773             -11.4880
        66        2.0000           -0.3828006             -10.4165
        67        1.9995           -0.3703632             -10.0781 (HOMO)
        68        0.0005           -0.3547186              -9.6524 (LUMO)
        69                         -0.3414932              -9.2925
        70                         -0.2736482              -7.4463
        71                         -0.2458800              -6.6907
        72                         -0.2358827              -6.4187
        73                         -0.2003972              -5.4531
        74                         -0.1831489              -4.9837
        75                         -0.1709776              -4.6525
        76                         -0.1249859              -3.4010
        77                         -0.1232462              -3.3537
        78                         -0.1222148              -3.3256
       ...                                ...                  ...
       134                          0.7551682              20.5492
      -------------------------------------------------------------
                  HL-Gap            0.0156446 Eh            0.4257 eV

Wiberg/Mayer (AO) data.
largest (>0.10) Wiberg bond orders for each atom

     #   Z sym  total        # sym  WBO       # sym  WBO       # sym  WBO
 ---------------------------------------------------------------------------
     1   6 C    3.897 --    26 H    0.987    28 H    0.981    27 H    0.981
                             2 O    0.923
     2   8 O    2.163 --     3 C    1.053     1 C    0.923     4 O    0.111
     3   6 C    3.851 --     4 O    1.578     5 C    1.109     2 O    1.053
     4   8 O    1.852 --     3 C    1.578     2 O    0.111
     5   6 C    3.913 --    24 C    1.269     6 N    1.156     3 C    1.109
                            25 O    0.130
     6   7 N    3.034 --     7 C    1.638     5 C    1.156
     7   6 C    3.933 --     6 N    1.638    21 N    1.085     8 C    0.979
     8   6 C    3.914 --    10 C    0.993     9 C    0.982     7 C    0.979
                            11 N    0.893
     9   6 C    3.987 --    29 H    0.984    30 H    0.984     8 C    0.982
                            31 H    0.981
    10   6 C    3.989 --     8 C    0.993    34 H    0.985    32 H    0.984
                            33 H    0.982
    11   7 N    3.392 --    12 C    1.311     8 C    0.893    35 H    0.891
                            13 O    0.202
    12   6 C    3.927 --    13 O    1.593    11 N    1.311    14 C    0.952
    13   8 O    1.925 --    12 C    1.593    11 N    0.202
    14   6 C    3.835 --    15 N    1.616    20 O    1.052    12 C    0.952
    15   7 N    2.982 --    14 C    1.616    16 N    1.149
    16   7 N    3.631 --    18 C    1.427    15 N    1.149    17 C    0.910
    17   6 C    3.886 --    38 H    0.978    36 H    0.970    37 H    0.969
                            16 N    0.910
    18   6 C    3.842 --    16 N    1.427    20 O    1.145    19 C    1.042
    19   6 C    3.961 --    18 C    1.042    39 H    0.967    41 H    0.962
                            40 H    0.932
    20   8 O    2.374 --    18 C    1.145    14 C    1.052
    21   7 N    3.416 --    22 C    1.152     7 C    1.085    42 H    0.898
                            23 O    0.135
    22   6 C    3.875 --    23 O    1.587    21 N    1.152    24 C    0.965
    23   8 O    1.867 --    22 C    1.587    21 N    0.135
    24   6 C    3.942 --    25 O    1.527     5 C    1.269    22 C    0.965
    25   8 O    1.832 --    24 C    1.527     5 C    0.130
    26   1 H    1.015 --     1 C    0.987
    27   1 H    1.013 --     1 C    0.981
    28   1 H    1.014 --     1 C    0.981
    29   1 H    1.002 --     9 C    0.984
    30   1 H    1.002 --     9 C    0.984
    31   1 H    1.007 --     9 C    0.981
    32   1 H    1.007 --    10 C    0.984
    33   1 H    1.013 --    10 C    0.982
    34   1 H    1.007 --    10 C    0.985
    35   1 H    0.934 --    11 N    0.891
    36   1 H    0.990 --    17 C    0.970
    37   1 H    0.990 --    17 C    0.969
    38   1 H    0.993 --    17 C    0.978
    39   1 H    0.988 --    19 C    0.967
    40   1 H    0.984 --    19 C    0.932
    41   1 H    0.985 --    19 C    0.962
    42   1 H    0.944 --    21 N    0.898
 ---------------------------------------------------------------------------

           -------------------------------------------------
          | TOTAL ENERGY              -82.979337220893 Eh   |
          | GRADIENT NORM               0.000799287384 Eh/α |
          | HOMO-LUMO GAP               0.425712339930 eV   |
           -------------------------------------------------

 * finished run on 2023/06/21 at 17:23:09.930
