                         Program Version 5.0.1 -  RELEASE  -
|  1> # ORCA input file
|  2> ! SP r2SCAN-3c CPCM
|  3>
|  4> %maxcore 1875.0
|  5> %pal nprocs 4 end
|  6> %cpcm smd true SMDsolvent "DMSO" end
|  7>
|  8> *xyz 0 1
|  9> C       6.600764   -1.596706   -0.067444
| 10> O       5.433508   -0.979236    0.459784
| 11> C       4.452547   -0.709944   -0.432164
| 12> O       4.588657   -0.983366   -1.617463
| 13> C       3.264580   -0.084156    0.140714
| 14> N       2.288691    0.169899   -0.801516
| 15> C       1.188896    0.729287   -0.463590
| 16> C       0.135375    1.059815   -1.498328
| 17> C       0.156977    2.559539   -1.805699
| 18> C       0.354012    0.232872   -2.766600
| 19> N      -1.193347    0.757951   -0.929115
| 20> C      -1.510665   -0.443837   -0.440893
| 21> O      -0.802168   -1.433067   -0.404477
| 22> C      -2.898608   -0.476790    0.123189
| 23> O      -3.678243    0.597341    0.188108
| 24> C      -4.820119    0.195751    0.775075
| 25> C      -5.916654    1.150064    1.009217
| 26> N      -4.775296   -1.068618    1.070678
| 27> N      -3.559777   -1.483161    0.657292
| 28> C      -3.200183   -2.875691    0.825880
| 29> N       0.923297    1.106863    0.836098
| 30> C       1.786014    0.886775    1.881929
| 31> O       1.465464    1.223677    3.016898
| 32> C       3.102937    0.234023    1.517387
| 33> O       3.929237    0.025504    2.421136
| 34> H       6.357245   -2.569847   -0.504992
| 35> H       7.294968   -1.727391    0.761931
| 36> H       7.056663   -0.967237   -0.838010
| 37> H      -0.617622    2.805479   -2.529161
| 38> H      -0.014171    3.132184   -0.895771
| 39> H       1.126882    2.833181   -2.219156
| 40> H      -0.413473    0.466420   -3.501050
| 41> H       0.319500   -0.830652   -2.534948
| 42> H       1.335034    0.470268   -3.176979
| 43> H      -1.888666    1.482611   -0.934257
| 44> H      -6.758104    0.641946    1.474007
| 45> H      -6.225376    1.592534    0.061594
| 46> H      -5.566864    1.957323    1.654235
| 47> H      -3.252970   -3.117299    1.886566
| 48> H      -2.194153   -3.029412    0.442590
| 49> H      -3.920375   -3.480724    0.277450
| 50> H       0.045585    1.545827    1.050546
| 51> **                         ****END OF INPUT****

CARTESIAN COORDINATES (ANGSTROEM)
---------------------------------
  C      6.600764   -1.596706   -0.067444
  O      5.433508   -0.979236    0.459784
  C      4.452547   -0.709944   -0.432164
  O      4.588657   -0.983366   -1.617463
  C      3.264580   -0.084156    0.140714
  N      2.288691    0.169899   -0.801516
  C      1.188896    0.729287   -0.463590
  C      0.135375    1.059815   -1.498328
  C      0.156977    2.559539   -1.805699
  C      0.354012    0.232872   -2.766600
  N     -1.193347    0.757951   -0.929115
  C     -1.510665   -0.443837   -0.440893
  O     -0.802168   -1.433067   -0.404477
  C     -2.898608   -0.476790    0.123189
  O     -3.678243    0.597341    0.188108
  C     -4.820119    0.195751    0.775075
  C     -5.916654    1.150064    1.009217
  N     -4.775296   -1.068618    1.070678
  N     -3.559777   -1.483161    0.657292
  C     -3.200183   -2.875691    0.825880
  N      0.923297    1.106863    0.836098
  C      1.786014    0.886775    1.881929
  O      1.465464    1.223677    3.016898
  C      3.102937    0.234023    1.517387
  O      3.929237    0.025504    2.421136
  H      6.357245   -2.569847   -0.504992
  H      7.294968   -1.727391    0.761931
  H      7.056663   -0.967237   -0.838010
  H     -0.617622    2.805479   -2.529161
  H     -0.014171    3.132184   -0.895771
  H      1.126882    2.833181   -2.219156
  H     -0.413473    0.466420   -3.501050
  H      0.319500   -0.830652   -2.534948
  H      1.335034    0.470268   -3.176979
  H     -1.888666    1.482611   -0.934257
  H     -6.758104    0.641946    1.474007
  H     -6.225376    1.592534    0.061594
  H     -5.566864    1.957323    1.654235
  H     -3.252970   -3.117299    1.886566
  H     -2.194153   -3.029412    0.442590
  H     -3.920375   -3.480724    0.277450
  H      0.045585    1.545827    1.050546

 Total Charge           Charge          ....    0
 Multiplicity           Mult            ....    1
 Number of Electrons    NEL             ....  184
 Basis Dimension        Dim             ....  615

ORBITAL ENERGIES
----------------

  NO   OCC          E(Eh)            E(eV)
   0   2.0000     -19.110884      -520.0336
   1   2.0000     -18.969443      -516.1848
   2   2.0000     -18.956494      -515.8324
   3   2.0000     -18.907040      -514.4867
   4   2.0000     -18.902994      -514.3766
   5   2.0000     -18.878398      -513.7073
   6   2.0000     -14.329767      -389.9328
   7   2.0000     -14.246131      -387.6569
   8   2.0000     -14.220056      -386.9474
   9   2.0000     -14.198797      -386.3689
  10   2.0000     -14.139043      -384.7429
  11   2.0000     -10.210129      -277.8317
  12   2.0000     -10.190268      -277.2913
  13   2.0000     -10.183114      -277.0966
  14   2.0000     -10.125406      -275.5263
  15   2.0000     -10.115181      -275.2481
  16   2.0000     -10.102298      -274.8975
  17   2.0000     -10.091043      -274.5913
  18   2.0000     -10.089142      -274.5395
  19   2.0000     -10.073830      -274.1229
  20   2.0000     -10.062661      -273.8189
  21   2.0000     -10.060437      -273.7584
  22   2.0000     -10.037298      -273.1288
  23   2.0000     -10.027061      -272.8502
  24   2.0000     -10.018083      -272.6059
  25   2.0000      -1.211796       -32.9746
  26   2.0000      -1.056450       -28.7475
  27   2.0000      -1.047338       -28.4995
  28   2.0000      -1.041740       -28.3472
  29   2.0000      -0.999110       -27.1872
  30   2.0000      -0.949201       -25.8291
  31   2.0000      -0.943222       -25.6664
  32   2.0000      -0.940005       -25.5788
  33   2.0000      -0.922233       -25.0952
  34   2.0000      -0.897457       -24.4211
  35   2.0000      -0.849110       -23.1055
  36   2.0000      -0.788050       -21.4439
  37   2.0000      -0.771313       -20.9885
  38   2.0000      -0.742166       -20.1954
  39   2.0000      -0.710313       -19.3286
  40   2.0000      -0.686632       -18.6842
  41   2.0000      -0.670753       -18.2521
  42   2.0000      -0.664836       -18.0911
  43   2.0000      -0.648728       -17.6528
  44   2.0000      -0.623425       -16.9643
  45   2.0000      -0.615806       -16.7569
  46   2.0000      -0.602581       -16.3971
  47   2.0000      -0.564904       -15.3718
  48   2.0000      -0.548909       -14.9366
  49   2.0000      -0.546789       -14.8789
  50   2.0000      -0.523536       -14.2461
  51   2.0000      -0.516523       -14.0553
  52   2.0000      -0.502807       -13.6821
  53   2.0000      -0.477928       -13.0051
  54   2.0000      -0.472308       -12.8521
  55   2.0000      -0.460295       -12.5253
  56   2.0000      -0.452205       -12.3051
  57   2.0000      -0.441913       -12.0251
  58   2.0000      -0.439594       -11.9620
  59   2.0000      -0.434723       -11.8294
  60   2.0000      -0.431271       -11.7355
  61   2.0000      -0.426455       -11.6044
  62   2.0000      -0.416797       -11.3416
  63   2.0000      -0.410563       -11.1720
  64   2.0000      -0.406899       -11.0723
  65   2.0000      -0.400326       -10.8934
  66   2.0000      -0.396934       -10.8011
  67   2.0000      -0.390917       -10.6374
  68   2.0000      -0.381400       -10.3784
  69   2.0000      -0.377294       -10.2667
  70   2.0000      -0.366060        -9.9610
  71   2.0000      -0.364562        -9.9202
  72   2.0000      -0.360326        -9.8050
  73   2.0000      -0.354348        -9.6423
  74   2.0000      -0.351175        -9.5560
  75   2.0000      -0.349828        -9.5193
  76   2.0000      -0.338963        -9.2236
  77   2.0000      -0.334625        -9.1056
  78   2.0000      -0.326482        -8.8840
  79   2.0000      -0.316911        -8.6236
  80   2.0000      -0.307572        -8.3695
  81   2.0000      -0.301065        -8.1924
  82   2.0000      -0.299964        -8.1624
  83   2.0000      -0.270707        -7.3663
  84   2.0000      -0.267296        -7.2735
  85   2.0000      -0.251058        -6.8316
  86   2.0000      -0.243002        -6.6124
  87   2.0000      -0.242655        -6.6030
  88   2.0000      -0.226434        -6.1616
  89   2.0000      -0.209980        -5.7139
  90   2.0000      -0.172801        -4.7021
  91   2.0000      -0.157508        -4.2860
  92   0.0000      -0.130391        -3.5481
  93   0.0000      -0.062165        -1.6916
  94   0.0000      -0.051476        -1.4007
  95   0.0000      -0.009325        -0.2537
  96   0.0000       0.015474         0.4211

MULLIKEN ATOMIC CHARGES
-----------------------
   0 C :   -0.328944
   1 O :   -0.150074
   2 C :    0.133875
   3 O :   -0.437899
   4 C :   -0.033997
   5 N :   -0.146034
   6 C :    0.163805
   7 C :    0.078897
   8 C :   -0.556098
   9 C :   -0.613080
  10 N :   -0.148850
  11 C :    0.024359
  12 O :   -0.459446
  13 C :    0.198606
  14 O :    0.016125
  15 C :    0.493900
  16 C :   -0.618121
  17 N :   -0.412517
  18 N :    0.515034
  19 C :   -0.408796
  20 N :   -0.035422
  21 C :    0.018026
  22 O :   -0.396351
  23 C :   -0.091485
  24 O :   -0.369902
  25 H :    0.162734
  26 H :    0.164224
  27 H :    0.163073
  28 H :    0.187934
  29 H :    0.189044
  30 H :    0.196822
  31 H :    0.184068
  32 H :    0.194918
  33 H :    0.189759
  34 H :    0.328628
  35 H :    0.218109
  36 H :    0.215791
  37 H :    0.217047
  38 H :    0.215717
  39 H :    0.221620
  40 H :    0.215404
  41 H :    0.299495
Sum of atomic charges:    0.0000000

LOEWDIN ATOMIC CHARGES
----------------------
   0 C :   -0.055118
   1 O :   -0.602087
   2 C :    0.385245
   3 O :   -0.479584
   4 C :    0.120333
   5 N :   -0.595333
   6 C :    0.309360
   7 C :    0.110108
   8 C :   -0.341104
   9 C :   -0.344666
  10 N :   -0.549315
  11 C :    0.385424
  12 O :   -0.437978
  13 C :    0.525382
  14 O :   -0.333684
  15 C :    0.428555
  16 C :   -0.299180
  17 N :   -0.216805
  18 N :   -0.492944
  19 C :   -0.021259
  20 N :   -0.483385
  21 C :    0.356650
  22 O :   -0.477188
  23 C :    0.227930
  24 O :   -0.564306
  25 H :    0.173348
  26 H :    0.177462
  27 H :    0.173821
  28 H :    0.173017
  29 H :    0.173836
  30 H :    0.179221
  31 H :    0.167359
  32 H :    0.180861
  33 H :    0.178755
  34 H :    0.303160
  35 H :    0.200396
  36 H :    0.203051
  37 H :    0.203662
  38 H :    0.217653
  39 H :    0.223805
  40 H :    0.217717
  41 H :    0.297827

  Mayer bond orders larger than 0.100000
B(  0-C ,  1-O ) :   0.8466 B(  0-C , 25-H ) :   0.9614 B(  0-C , 26-H ) :   0.9694
B(  0-C , 27-H ) :   0.9623 B(  1-O ,  2-C ) :   1.1302 B(  2-C ,  3-O ) :   1.8916
B(  2-C ,  4-C ) :   1.1481 B(  4-C ,  5-N ) :   0.9029 B(  4-C , 23-C ) :   0.9753
B(  5-N ,  6-C ) :   1.8532 B(  6-C ,  7-C ) :   0.7915 B(  6-C , 20-N ) :   0.9976
B(  7-C ,  8-C ) :   0.9530 B(  7-C ,  9-C ) :   0.8951 B(  7-C , 10-N ) :   0.8014
B(  8-C , 28-H ) :   0.9635 B(  8-C , 29-H ) :   0.9523 B(  8-C , 30-H ) :   0.9664
B(  9-C , 31-H ) :   0.9736 B(  9-C , 32-H ) :   0.9646 B(  9-C , 33-H ) :   0.9609
B( 10-N , 11-C ) :   1.2090 B( 10-N , 12-O ) :   0.1056 B( 10-N , 34-H ) :   0.8851
B( 11-C , 12-O ) :   1.7352 B( 11-C , 13-C ) :   0.9134 B( 11-C , 18-N ) :  -0.1049
B( 13-C , 14-O ) :   1.1374 B( 13-C , 17-N ) :   0.1968 B( 13-C , 18-N ) :   1.6578
B( 14-O , 15-C ) :   1.0521 B( 15-C , 16-C ) :   0.8529 B( 15-C , 17-N ) :   1.5150
B( 16-C , 35-H ) :   0.9750 B( 16-C , 36-H ) :   0.9302 B( 16-C , 37-H ) :   0.9276
B( 17-N , 18-N ) :   1.2333 B( 18-N , 19-C ) :   0.8997 B( 19-C , 38-H ) :   0.9179
B( 19-C , 39-H ) :   0.9300 B( 19-C , 40-H ) :   0.9162 B( 20-N , 21-C ) :   1.0084
B( 20-N , 41-H ) :   0.8876 B( 21-C , 22-O ) :   2.0821 B( 21-C , 23-C ) :   0.8790
B( 23-C , 24-O ) :   1.9524

Dispersion correction           -0.018632665
FINAL SINGLE POINT ENERGY     -1268.629470350142

DIPOLE MOMENT
-------------
                                X             Y             Z
Electronic contribution:     -1.68719      -1.21685       9.09326
Nuclear contribution   :    -11.83554       2.04105     -11.28001
                        -----------------------------------------
Total Dipole Moment    :    -13.52273       0.82420      -2.18675
                        -----------------------------------------
Magnitude (a.u.)       :     13.72317
Magnitude (Debye)      :     34.88152

Rotational constants in cm-1:     0.014585     0.003582     0.003473
Rotational constants in MHz :   437.236298   107.377955   104.105029

                             ****ORCA TERMINATED NORMALLY****
TOTAL RUN TIME: 0 days 0 hours 2 minutes 16 seconds 434 msec
