   * xtb version 6.5.1 (579679a) compiled by 'ehlert@majestix' on 2022-07-11
          program call               : /lustre/hpc/kemi/ree/PhD/git/ReactivityQM/dep/xtb-6.5.1/bin/xtb --gfn 1 /lustre/hpc/kemi/ree/PhD/git/ReactivityQM/calculations/R02methylcation/reac01prodN06/conf19/R02methylcation_reac01prodN06_conf19_gfn1.xyz --opt --vfukui --chrg 0 --uhf 0 --alpb DMSO

   ID    Z sym.   atoms
    1    6 C      1, 3, 5, 7-10, 12, 14, 16, 17, 20, 22, 24
    2    8 O      2, 4, 13, 15, 23, 25
    3    7 N      6, 11, 18, 19, 21
    4    1 H      26-42

      * Solvation model:               ALPB
        Solvent                        DMSO
        Solvent mass                       7.8130E+01 g/mol
          :  Hamiltonian                  GFN1-xTB          :
 * total energy  :   -82.9468406 Eh     change       -0.8260912E-09 Eh
 * total energy  :   -82.9631409 Eh     change       -0.1630032E-01 Eh
 * total energy  :   -82.9712824 Eh     change       -0.8141482E-02 Eh
 * total energy  :   -82.9732454 Eh     change       -0.1962965E-02 Eh
 * total energy  :   -82.9745965 Eh     change       -0.1351108E-02 Eh
 * total energy  :   -82.9752835 Eh     change       -0.6870148E-03 Eh
 * total energy  :   -82.9758573 Eh     change       -0.5738256E-03 Eh
 * total energy  :   -82.9762783 Eh     change       -0.4209541E-03 Eh
 * total energy  :   -82.9766377 Eh     change       -0.3594681E-03 Eh
 * total energy  :   -82.9769727 Eh     change       -0.3349775E-03 Eh
 * total energy  :   -82.9854950 Eh     change       -0.4370036E-04 Eh
 * total energy  :   -82.9855516 Eh     change       -0.5661214E-04 Eh
 * total energy  :   -82.9855857 Eh     change       -0.3411738E-04 Eh
 * total energy  :   -82.9856083 Eh     change       -0.2260607E-04 Eh
 * total energy  :   -82.9856024 Eh     change        0.5850524E-05 Eh
 * total energy  :   -82.9856398 Eh     change       -0.3734956E-04 Eh
 * total energy  :   -82.9856526 Eh     change       -0.1278298E-04 Eh
 * total energy  :   -82.9856644 Eh     change       -0.1184584E-04 Eh
 * total energy  :   -82.9856689 Eh     change       -0.4517270E-05 Eh
   *** GEOMETRY OPTIMIZATION CONVERGED AFTER 81 ITERATIONS ***

 final structure:
================
42
 xtb: 6.5.1 (579679a)
C            6.60076364043672       -1.59670558684737       -0.06744440415898
O            5.43350824967656       -0.97923641612116        0.45978433512146
C            4.45254726711739       -0.70994354236344       -0.43216360299909
O            4.58865679064488       -0.98336560543416       -1.61746285531001
C            3.26457998518992       -0.08415592519418        0.14071446452474
N            2.28869125202947        0.16989933471907       -0.80151598768830
C            1.18889583883399        0.72928724519613       -0.46359010225927
C            0.13537453555491        1.05981542907340       -1.49832811498307
C            0.15697729420292        2.55953906381613       -1.80569873275610
C            0.35401166891543        0.23287238365863       -2.76659968810448
N           -1.19334732021380        0.75795144481458       -0.92911549716597
C           -1.51066459051104       -0.44383733247994       -0.44089263701030
O           -0.80216829108892       -1.43306702476845       -0.40447713981788
C           -2.89860760514041       -0.47678953921023        0.12318888712883
O           -3.67824271708672        0.59734116321198        0.18810797714178
C           -4.82011919311196        0.19575136705428        0.77507451018830
C           -5.91665421622683        1.15006432182945        1.00921693868742
N           -4.77529557488547       -1.06861849238367        1.07067836533842
N           -3.55977741747418       -1.48316072316384        0.65729237951394
C           -3.20018317969939       -2.87569111592528        0.82588022000710
N            0.92329707034119        1.10686252179182        0.83609813357871
C            1.78601439874425        0.88677450267834        1.88192927547694
O            1.46546436057087        1.22367731098762        3.01689775425261
C            3.10293732631035        0.23402292500080        1.51738675693134
O            3.92923691692245        0.02550417920549        2.42113570536218
H            6.35724542489888       -2.56984744912065       -0.50499206167450
H            7.29496837437846       -1.72739149311507        0.76193118422557
H            7.05666281452448       -0.96723714321093       -0.83801047355579
H           -0.61762153316223        2.80547913583254       -2.52916094485202
H           -0.01417127521317        3.13218394211833       -0.89577114860088
H            1.12688223965852        2.83318076749981       -2.21915582416133
H           -0.41347320736540        0.46642010741397       -3.50105014821786
H            0.31950021895535       -0.83065231537035       -2.53494804926409
H            1.33503409234438        0.47026795779502       -3.17697888075298
H           -1.88866567003376        1.48261121267536       -0.93425670297213
H           -6.75810414541276        0.64194612829023        1.47400663490285
H           -6.22537590280175        1.59253403620030        0.06159415891043
H           -5.56686424170854        1.95732278052811        1.65423533725063
H           -3.25296989164735       -3.11729937758160        1.88656589239511
H           -2.19415259194807       -3.02941165144253        0.44259039811694
H           -3.92037501456587       -3.48072447391877        0.27745020005376
H            0.04558481903949        1.54582694623214        1.05054648720507

          :  Hamiltonian                  GFN1-xTB          :
         :: total energy             -82.985668945627 Eh    ::
         :: gradient norm              0.000556360233 Eh/a0 ::
         :: HOMO-LUMO gap              0.209394001317 eV    ::
         :: SCC energy               -83.773928415561 Eh    ::
         :: -> Gsolv                  -0.120072932744 Eh    ::
         :: repulsion energy           0.813900875173 Eh    ::

    * Orbital Energies and Occupations

         #    Occupation            Energy/Eh            Energy/eV
      -------------------------------------------------------------
         1        2.0000           -0.9273967             -25.2357
       ...           ...                  ...                  ...
        55        2.0000           -0.5093930             -13.8613
        56        2.0000           -0.5062438             -13.7756
        57        2.0000           -0.4986298             -13.5684
        58        2.0000           -0.4920966             -13.3906
        59        2.0000           -0.4863826             -13.2351
        60        2.0000           -0.4727364             -12.8638
        61        2.0000           -0.4698133             -12.7843
        62        2.0000           -0.4653655             -12.6632
        63        2.0000           -0.4489551             -12.2167
        64        2.0000           -0.4431773             -12.0595
        65        2.0000           -0.4259256             -11.5900
        66        2.0000           -0.3876061             -10.5473
        67        1.9657           -0.3745444             -10.1919 (HOMO)
        68        0.0343           -0.3668493              -9.9825 (LUMO)
        69                         -0.3152521              -8.5784
        70                         -0.2777599              -7.5582
        71                         -0.2488723              -6.7722
        72                         -0.2444541              -6.6519
        73                         -0.2044904              -5.5645
        74                         -0.1667934              -4.5387
        75                         -0.1624336              -4.4200
        76                         -0.1360403              -3.7018
        77                         -0.1241221              -3.3775
        78                         -0.1236838              -3.3656
       ...                                ...                  ...
       134                          0.7517329              20.4557
      -------------------------------------------------------------
                  HL-Gap            0.0076951 Eh            0.2094 eV

Wiberg/Mayer (AO) data.
largest (>0.10) Wiberg bond orders for each atom

     #   Z sym  total        # sym  WBO       # sym  WBO       # sym  WBO
 ---------------------------------------------------------------------------
     1   6 C    3.895 --    27 H    0.987    26 H    0.980    28 H    0.980
                             2 O    0.921
     2   8 O    2.166 --     3 C    1.058     1 C    0.921     4 O    0.113
     3   6 C    3.848 --     4 O    1.585     5 C    1.099     2 O    1.058
     4   8 O    1.853 --     3 C    1.585     2 O    0.113
     5   6 C    3.885 --    24 C    1.259     6 N    1.167     3 C    1.099
                            25 O    0.121
     6   7 N    3.028 --     7 C    1.624     5 C    1.167
     7   6 C    3.920 --     6 N    1.624    21 N    1.096     8 C    0.972
     8   6 C    3.913 --    10 C    0.990     9 C    0.989     7 C    0.972
                            11 N    0.897
     9   6 C    3.988 --     8 C    0.989    30 H    0.983    29 H    0.983
                            31 H    0.982
    10   6 C    3.987 --     8 C    0.990    32 H    0.987    34 H    0.981
                            33 H    0.981
    11   7 N    3.391 --    12 C    1.304     8 C    0.897    35 H    0.888
                            13 O    0.198
    12   6 C    3.923 --    13 O    1.573    11 N    1.304    14 C    0.966
    13   8 O    1.921 --    12 C    1.573    11 N    0.198
    14   6 C    3.801 --    19 N    1.428    15 O    1.112    12 C    0.966
    15   8 O    2.351 --    14 C    1.112    16 C    1.065
    16   6 C    3.839 --    18 N    1.586    15 O    1.065    17 C    1.042
    17   6 C    3.971 --    16 C    1.042    36 H    0.978    37 H    0.951
                            38 H    0.950
    18   7 N    2.959 --    16 C    1.586    19 N    1.145
    19   7 N    3.617 --    14 C    1.428    18 N    1.145    20 C    0.912
    20   6 C    3.883 --    40 H    0.973    39 H    0.966    41 H    0.966
                            19 N    0.912
    21   7 N    3.420 --    22 C    1.153     7 C    1.096    42 H    0.897
                            23 O    0.134
    22   6 C    3.873 --    23 O    1.589    21 N    1.153    24 C    0.964
    23   8 O    1.863 --    22 C    1.589    21 N    0.134
    24   6 C    3.934 --    25 O    1.533     5 C    1.259    22 C    0.964
    25   8 O    1.818 --    24 C    1.533     5 C    0.121
    26   1 H    1.013 --     1 C    0.980
    27   1 H    1.015 --     1 C    0.987
    28   1 H    1.013 --     1 C    0.980
    29   1 H    0.997 --     9 C    0.983
    30   1 H    0.999 --     9 C    0.983
    31   1 H    1.000 --     9 C    0.982
    32   1 H    1.001 --    10 C    0.987
    33   1 H    1.010 --    10 C    0.981
    34   1 H    1.011 --    10 C    0.981
    35   1 H    0.927 --    11 N    0.888
    36   1 H    0.991 --    17 C    0.978
    37   1 H    0.989 --    17 C    0.951
    38   1 H    0.989 --    17 C    0.950
    39   1 H    0.991 --    20 C    0.966
    40   1 H    1.006 --    20 C    0.973
    41   1 H    0.991 --    20 C    0.966
    42   1 H    0.946 --    21 N    0.897
 ---------------------------------------------------------------------------

           -------------------------------------------------
          | TOTAL ENERGY              -82.985668945627 Eh   |
          | GRADIENT NORM               0.000556360233 Eh/α |
          | HOMO-LUMO GAP               0.209394001317 eV   |
           -------------------------------------------------

 * finished run on 2023/06/21 at 17:36:37.477
