   * xtb version 6.5.1 (579679a) compiled by 'ehlert@majestix' on 2022-07-11
          program call               : /lustre/hpc/kemi/ree/PhD/git/ReactivityQM/dep/xtb-6.5.1/bin/xtb --gfn 1 /lustre/hpc/kemi/ree/PhD/git/ReactivityQM/calculations/R02methylcation/reac01prodE04/conf05/R02methylcation_reac01prodE04_conf05_gfn1.xyz --opt --vfukui --chrg -2 --uhf 0 --alpb DMSO

   ID    Z sym.   atoms
    1    6 C      1, 3, 5, 6, 8-11, 13, 15, 18, 19, 22, 24
    2    8 O      2, 4, 14, 20, 23, 25
    3    7 N      7, 12, 16, 17, 21
    4    1 H      26-42

      * Solvation model:               ALPB
        Solvent                        DMSO
        Solvent mass                       7.8130E+01 g/mol
          :  Hamiltonian                  GFN1-xTB          :
 * total energy  :   -83.5806822 Eh     change       -0.4192202E-10 Eh
 * total energy  :   -83.6010436 Eh     change       -0.2036135E-01 Eh
 * total energy  :   -83.6078292 Eh     change       -0.6785644E-02 Eh
 * total energy  :   -83.6093203 Eh     change       -0.1491086E-02 Eh
 * total energy  :   -83.6105647 Eh     change       -0.1244403E-02 Eh
 * total energy  :   -83.6113535 Eh     change       -0.7888132E-03 Eh
 * total energy  :   -83.6118666 Eh     change       -0.5130393E-03 Eh
 * total energy  :   -83.6123119 Eh     change       -0.4453118E-03 Eh
 * total energy  :   -83.6127154 Eh     change       -0.4035686E-03 Eh
 * total energy  :   -83.6130541 Eh     change       -0.3386667E-03 Eh
 * total energy  :   -83.6146012 Eh     change       -0.8169700E-05 Eh
 * total energy  :   -83.6146107 Eh     change       -0.9450821E-05 Eh
 * total energy  :   -83.6146202 Eh     change       -0.9486592E-05 Eh
 * total energy  :   -83.6146279 Eh     change       -0.7742098E-05 Eh
 * total energy  :   -83.6146339 Eh     change       -0.5949983E-05 Eh
 * total energy  :   -83.6146392 Eh     change       -0.5354770E-05 Eh
 * total energy  :   -83.6146454 Eh     change       -0.6210448E-05 Eh
 * total energy  :   -83.6146527 Eh     change       -0.7275232E-05 Eh
 * total energy  :   -83.6146560 Eh     change       -0.3346211E-05 Eh
   *** GEOMETRY OPTIMIZATION CONVERGED AFTER 44 ITERATIONS ***

 final structure:
================
42
 xtb: 6.5.1 (579679a)
C           -4.37958777044983        1.99125735471931        1.74716319051513
O           -3.61965906113820        1.77674524181635        0.56649536376163
C           -2.66633200849560        0.80747591287223        0.63628874096924
O           -2.47202475712405        0.18190068664752        1.66998197872744
C           -2.02315240445564        0.52820014367984       -0.70923284160482
C           -1.89643038713765        1.78757980488205       -1.56914553032198
N           -0.70747944793860       -0.06025865448180       -0.51737991880232
C           -0.65227079441900       -1.30974294750966       -0.23081132963504
C            0.69449572314362       -1.94368934871756        0.10480966982827
C            0.62165532475840       -2.57946496497750        1.50417894735520
C            1.04077109133877       -3.00340257426231       -0.95520021161759
N            1.68703245534923       -0.88046972436976        0.08457665077163
C            3.01414742238187       -1.05424374150615        0.39560751178757
O            3.52194863017288       -2.17531404529422        0.62693672671907
C            3.77931276929422        0.16217415207727        0.41443207095333
N            5.08151413832299        0.29772368509186        0.66992776368327
N            5.35447136308157        1.63527867182922        0.59634491422674
C            4.24946658372370        2.24300473593555        0.31047010094110
C            4.05465942753311        3.70339055228052        0.13300114381662
O            3.19971401002204        1.39535738705283        0.17539989643697
N           -1.74091364699581       -2.12273303009396       -0.20593282932860
C           -2.93839282424633       -1.80362739140278       -0.94353346223482
O           -3.67868289188209       -2.78710886793951       -1.24678109582256
C           -3.08750885261247       -0.44822009384129       -1.29326656605487
O           -4.03088480453760        0.04269975759982       -2.00763540796577
H           -3.73197859303790        2.31276709945982        2.56909862988139
H           -5.10292944151646        2.77453493287597        1.52487989191262
H           -4.90338691688049        1.07797779580576        2.04863917492144
H           -1.32329811611165        2.55185157884938       -1.04629942761002
H           -1.38458901893080        1.54009563297212       -2.49907301153805
H           -2.88386557078769        2.18213760622414       -1.80657445268038
H           -0.13395295190483       -3.36274672901628        1.52215629021474
H            1.58171492291981       -3.01968755172533        1.76868980779303
H            0.36095796616010       -1.82145480826462        2.24274920490641
H            1.11147627607616       -2.53612937588289       -1.93730776548021
H            0.26911432805477       -3.77100466850972       -0.98432150439186
H            1.99291337960167       -3.47573551085407       -0.71806858001464
H            1.32981855065776        0.05902518963853       -0.05123526858138
H            3.29257518264314        4.07233447282521        0.81989950175081
H            4.99255949200940        4.21775088778868        0.32852393007034
H            3.73021541553677        3.92594193467591       -0.88411018994344
H           -1.60321519217343       -3.11217318895427       -0.07708070831416

          :  Hamiltonian                  GFN1-xTB          :
         :: total energy             -83.614656047867 Eh    ::
         :: gradient norm              0.000320625159 Eh/a0 ::
         :: HOMO-LUMO gap              0.044072048303 eV    ::
         :: SCC energy               -84.342689238704 Eh    ::
         :: -> Gsolv                  -0.270020753442 Eh    ::
         :: repulsion energy           0.754714485269 Eh    ::

    * Orbital Energies and Occupations

         #    Occupation            Energy/Eh            Energy/eV
      -------------------------------------------------------------
         1        2.0000           -0.8055062             -21.9189
       ...           ...                  ...                  ...
        56        2.0000           -0.4431654             -12.0591
        57        2.0000           -0.4386888             -11.9373
        58        2.0000           -0.4304004             -11.7118
        59        2.0000           -0.4211420             -11.4599
        60        2.0000           -0.4093552             -11.1391
        61        2.0000           -0.4053760             -11.0308
        62        2.0000           -0.4021466             -10.9430
        63        2.0000           -0.3980520             -10.8315
        64        2.0000           -0.3891972             -10.5906
        65        2.0000           -0.3784917             -10.2993
        66        2.0000           -0.3739122             -10.1747
        67        2.0000           -0.3420976              -9.3090
        68        1.4021           -0.2668590              -7.2616 (HOMO)
        69        0.5979           -0.2652394              -7.2175 (LUMO)
        70                         -0.2183326              -5.9411
        71                         -0.2125319              -5.7833
        72                         -0.2009328              -5.4677
        73                         -0.1403966              -3.8204
        74                         -0.1252827              -3.4091
        75                         -0.1203548              -3.2750
        76                         -0.1108554              -3.0165
        77                         -0.1033382              -2.8120
        78                         -0.0964524              -2.6246
        79                         -0.0856107              -2.3296
       ...                                ...                  ...
       134                          0.7162491              19.4901
      -------------------------------------------------------------
                  HL-Gap            0.0016196 Eh            0.0441 eV

Wiberg/Mayer (AO) data.
largest (>0.10) Wiberg bond orders for each atom

     #   Z sym  total        # sym  WBO       # sym  WBO       # sym  WBO
 ---------------------------------------------------------------------------
     1   6 C    3.899 --    27 H    0.987    26 H    0.981    28 H    0.981
                             2 O    0.923
     2   8 O    2.149 --     3 C    1.039     1 C    0.923     4 O    0.106
     3   6 C    3.781 --     4 O    1.592     2 O    1.039     5 C    0.948
     4   8 O    1.849 --     3 C    1.592     2 O    0.106
     5   6 C    3.957 --     6 C    0.993     7 N    0.977     3 C    0.948
                            24 C    0.872
     6   6 C    3.991 --     5 C    0.993    29 H    0.988    30 H    0.987
                            31 H    0.983
     7   7 N    2.966 --     8 C    1.653     5 C    0.977    21 N    0.149
     8   6 C    3.934 --     7 N    1.653    21 N    1.179     9 C    0.970
     9   6 C    3.951 --    11 C    0.982    10 C    0.982     8 C    0.970
                            12 N    0.949
    10   6 C    3.991 --    34 H    0.986    32 H    0.985     9 C    0.982
                            33 H    0.981
    11   6 C    3.991 --    35 H    0.987    36 H    0.985     9 C    0.982
                            37 H    0.981
    12   7 N    3.210 --    13 C    1.153     9 C    0.949    38 H    0.892
                            14 O    0.128
    13   6 C    3.781 --    14 O    1.433    12 N    1.153    15 C    1.127
    14   8 O    1.694 --    13 C    1.433    12 N    0.128
    15   6 C    3.688 --    16 N    1.419    13 C    1.127    20 O    0.973
    16   7 N    2.746 --    15 C    1.419    17 N    1.190
    17   7 N    2.981 --    18 C    1.627    16 N    1.190
    18   6 C    3.815 --    17 N    1.627    20 O    1.043    19 C    1.024
    19   6 C    3.994 --    18 C    1.024    40 H    0.986    39 H    0.972
                            41 H    0.970
    20   8 O    2.184 --    18 C    1.043    15 C    0.973
    21   7 N    3.316 --     8 C    1.179    22 C    0.944    42 H    0.915
                             7 N    0.149
    22   6 C    3.750 --    23 O    1.379    24 C    1.265    21 N    0.944
    23   8 O    1.598 --    22 C    1.379
    24   6 C    3.745 --    25 O    1.357    22 C    1.265     5 C    0.872
    25   8 O    1.571 --    24 C    1.357
    26   1 H    1.014 --     1 C    0.981
    27   1 H    1.016 --     1 C    0.987
    28   1 H    1.013 --     1 C    0.981
    29   1 H    1.010 --     6 C    0.988
    30   1 H    1.013 --     6 C    0.987
    31   1 H    1.028 --     6 C    0.983
    32   1 H    1.005 --    10 C    0.985
    33   1 H    1.018 --    10 C    0.981
    34   1 H    1.008 --    10 C    0.986
    35   1 H    1.008 --    11 C    0.987
    36   1 H    1.006 --    11 C    0.985
    37   1 H    1.019 --    11 C    0.981
    38   1 H    0.982 --    12 N    0.892
    39   1 H    1.000 --    19 C    0.972
    40   1 H    1.004 --    19 C    0.986
    41   1 H    1.000 --    19 C    0.970
    42   1 H    0.970 --    21 N    0.915
 ---------------------------------------------------------------------------

           -------------------------------------------------
          | TOTAL ENERGY              -83.614656047867 Eh   |
          | GRADIENT NORM               0.000320625159 Eh/α |
          | HOMO-LUMO GAP               0.044072048303 eV   |
           -------------------------------------------------

 * finished run on 2023/06/21 at 17:10:26.514
