   * xtb version 6.5.1 (579679a) compiled by 'ehlert@majestix' on 2022-07-11
          program call               : /lustre/hpc/kemi/ree/PhD/git/ReactivityQM/dep/xtb-6.5.1/bin/xtb --gfn 1 /lustre/hpc/kemi/ree/PhD/git/ReactivityQM/calculations/R03/reac02prodN15/conf01/R03_reac02prodN15_conf01_gfn1.xyz --opt --vfukui --chrg 1 --uhf 0 --alpb DMSO

   ID    Z sym.   atoms
    1    6 C      1, 3, 5, 7-10, 12, 14, 17, 18, 21, 22, 24, 25
    2    8 O      2, 4, 13, 19, 23, 26
    3    7 N      6, 11, 15, 16, 20
    4    1 H      27-46

      * Solvation model:               ALPB
        Solvent                        DMSO
        Solvent mass                       7.8130E+01 g/mol
          :  Hamiltonian                  GFN1-xTB          :
 * total energy  :   -86.2833765 Eh     change       -0.4406786E-10 Eh
 * total energy  :   -86.3012847 Eh     change       -0.1790822E-01 Eh
 * total energy  :   -86.3103304 Eh     change       -0.9045722E-02 Eh
 * total energy  :   -86.3125701 Eh     change       -0.2239686E-02 Eh
 * total energy  :   -86.3139800 Eh     change       -0.1409880E-02 Eh
 * total energy  :   -86.3149907 Eh     change       -0.1010734E-02 Eh
 * total energy  :   -86.3161442 Eh     change       -0.1153492E-02 Eh
 * total energy  :   -86.3177619 Eh     change       -0.1617721E-02 Eh
 * total energy  :   -86.3225735 Eh     change       -0.4811601E-02 Eh
 * total energy  :   -86.3179783 Eh     change        0.4595210E-02 Eh
 * total energy  :   -86.3380368 Eh     change       -0.9455207E-05 Eh
 * total energy  :   -86.3380509 Eh     change       -0.1416379E-04 Eh
 * total energy  :   -86.3380652 Eh     change       -0.1422965E-04 Eh
 * total energy  :   -86.3380780 Eh     change       -0.1282041E-04 Eh
 * total energy  :   -86.3380771 Eh     change        0.8797395E-06 Eh
 * total energy  :   -86.3380847 Eh     change       -0.7637942E-05 Eh
 * total energy  :   -86.3380919 Eh     change       -0.7167835E-05 Eh
 * total energy  :   -86.3380990 Eh     change       -0.7077899E-05 Eh
 * total energy  :   -86.3381020 Eh     change       -0.3017303E-05 Eh
   *** GEOMETRY OPTIMIZATION CONVERGED AFTER 70 ITERATIONS ***

 final structure:
================
46
 xtb: 6.5.1 (579679a)
C           -5.19016575674954        1.37721603686831       -2.31146059632889
O           -4.13805425286898        1.23622865399571       -1.34218879446665
C           -3.45593503423288        0.10888773190042       -1.36075949519988
O           -3.66003090185005       -0.81210585822553       -2.10768761075848
C           -2.34036111521095        0.08385336201436       -0.32741212940040
N           -1.28491290399062       -0.50437452046346       -0.71256179034222
C           -0.14516456817108       -0.63137357578091        0.15395738005998
C            0.80716882891399       -1.72271389430036       -0.44603088922630
C            0.82296241402688       -3.07600308571246        0.25689698575618
C            0.53541439341386       -1.90260364480326       -1.94501398228053
N            2.09359725721185       -1.02183365613873       -0.33264197104690
C            1.91481824563191        0.25662795703982       -0.13039149026716
O            0.66128796664219        0.58912115811367        0.05686850935629
C            2.97089633246010        1.21315937143673       -0.08942005041466
N            2.92491753559865        2.50343040961670        0.11658933187916
N            4.18560681904705        2.94795747317975        0.06556902951491
C            4.95502445405904        1.91314829539866       -0.16900041236910
C            6.42137953525781        1.88845747048577       -0.30788866223526
O            4.23986240100681        0.79154865520720       -0.27772311144042
N           -0.52637682987239       -0.77561684155816        1.53396712534342
C            0.47585357493937       -1.15455097013700        2.54408419565689
C           -1.62807116027212       -0.13009488584309        2.03839051583429
O           -1.91714400494764       -0.20193981696854        3.21178075989488
C           -2.44661424481732        0.72798852120940        1.04444669155524
C           -3.87525280381960        0.89235789723857        1.55939545116507
O           -1.85114261961526        2.00679511980685        0.98937833900445
H           -5.69182720727680        2.31500994020502       -2.08500126520555
H           -5.88269531026771        0.53747725593304       -2.22982615300159
H           -4.76130685667008        1.40349461176384       -3.31467625717945
H            1.17554750581262       -3.84049475662017       -0.43357256982530
H            1.48438599392359       -3.07138529210314        1.11813040473148
H           -0.18656149802952       -3.33183246226152        0.57561809157975
H            0.49202727160211       -0.93438162344540       -2.44018348432817
H           -0.41262730242943       -2.41932161879909       -2.08388392471394
H            1.33630265636292       -2.49333946581325       -2.38448674358635
H            2.98651180586468       -1.44370872063359       -0.52605116810854
H            6.82624569436385        2.88685231017500       -0.16009306778419
H            6.84625431734661        1.20125698614791        0.42417012093170
H            6.68917121438319        1.52250464080188       -1.29957141714484
H            0.37421618657965       -0.47816976137080        3.39383797802682
H            0.30023358866786       -2.17555875824648        2.87883643843056
H            1.47108822508252       -1.05912513295306        2.12481804656312
H           -4.42551751482411       -0.03951853588202        1.44842694686891
H           -3.84074492219335        1.16517175534775        2.61371030836913
H           -4.37715405643623        1.68256239583587        1.00718371694506
H           -0.95311135365807        1.96893986834224        0.63366266920297

          :  Hamiltonian                  GFN1-xTB          :
         :: total energy             -86.338101993190 Eh    ::
         :: gradient norm              0.000659647794 Eh/a0 ::
         :: HOMO-LUMO gap              1.934572083171 eV    ::
         :: SCC energy               -87.139409390205 Eh    ::
         :: -> Gsolv                  -0.113422445253 Eh    ::
         :: repulsion energy           0.831800842242 Eh    ::

    * Orbital Energies and Occupations

         #    Occupation            Energy/Eh            Energy/eV
      -------------------------------------------------------------
         1        2.0000           -0.9150424             -24.8996
       ...           ...                  ...                  ...
        58        2.0000           -0.5330301             -14.5045
        59        2.0000           -0.5306322             -14.4392
        60        2.0000           -0.5261394             -14.3170
        61        2.0000           -0.5248488             -14.2819
        62        2.0000           -0.5196404             -14.1401
        63        2.0000           -0.5180393             -14.0966
        64        2.0000           -0.5137103             -13.9788
        65        2.0000           -0.5082690             -13.8307
        66        2.0000           -0.4909212             -13.3586
        67        2.0000           -0.4907109             -13.3529
        68        2.0000           -0.4808044             -13.0834
        69        2.0000           -0.4728271             -12.8663
        70        2.0000           -0.4570141             -12.4360 (HOMO)
        71                         -0.3859199             -10.5014 (LUMO)
        72                         -0.3574229              -9.7260
        73                         -0.2929454              -7.9714
        74                         -0.2902987              -7.8994
        75                         -0.2600255              -7.0757
        76                         -0.2581656              -7.0250
        77                         -0.1592628              -4.3338
        78                         -0.1560659              -4.2468
        79                         -0.1502659              -4.0889
        80                         -0.1484321              -4.0390
        81                         -0.1430577              -3.8928
       ...                                ...                  ...
       144                          0.7162643              19.4905
      -------------------------------------------------------------
                  HL-Gap            0.0710942 Eh            1.9346 eV

Wiberg/Mayer (AO) data.
largest (>0.10) Wiberg bond orders for each atom

     #   Z sym  total        # sym  WBO       # sym  WBO       # sym  WBO
 ---------------------------------------------------------------------------
     1   6 C    3.851 --    27 H    0.985    28 H    0.979    29 H    0.978
                             2 O    0.875
     2   8 O    2.235 --     3 C    1.152     1 C    0.875     4 O    0.148
     3   6 C    3.853 --     4 O    1.694     2 O    1.152     5 C    0.934
     4   8 O    1.957 --     3 C    1.694     2 O    0.148
     5   6 C    3.925 --     6 N    1.858    24 C    0.951     3 C    0.934
     6   7 N    3.049 --     5 C    1.858     7 C    0.986
     7   6 C    3.852 --     6 N    0.986    20 N    0.969     8 C    0.937
                            13 O    0.833
     8   6 C    3.898 --     9 C    0.997    10 C    0.984     7 C    0.937
                            11 N    0.906
     9   6 C    3.979 --     8 C    0.997    32 H    0.980    31 H    0.979
                            30 H    0.978
    10   6 C    3.975 --     8 C    0.984    33 H    0.982    35 H    0.980
                            34 H    0.978
    11   7 N    3.475 --    12 C    1.450     8 C    0.906    36 H    0.856
                            13 O    0.104
    12   6 C    3.886 --    11 N    1.450    13 O    1.160    14 C    1.116
    13   8 O    2.238 --    12 C    1.160     7 C    0.833    11 N    0.104
    14   6 C    3.886 --    15 N    1.522    12 C    1.116    19 O    1.042
    15   7 N    3.015 --    14 C    1.522    16 N    1.284
    16   7 N    2.990 --    17 C    1.518    15 N    1.284
    17   6 C    3.845 --    16 N    1.518    19 O    1.102    18 C    1.043
    18   6 C    3.977 --    17 C    1.043    37 H    0.979    38 H    0.952
                            39 H    0.951
    19   8 O    2.335 --    17 C    1.102    14 C    1.042
    20   7 N    3.322 --    22 C    1.185     7 C    0.969    21 C    0.916
                            23 O    0.149
    21   6 C    3.920 --    42 H    0.985    41 H    0.981    40 H    0.975
                            20 N    0.916
    22   6 C    3.880 --    23 O    1.674    20 N    1.185    24 C    0.906
    23   8 O    1.958 --    22 C    1.674    20 N    0.149
    24   6 C    3.918 --    25 C    0.992    26 O    0.953     5 C    0.951
                            22 C    0.906
    25   6 C    3.985 --    24 C    0.992    43 H    0.986    45 H    0.981
                            44 H    0.978
    26   8 O    1.923 --    24 C    0.953    46 H    0.843
    27   1 H    1.007 --     1 C    0.985
    28   1 H    1.004 --     1 C    0.979
    29   1 H    1.003 --     1 C    0.978
    30   1 H    0.995 --     9 C    0.978
    31   1 H    0.998 --     9 C    0.979
    32   1 H    0.995 --     9 C    0.980
    33   1 H    1.003 --    10 C    0.982
    34   1 H    1.004 --    10 C    0.978
    35   1 H    0.996 --    10 C    0.980
    36   1 H    0.892 --    11 N    0.856
    37   1 H    0.994 --    18 C    0.979
    38   1 H    0.990 --    18 C    0.952
    39   1 H    0.990 --    18 C    0.951
    40   1 H    1.002 --    21 C    0.975
    41   1 H    1.003 --    21 C    0.981
    42   1 H    0.999 --    21 C    0.985
    43   1 H    0.999 --    25 C    0.986
    44   1 H    1.006 --    25 C    0.978
    45   1 H    1.009 --    25 C    0.981
    46   1 H    0.872 --    26 O    0.843
 ---------------------------------------------------------------------------

           -------------------------------------------------
          | TOTAL ENERGY              -86.338101993190 Eh   |
          | GRADIENT NORM               0.000659647794 Eh/α |
          | HOMO-LUMO GAP               1.934572083171 eV   |
           -------------------------------------------------

 * finished run on 2023/06/20 at 15:52:04.246
