   * xtb version 6.5.1 (579679a) compiled by 'ehlert@majestix' on 2022-07-11
          program call               : /lustre/hpc/kemi/ree/PhD/git/ReactivityQM/dep/xtb-6.5.1/bin/xtb --gfn 1 /lustre/hpc/kemi/ree/PhD/git/ReactivityQM/calculations/RaltegravirCLI/reac01prodN06/conf01/RaltegravirCLI_reac01prodN06_conf01_gfn1.xyz --opt --vfukui --chrg 1 --uhf 0 --alpb DMSO

   ID    Z sym.   atoms
    1    6 C      1, 2, 5-7
    2    7 N      3, 4
    3    8 O      8, 10
    4   17 Cl     9
    5    1 H      11-16

      * Solvation model:               ALPB
        Solvent                        DMSO
        Solvent mass                       7.8130E+01 g/mol
          :  Hamiltonian                  GFN1-xTB          :
 * total energy  :   -33.2680656 Eh     change       -0.1426059E-10 Eh
 * total energy  :   -33.2769329 Eh     change       -0.8867258E-02 Eh
 * total energy  :   -33.2831693 Eh     change       -0.6236461E-02 Eh
 * total energy  :   -33.2848312 Eh     change       -0.1661881E-02 Eh
 * total energy  :   -33.2872760 Eh     change       -0.2444793E-02 Eh
 * total energy  :   -33.2888173 Eh     change       -0.1541290E-02 Eh
 * total energy  :   -33.2924530 Eh     change       -0.3635692E-02 Eh
 * total energy  :   -33.2981631 Eh     change       -0.5710123E-02 Eh
 * total energy  :   -33.3104826 Eh     change       -0.1231950E-01 Eh
 * total energy  :   -33.3290710 Eh     change       -0.1858843E-01 Eh
 * total energy  :   -33.3942123 Eh     change       -0.4688322E-04 Eh
 * total energy  :   -33.3942473 Eh     change       -0.3494691E-04 Eh
 * total energy  :   -33.3942707 Eh     change       -0.2344992E-04 Eh
 * total energy  :   -33.3943053 Eh     change       -0.3463746E-04 Eh
 * total energy  :   -33.3943189 Eh     change       -0.1353187E-04 Eh
 * total energy  :   -33.3943249 Eh     change       -0.6073227E-05 Eh
 * total energy  :   -33.3943272 Eh     change       -0.2217934E-05 Eh
 * total energy  :   -33.3943312 Eh     change       -0.4047192E-05 Eh
 * total energy  :   -33.3943339 Eh     change       -0.2693350E-05 Eh
   *** GEOMETRY OPTIMIZATION CONVERGED AFTER 55 ITERATIONS ***

 final structure:
================
16
 xtb: 6.5.1 (579679a)
C            2.44918457851799       -0.81786592153923        0.32177158989732
C            1.55613919296449        0.02941472104633       -0.48443592554014
N            1.87770445330781        0.80980919842650       -1.48895227952665
N            0.75927473674430        1.38978011093343       -1.91721585053134
C           -0.21773135075773        0.94570391344234       -1.16054663190432
C           -1.58878366658583        1.32573426483939       -1.29020257553988
C           -2.12583838479449       -0.65337095612731        0.98665287859359
O           -2.08870690396145        2.08132237072207       -2.04666013297062
Cl          -2.80571055513920        0.56483820335075       -0.13318193422776
O            0.24511116281576        0.07754725402094       -0.23609902133343
H            2.43635432220775       -0.48007482218685        1.35898581130501
H            2.09210088323335       -1.84776787498256        0.30671301796260
H            3.46300333579325       -0.76792870532105       -0.06930808568639
H           -1.41681435298280       -0.17669107131204        1.65669368786173
H           -1.65151697302056       -1.44762244145077        0.41842840161054
H           -2.98376947834287       -1.03282724386182        1.53654505002970

          :  Hamiltonian                  GFN1-xTB          :
         :: total energy             -33.394333901951 Eh    ::
         :: gradient norm              0.000464331842 Eh/a0 ::
         :: HOMO-LUMO gap              2.774978347258 eV    ::
         :: SCC energy               -33.688248870231 Eh    ::
         :: -> Gsolv                  -0.093333815995 Eh    ::
         :: repulsion energy           0.301221466739 Eh    ::

    * Orbital Energies and Occupations

         #    Occupation            Energy/Eh            Energy/eV
      -------------------------------------------------------------
         1        2.0000           -1.0660164             -29.0078
       ...           ...                  ...                  ...
        15        2.0000           -0.6298025             -17.1378
        16        2.0000           -0.6109807             -16.6256
        17        2.0000           -0.6049705             -16.4621
        18        2.0000           -0.5927070             -16.1284
        19        2.0000           -0.5777586             -15.7216
        20        2.0000           -0.5724321             -15.5767
        21        2.0000           -0.5588380             -15.2068
        22        2.0000           -0.5567206             -15.1491
        23        2.0000           -0.5434727             -14.7886
        24        2.0000           -0.5419519             -14.7473
        25        2.0000           -0.5270665             -14.3422
        26        2.0000           -0.5015426             -13.6477
        27        2.0000           -0.4970232             -13.5247 (HOMO)
        28                         -0.3950446             -10.7497 (LUMO)
        29                         -0.3160721              -8.6008
        30                         -0.3044633              -8.2849
        31                         -0.3008433              -8.1864
        32                         -0.2725019              -7.4152
        33                         -0.1841751              -5.0117
        34                         -0.1835193              -4.9938
        35                         -0.1620662              -4.4100
        36                         -0.1620088              -4.4085
        37                         -0.1566101              -4.2616
        38                         -0.1117889              -3.0419
       ...                                ...                  ...
        57                          0.7527171              20.4825
      -------------------------------------------------------------
                  HL-Gap            0.1019786 Eh            2.7750 eV

Wiberg/Mayer (AO) data.
largest (>0.10) Wiberg bond orders for each atom

     #   Z sym  total        # sym  WBO       # sym  WBO       # sym  WBO
 ---------------------------------------------------------------------------
     1   6 C    3.974 --     2 C    1.046    13 H    0.978    12 H    0.951
                            11 H    0.947
     2   6 C    3.845 --     3 N    1.504    10 O    1.099     1 C    1.046
     3   7 N    3.001 --     2 C    1.504     4 N    1.303
     4   7 N    3.022 --     5 C    1.501     3 N    1.303
     5   6 C    3.884 --     4 N    1.501     6 C    1.113    10 O    1.038
     6   6 C    3.869 --     8 O    1.841     5 C    1.113     9 Cl   0.776
     7   6 C    3.864 --    14 H    0.980    15 H    0.979    16 H    0.969
                             9 Cl   0.898
     8   8 O    2.156 --     6 C    1.841     9 Cl   0.138
     9  17 Cl   1.892 --     7 C    0.898     6 C    0.776     8 O    0.138
    10   8 O    2.337 --     2 C    1.099     5 C    1.038
    11   1 H    0.988 --     1 C    0.947
    12   1 H    0.989 --     1 C    0.951
    13   1 H    0.992 --     1 C    0.978
    14   1 H    1.001 --     7 C    0.980
    15   1 H    1.000 --     7 C    0.979
    16   1 H    0.992 --     7 C    0.969
 ---------------------------------------------------------------------------

           -------------------------------------------------
          | TOTAL ENERGY              -33.394333901951 Eh   |
          | GRADIENT NORM               0.000464331842 Eh/α |
          | HOMO-LUMO GAP               2.774978347258 eV   |
           -------------------------------------------------

 * finished run on 2023/06/20 at 14:55:33.385
