   * xtb version 6.5.1 (579679a) compiled by 'ehlert@majestix' on 2022-07-11
          program call               : /lustre/hpc/kemi/ree/PhD/git/ReactivityQM/dep/xtb-6.5.1/bin/xtb --gfn 1 /lustre/hpc/kemi/ree/PhD/git/ReactivityQM/calculations/R02deprot/reac01prodE14/conf03/R02deprot_reac01prodE14_conf03_gfn1.xyz --opt --vfukui --chrg -2 --uhf 0 --alpb DMSO

   ID    Z sym.   atoms
    1    6 C      1, 3, 5, 7-10, 12, 14, 17, 18, 21, 23, 24
    2    8 O      2, 4, 13, 19, 22, 25
    3    7 N      6, 11, 15, 16, 20
    4    1 H      26-42

      * Solvation model:               ALPB
        Solvent                        DMSO
        Solvent mass                       7.8130E+01 g/mol
          :  Hamiltonian                  GFN1-xTB          :
 * total energy  :   -83.5941661 Eh     change       -0.6366463E-11 Eh
 * total energy  :   -83.6165079 Eh     change       -0.2234182E-01 Eh
 * total energy  :   -83.6265659 Eh     change       -0.1005801E-01 Eh
 * total energy  :   -83.6284976 Eh     change       -0.1931653E-02 Eh
 * total energy  :   -83.6300193 Eh     change       -0.1521680E-02 Eh
 * total energy  :   -83.6306873 Eh     change       -0.6679993E-03 Eh
 * total energy  :   -83.6311901 Eh     change       -0.5028185E-03 Eh
 * total energy  :   -83.6316208 Eh     change       -0.4307467E-03 Eh
 * total energy  :   -83.6320088 Eh     change       -0.3879988E-03 Eh
 * total energy  :   -83.6323946 Eh     change       -0.3858070E-03 Eh
 * total energy  :   -83.6341548 Eh     change       -0.2004868E-04 Eh
 * total energy  :   -83.6341723 Eh     change       -0.1752277E-04 Eh
 * total energy  :   -83.6341878 Eh     change       -0.1555924E-04 Eh
 * total energy  :   -83.6342017 Eh     change       -0.1380155E-04 Eh
 * total energy  :   -83.6342152 Eh     change       -0.1357187E-04 Eh
 * total energy  :   -83.6342320 Eh     change       -0.1674235E-04 Eh
 * total energy  :   -83.6342524 Eh     change       -0.2038743E-04 Eh
 * total energy  :   -83.6342715 Eh     change       -0.1913477E-04 Eh
 * total energy  :   -83.6342761 Eh     change       -0.4656417E-05 Eh
   *** GEOMETRY OPTIMIZATION CONVERGED AFTER 44 ITERATIONS ***

 final structure:
================
42
 xtb: 6.5.1 (579679a)
C           -6.36658009700384        0.24855550755160       -0.67496118749218
O           -5.03152054526072        0.65076995041935       -0.89387399490434
C           -4.05309149127941       -0.30365278233345       -0.49061661592160
O           -4.46200793710535       -1.40256196933530       -0.05609194337203
C           -2.73958509613232        0.13485201894024       -0.64401981478550
N           -1.74648885566141       -0.77250619997612       -0.31174860293077
C           -0.50445765194033       -0.44143728369261       -0.44239943507965
C            0.54314223692987       -1.48947171190992       -0.05733277156891
C            0.74742156711553       -2.47025674341281       -1.22469534026689
C            0.09844777021565       -2.24142370776323        1.20238808203122
N            1.78806232432820       -0.76283458174574        0.19282685537519
C            2.93624048043171       -1.29182284056257        0.62362210540880
O            3.13134203724456       -2.47776295976281        0.89164730807832
C            3.98584016384372       -0.25152828286842        0.77248352475901
N            3.85937700921528        1.01734487696088        0.49868480366597
N            5.05292371136555        1.60832697901407        0.80539115044999
C            5.82812120986531        0.66988817749155        1.24603168024911
C            7.22631476677142        0.80355629690021        1.71386210900866
O            5.22194180978971       -0.53020158692747        1.25142777129272
N            0.00765187199739        0.73943105403969       -0.91327362180195
C           -0.82119339301117        1.70467987855416       -1.29324251755534
O           -0.41135645863747        2.80280292772945       -1.73134242215414
C           -2.37025230333818        1.51429983342852       -1.15412445763357
C           -2.84674251052743        2.63244366895574       -0.19707137391827
O           -2.92876579686281        1.75853198695375       -2.46326865210098
H           -7.01473952785607        1.05859123247248       -1.01361923538446
H           -6.61045275398663       -0.66362009722707       -1.23539508655835
H           -6.55865258574571        0.05958077389308        0.38964921386039
H            1.08289398087064       -1.93065538128403       -2.11060375009981
H            1.48952600919951       -3.22633873929310       -0.96990726989318
H           -0.19830150417006       -2.96324982047921       -1.44843685471180
H           -0.90537826453015       -2.63465865309502        1.03741356807611
H            0.07070042011902       -1.56080135707033        2.05343163743792
H            0.77187024232161       -3.06628326305006        1.42989712424159
H            1.75025831487878        0.22568043074425       -0.07416512654419
H            7.89573268326091        0.23711421935896        1.06690139950278
H            7.51547986069574        1.85131263110051        1.70264437900316
H            7.32209435074293        0.40972781172489        2.72499723526898
H           -3.93161649321848        2.63921975346628       -0.11299047299402
H           -2.41780731373836        2.47505807899317        0.79280519217838
H           -2.51959181899154        3.60102704961437       -0.57844054420217
H           -3.88679942220527        1.63827782347766       -2.40717404801525

          :  Hamiltonian                  GFN1-xTB          :
         :: total energy             -83.634276143775 Eh    ::
         :: gradient norm              0.000298787380 Eh/a0 ::
         :: HOMO-LUMO gap              0.149009609048 eV    ::
         :: SCC energy               -84.367928927115 Eh    ::
         :: -> Gsolv                  -0.282412137385 Eh    ::
         :: repulsion energy           0.759399062162 Eh    ::

    * Orbital Energies and Occupations

         #    Occupation            Energy/Eh            Energy/eV
      -------------------------------------------------------------
         1        2.0000           -0.8419392             -22.9103
       ...           ...                  ...                  ...
        56        2.0000           -0.4382275             -11.9248
        57        2.0000           -0.4352035             -11.8425
        58        2.0000           -0.4281648             -11.6510
        59        2.0000           -0.4235126             -11.5244
        60        2.0000           -0.4220317             -11.4841
        61        2.0000           -0.4162303             -11.3262
        62        2.0000           -0.4095178             -11.1435
        63        2.0000           -0.3927242             -10.6866
        64        2.0000           -0.3813048             -10.3758
        65        2.0000           -0.3606803              -9.8146
        66        2.0000           -0.3533174              -9.6143
        67        2.0000           -0.3296849              -8.9712
        68        1.8939           -0.2896230              -7.8810 (HOMO)
        69        0.1061           -0.2841470              -7.7320 (LUMO)
        70                         -0.2394445              -6.5156
        71                         -0.2008872              -5.4664
        72                         -0.1701715              -4.6306
        73                         -0.1363709              -3.7108
        74                         -0.1352287              -3.6798
        75                         -0.1128032              -3.0695
        76                         -0.1017274              -2.7681
        77                         -0.0973934              -2.6502
        78                         -0.0918579              -2.4996
        79                         -0.0737530              -2.0069
       ...                                ...                  ...
       134                          0.7254170              19.7396
      -------------------------------------------------------------
                  HL-Gap            0.0054760 Eh            0.1490 eV

Wiberg/Mayer (AO) data.
largest (>0.10) Wiberg bond orders for each atom

     #   Z sym  total        # sym  WBO       # sym  WBO       # sym  WBO
 ---------------------------------------------------------------------------
     1   6 C    3.921 --    26 H    0.987    28 H    0.981    27 H    0.980
                             2 O    0.951
     2   8 O    2.069 --     1 C    0.951     3 C    0.899
     3   6 C    3.845 --     4 O    1.437     5 C    1.377     2 O    0.899
     4   8 O    1.733 --     3 C    1.437     5 C    0.121
     5   6 C    3.814 --     3 C    1.377     6 N    1.146    23 C    0.981
                             4 O    0.121
     6   7 N    3.009 --     7 C    1.577     5 C    1.146
     7   6 C    3.928 --     6 N    1.577    20 N    1.173     8 C    0.960
     8   6 C    3.919 --    10 C    0.992     9 C    0.980     7 C    0.960
                            11 N    0.917
     9   6 C    3.991 --    29 H    0.987    31 H    0.987    30 H    0.985
                             8 C    0.980
    10   6 C    3.995 --     8 C    0.992    33 H    0.987    34 H    0.985
                            32 H    0.983
    11   7 N    3.368 --    12 C    1.298     8 C    0.917    35 H    0.870
                            13 O    0.182
    12   6 C    3.898 --    13 O    1.525    11 N    1.298    14 C    0.998
    13   8 O    1.832 --    12 C    1.525    11 N    0.182
    14   6 C    3.819 --    15 N    1.582    19 O    1.042    12 C    0.998
    15   7 N    2.953 --    14 C    1.582    16 N    1.186
    16   7 N    2.980 --    17 C    1.622    15 N    1.186
    17   6 C    3.864 --    16 N    1.622    19 O    1.074    18 C    1.028
    18   6 C    3.990 --    17 C    1.028    37 H    0.984    38 H    0.968
                            36 H    0.965
    19   8 O    2.292 --    17 C    1.074    14 C    1.042
    20   7 N    2.951 --    21 C    1.377     7 C    1.173    22 O    0.136
    21   6 C    3.902 --    22 O    1.483    20 N    1.377    23 C    0.908
    22   8 O    1.758 --    21 C    1.483    20 N    0.136
    23   6 C    3.895 --     5 C    0.981    24 C    0.972    25 O    0.912
                            21 C    0.908
    24   6 C    3.991 --    40 H    0.988    41 H    0.986    39 H    0.984
                            23 C    0.972
    25   8 O    1.869 --    23 C    0.912    42 H    0.871
    26   1 H    1.020 --     1 C    0.987
    27   1 H    1.023 --     1 C    0.980
    28   1 H    1.021 --     1 C    0.981
    29   1 H    1.010 --     9 C    0.987
    30   1 H    1.012 --     9 C    0.985
    31   1 H    1.012 --     9 C    0.987
    32   1 H    1.028 --    10 C    0.983
    33   1 H    1.010 --    10 C    0.987
    34   1 H    1.016 --    10 C    0.985
    35   1 H    0.996 --    11 N    0.870
    36   1 H    0.999 --    18 C    0.965
    37   1 H    1.001 --    18 C    0.984
    38   1 H    0.999 --    18 C    0.968
    39   1 H    1.022 --    24 C    0.984
    40   1 H    1.015 --    24 C    0.988
    41   1 H    1.023 --    24 C    0.986
    42   1 H    0.916 --    25 O    0.871
 ---------------------------------------------------------------------------

           -------------------------------------------------
          | TOTAL ENERGY              -83.634276143775 Eh   |
          | GRADIENT NORM               0.000298787380 Eh/α |
          | HOMO-LUMO GAP               0.149009609048 eV   |
           -------------------------------------------------

 * finished run on 2023/06/20 at 18:04:50.445
