   * xtb version 6.5.1 (579679a) compiled by 'ehlert@majestix' on 2022-07-11
          program call               : /lustre/hpc/kemi/ree/PhD/git/ReactivityQM/dep/xtb-6.5.1/bin/xtb --gfn 1 /lustre/hpc/kemi/ree/PhD/git/ReactivityQM/calculations/R02deprot/reac01/conf05/R02deprot_reac01_conf05_gfn1.xyz --opt --vfukui --chrg -1 --uhf 0 --alpb DMSO

   ID    Z sym.   atoms
    1    6 C      1, 3, 5, 7-10, 12, 14, 17, 18, 21, 23
    2    8 O      2, 4, 13, 19, 22, 24
    3    7 N      6, 11, 15, 16, 20
    4    1 H      25-38

      * Solvation model:               ALPB
        Solvent                        DMSO
        Solvent mass                       7.8130E+01 g/mol
          :  Hamiltonian                  GFN1-xTB          :
 * total energy  :   -79.5933909 Eh     change       -0.4362732E-10 Eh
 * total energy  :   -79.6059002 Eh     change       -0.1250937E-01 Eh
 * total energy  :   -79.6107776 Eh     change       -0.4877409E-02 Eh
 * total energy  :   -79.6117398 Eh     change       -0.9621988E-03 Eh
 * total energy  :   -79.6122984 Eh     change       -0.5585476E-03 Eh
 * total energy  :   -79.6125128 Eh     change       -0.2143957E-03 Eh
 * total energy  :   -79.6126555 Eh     change       -0.1427593E-03 Eh
 * total energy  :   -79.6127647 Eh     change       -0.1092024E-03 Eh
 * total energy  :   -79.6128679 Eh     change       -0.1031969E-03 Eh
 * total energy  :   -79.6129858 Eh     change       -0.1178390E-03 Eh
 * total energy  :   -79.6138498 Eh     change       -0.9099085E-05 Eh
 * total energy  :   -79.6138603 Eh     change       -0.1049982E-04 Eh
 * total energy  :   -79.6138698 Eh     change       -0.9487064E-05 Eh
 * total energy  :   -79.6138805 Eh     change       -0.1070220E-04 Eh
 * total energy  :   -79.6138909 Eh     change       -0.1036440E-04 Eh
 * total energy  :   -79.6139017 Eh     change       -0.1087091E-04 Eh
 * total energy  :   -79.6139138 Eh     change       -0.1205258E-04 Eh
 * total energy  :   -79.6139237 Eh     change       -0.9959639E-05 Eh
 * total energy  :   -79.6139279 Eh     change       -0.4184007E-05 Eh
   *** GEOMETRY OPTIMIZATION CONVERGED AFTER 44 ITERATIONS ***

 final structure:
================
38
 xtb: 6.5.1 (579679a)
C           -6.75389541476074        0.21475819954788        0.34538513837533
O           -5.45493214496050       -0.31297192489002        0.62442497953523
C           -4.43070975523406        0.27342398753769       -0.03650248057356
O           -4.62350860422451        1.18057489342676       -0.81922950505721
C           -3.10217334856536       -0.28347213011439        0.29389756041060
N           -2.07898074945301        0.35390450808053       -0.35680511712283
C           -0.85649593160859       -0.05450820664412       -0.10151536153644
C            0.24902735678240        0.69746425706445       -0.83634521357975
C            0.11146084450203        0.44961525913853       -2.34462472048523
C            0.13612446647260        2.19471162654458       -0.52032087598273
N            1.52478502867689        0.17515014534395       -0.35442301088635
C            2.72764351073777        0.60736107689585       -0.74034644160123
O            2.94970326842962        1.48095715205759       -1.56829536280555
C            3.81513478476720       -0.11688255258216       -0.01781750942661
N            3.65888596028990       -1.06616951068229        0.85372746332614
N            4.90734285532772       -1.42867388814133        1.27062706911761
C            5.74331316302784       -0.67523792100013        0.62700912598768
C            7.21938232465373       -0.67044866949348        0.72995208343247
O            5.11748289743506        0.17362636434104       -0.20293348230028
N           -0.49075863494480       -1.03519144026783        0.71355477964900
C           -1.44132419958651       -1.73881703475848        1.39208104348812
O           -1.15038740194860       -2.66991100900470        2.15854427707301
C           -2.83564056463597       -1.31793914485151        1.16101359153272
O           -3.76565538418653       -2.01810571275851        1.85558272602359
H           -6.99392747496163        0.08578357221985       -0.71293889946281
H           -7.45979320218746       -0.33858680222577        0.96010803956452
H           -6.78971652749778        1.27810757963805        0.59546765119968
H            0.84467298500976        1.03392802944476       -2.89842886401271
H           -0.89021376388631        0.74034969692908       -2.65947749008592
H            0.25875402673693       -0.60705745679571       -2.56536184386114
H            0.86027307037530        2.76723479720284       -1.09741695256785
H           -0.86930096011646        2.53126248164874       -0.77150912183325
H            0.31089639005852        2.36682418724925        0.54124392176662
H            1.45079513027809       -0.56845234604785        0.34078291736307
H            7.56399738252805        0.29420659825037        1.10202470981535
H            7.66315497616153       -0.83044008979627       -0.25193454217810
H            7.54154200269162       -1.45552290237415        1.40910881786184
H           -4.66695736218566       -1.71085467013570        1.67670889983751

          :  Hamiltonian                  GFN1-xTB          :
         :: total energy             -79.613927928465 Eh    ::
         :: gradient norm              0.000381457106 Eh/a0 ::
         :: HOMO-LUMO gap              1.996196773202 eV    ::
         :: SCC energy               -80.334210020251 Eh    ::
         :: -> Gsolv                  -0.115241187858 Eh    ::
         :: repulsion energy           0.742928393335 Eh    ::

    * Orbital Energies and Occupations

         #    Occupation            Energy/Eh            Energy/eV
      -------------------------------------------------------------
         1        2.0000           -0.8560039             -23.2931
       ...           ...                  ...                  ...
        52        2.0000           -0.4753615             -12.9352
        53        2.0000           -0.4721933             -12.8490
        54        2.0000           -0.4719473             -12.8423
        55        2.0000           -0.4554098             -12.3923
        56        2.0000           -0.4517598             -12.2930
        57        2.0000           -0.4508413             -12.2680
        58        2.0000           -0.4406088             -11.9896
        59        2.0000           -0.4347282             -11.8296
        60        2.0000           -0.4306458             -11.7185
        61        2.0000           -0.4201112             -11.4318
        62        2.0000           -0.4009458             -10.9103
        63        2.0000           -0.3748118             -10.1991
        64        2.0000           -0.3705847             -10.0841 (HOMO)
        65                         -0.2972258              -8.0879 (LUMO)
        66                         -0.2797669              -7.6128
        67                         -0.2503701              -6.8129
        68                         -0.2275391              -6.1917
        69                         -0.1920266              -5.2253
        70                         -0.1856317              -5.0513
        71                         -0.1404160              -3.8209
        72                         -0.1275841              -3.4717
        73                         -0.1100368              -2.9943
        74                         -0.1055975              -2.8735
        75                         -0.1035981              -2.8190
       ...                                ...                  ...
       124                          0.7392698              20.1166
      -------------------------------------------------------------
                  HL-Gap            0.0733589 Eh            1.9962 eV

Wiberg/Mayer (AO) data.
largest (>0.10) Wiberg bond orders for each atom

     #   Z sym  total        # sym  WBO       # sym  WBO       # sym  WBO
 ---------------------------------------------------------------------------
     1   6 C    3.878 --    26 H    0.987    25 H    0.980    27 H    0.980
                             2 O    0.900
     2   8 O    2.184 --     3 C    1.058     1 C    0.900     4 O    0.119
     3   6 C    3.833 --     4 O    1.647     2 O    1.058     5 C    1.033
     4   8 O    1.908 --     3 C    1.647     2 O    0.119
     5   6 C    3.962 --    23 C    1.474     6 N    1.201     3 C    1.033
     6   7 N    2.996 --     7 C    1.458     5 C    1.201
     7   6 C    3.958 --     6 N    1.458    20 N    1.376     8 C    0.969
     8   6 C    3.929 --    10 C    0.985     9 C    0.983     7 C    0.969
                            11 N    0.923
     9   6 C    3.994 --    30 H    0.987    29 H    0.985    28 H    0.984
                             8 C    0.983
    10   6 C    3.994 --    33 H    0.987     8 C    0.985    32 H    0.984
                            31 H    0.984
    11   7 N    3.387 --    12 C    1.303     8 C    0.923    34 H    0.872
                            13 O    0.188
    12   6 C    3.925 --    13 O    1.562    11 N    1.303    14 C    0.979
    13   8 O    1.882 --    12 C    1.562    11 N    0.188
    14   6 C    3.869 --    15 N    1.620    19 O    1.061    12 C    0.979
    15   7 N    3.009 --    14 C    1.620    16 N    1.191
    16   7 N    2.980 --    17 C    1.615    15 N    1.191
    17   6 C    3.874 --    16 N    1.615    19 O    1.080    18 C    1.030
    18   6 C    3.988 --    17 C    1.030    37 H    0.983    36 H    0.966
                            35 H    0.963
    19   8 O    2.324 --    17 C    1.080    14 C    1.061
    20   7 N    3.012 --     7 C    1.376    21 C    1.222    22 O    0.125
    21   6 C    3.928 --    22 O    1.505    20 N    1.222    23 C    1.068
    22   8 O    1.791 --    21 C    1.505    20 N    0.125
    23   6 C    3.902 --     5 C    1.474    21 C    1.068    24 O    1.063
    24   8 O    2.048 --    23 C    1.063    38 H    0.823
    25   1 H    1.010 --     1 C    0.980
    26   1 H    1.011 --     1 C    0.987
    27   1 H    1.010 --     1 C    0.980
    28   1 H    1.011 --     9 C    0.984
    29   1 H    1.013 --     9 C    0.985
    30   1 H    1.006 --     9 C    0.987
    31   1 H    1.012 --    10 C    0.984
    32   1 H    1.017 --    10 C    0.984
    33   1 H    1.006 --    10 C    0.987
    34   1 H    0.983 --    11 N    0.872
    35   1 H    0.998 --    18 C    0.963
    36   1 H    0.998 --    18 C    0.966
    37   1 H    0.999 --    18 C    0.983
    38   1 H    0.874 --    24 O    0.823
 ---------------------------------------------------------------------------

           -------------------------------------------------
          | TOTAL ENERGY              -79.613927928465 Eh   |
          | GRADIENT NORM               0.000381457106 Eh/α |
          | HOMO-LUMO GAP               1.996196773202 eV   |
           -------------------------------------------------

 * finished run on 2023/06/20 at 17:32:26.590
