   * xtb version 6.5.1 (579679a) compiled by 'ehlert@majestix' on 2022-07-11
          program call               : /lustre/hpc/kemi/ree/PhD/git/ReactivityQM/dep/xtb-6.5.1/bin/xtb --gfn 1 /lustre/hpc/kemi/ree/PhD/git/ReactivityQM/calculations/R01/reac01prodE04/conf11/R01_reac01prodE04_conf11_gfn1.xyz --opt --vfukui --chrg -1 --uhf 0 --alpb DMSO

   ID    Z sym.   atoms
    1    6 C      1, 3, 5, 7, 8, 11
    2    8 O      2, 4, 6
    3    7 N      9, 10
    4    1 H      12-20

      * Solvation model:               ALPB
        Solvent                        DMSO
        Solvent mass                       7.8130E+01 g/mol
          :  Hamiltonian                  GFN1-xTB          :
 * total energy  :   -38.2919555 Eh     change       -0.6444623E-11 Eh
 * total energy  :   -38.3050364 Eh     change       -0.1308092E-01 Eh
 * total energy  :   -38.3073984 Eh     change       -0.2362008E-02 Eh
 * total energy  :   -38.3079296 Eh     change       -0.5312177E-03 Eh
 * total energy  :   -38.3097907 Eh     change       -0.1861096E-02 Eh
 * total energy  :   -38.3113877 Eh     change       -0.1596973E-02 Eh
 * total energy  :   -38.3131362 Eh     change       -0.1748558E-02 Eh
 * total energy  :   -38.3160416 Eh     change       -0.2905356E-02 Eh
 * total energy  :   -38.3193155 Eh     change       -0.3273923E-02 Eh
 * total energy  :   -38.3204267 Eh     change       -0.1111223E-02 Eh
 * total energy  :   -38.3247720 Eh     change       -0.6880625E-05 Eh
 * total energy  :   -38.3247786 Eh     change       -0.6574656E-05 Eh
 * total energy  :   -38.3247853 Eh     change       -0.6779271E-05 Eh
 * total energy  :   -38.3247933 Eh     change       -0.7998145E-05 Eh
 * total energy  :   -38.3248050 Eh     change       -0.1168357E-04 Eh
 * total energy  :   -38.3248173 Eh     change       -0.1224712E-04 Eh
 * total energy  :   -38.3248231 Eh     change       -0.5828563E-05 Eh
 * total energy  :   -38.3248324 Eh     change       -0.9259002E-05 Eh
 * total energy  :   -38.3248362 Eh     change       -0.3878296E-05 Eh
   *** GEOMETRY OPTIMIZATION CONVERGED AFTER 43 ITERATIONS ***

 final structure:
================
20
 xtb: 6.5.1 (579679a)
C            3.50772148014553       -1.12986809908958       -0.15462119535475
O            2.10197161949382       -1.09337346467460       -0.04577716461223
C            1.52077437103620        0.17073285121415       -0.34943447469424
O            2.27627630652621        1.12159998056503       -0.68206067146579
C            0.18668833352136        0.25211832121690       -0.02928893258686
O           -0.64175129351212       -0.90517861199777        0.12927770894894
C           -1.84108765454408       -0.52456061601714       -0.31884677901878
C           -2.93980595998335       -1.53225281455505       -0.33345849903382
N           -1.96609264373242        0.68445817433824       -0.71440556436279
N           -0.67929997647104        1.31711054111545       -0.54520234650899
C           -0.85896027316488        2.40861757876201        0.42612349635444
H            3.83817149950207       -0.92861490879057       -1.18273736252838
H            3.83134290246888       -2.13293883266582        0.13160945761634
H            3.98462567370465       -0.39665825977720        0.50935351628567
H           -2.72564248914395       -2.31079619475582       -1.06639803702853
H           -3.02510341667060       -2.00354259345688        0.64438438790566
H           -3.87972314869636       -1.04990099411579       -0.58823380173588
H           -1.19759476064600        2.03351342265781        1.39729881811457
H           -1.59335663434621        3.10908572285333        0.03025959387615
H            0.10084506451249        2.91044879717372        0.54220784982885

          :  Hamiltonian                  GFN1-xTB          :
         :: total energy             -38.324836244164 Eh    ::
         :: gradient norm              0.000841657425 Eh/a0 ::
         :: HOMO-LUMO gap              2.454000640821 eV    ::
         :: SCC energy               -38.638842632854 Eh    ::
         :: -> Gsolv                  -0.103011014328 Eh    ::
         :: repulsion energy           0.322306708942 Eh    ::

    * Orbital Energies and Occupations

         #    Occupation            Energy/Eh            Energy/eV
      -------------------------------------------------------------
         1        2.0000           -0.7798786             -21.2216
       ...           ...                  ...                  ...
        19        2.0000           -0.5082653             -13.8306
        20        2.0000           -0.5052944             -13.7498
        21        2.0000           -0.4882302             -13.2854
        22        2.0000           -0.4831478             -13.1471
        23        2.0000           -0.4753433             -12.9347
        24        2.0000           -0.4627126             -12.5911
        25        2.0000           -0.4534544             -12.3391
        26        2.0000           -0.4249109             -11.5624
        27        2.0000           -0.4212907             -11.4639
        28        2.0000           -0.4142512             -11.2723
        29        2.0000           -0.3878903             -10.5550
        30        2.0000           -0.3853183             -10.4850
        31        2.0000           -0.2985890              -8.1250 (HOMO)
        32                         -0.2084061              -5.6710 (LUMO)
        33                         -0.1421433              -3.8679
        34                         -0.1234420              -3.3590
        35                         -0.1054384              -2.8691
        36                         -0.0939067              -2.5553
        37                         -0.0570529              -1.5525
        38                         -0.0560704              -1.5258
        39                         -0.0444981              -1.2109
        40                         -0.0418356              -1.1384
        41                         -0.0416832              -1.1343
        42                         -0.0394970              -1.0748
       ...                                ...                  ...
        62                          0.6787211              18.4689
      -------------------------------------------------------------
                  HL-Gap            0.0901829 Eh            2.4540 eV

Wiberg/Mayer (AO) data.
largest (>0.10) Wiberg bond orders for each atom

     #   Z sym  total        # sym  WBO       # sym  WBO       # sym  WBO
 ---------------------------------------------------------------------------
     1   6 C    3.923 --    13 H    0.987    12 H    0.981    14 H    0.980
                             2 O    0.957
     2   8 O    2.038 --     1 C    0.957     3 C    0.903
     3   6 C    3.879 --     5 C    1.479     4 O    1.383     2 O    0.903
     4   8 O    1.711 --     3 C    1.383     5 C    0.173
     5   6 C    3.622 --     3 C    1.479    10 N    0.949     6 O    0.873
                             4 O    0.173
     6   8 O    2.183 --     7 C    1.094     5 C    0.873     9 N    0.135
     7   6 C    3.908 --     9 N    1.709     6 O    1.094     8 C    1.013
     8   6 C    3.995 --     7 C    1.013    17 H    0.987    16 H    0.975
                            15 H    0.971
     9   7 N    2.945 --     7 C    1.709    10 N    0.984     6 O    0.135
    10   7 N    3.057 --     9 N    0.984    11 C    0.970     5 C    0.949
    11   6 C    3.982 --    19 H    0.989    20 H    0.988    18 H    0.983
                            10 N    0.970
    12   1 H    1.023 --     1 C    0.981
    13   1 H    1.021 --     1 C    0.987
    14   1 H    1.023 --     1 C    0.980
    15   1 H    1.004 --     8 C    0.971
    16   1 H    1.003 --     8 C    0.975
    17   1 H    1.006 --     8 C    0.987
    18   1 H    1.021 --    11 C    0.983
    19   1 H    1.025 --    11 C    0.989
    20   1 H    1.029 --    11 C    0.988
 ---------------------------------------------------------------------------

           -------------------------------------------------
          | TOTAL ENERGY              -38.324836244164 Eh   |
          | GRADIENT NORM               0.000841657425 Eh/α |
          | HOMO-LUMO GAP               2.454000640821 eV   |
           -------------------------------------------------

 * finished run on 2023/06/20 at 14:53:39.569
