   * xtb version 6.5.1 (579679a) compiled by 'ehlert@majestix' on 2022-07-11
          program call               : /lustre/hpc/kemi/ree/PhD/git/ReactivityQM/dep/xtb-6.5.1/bin/xtb --gfn 1 /lustre/hpc/kemi/ree/PhD/git/ReactivityQM/calculations/RaltegravirCLI/reac02prodE10/conf05/RaltegravirCLI_reac02prodE10_conf05_gfn1.xyz --opt --vfukui --chrg -1 --uhf 0 --alpb DMSO

   ID    Z sym.   atoms
    1    6 C      1, 3, 5, 6, 8, 9, 12-16, 18, 19, 21-24
    2    7 N      2, 11, 20, 25
    3    8 O      4, 7, 10
    4    9 F      17
    5    1 H      26-47

      * Solvation model:               ALPB
        Solvent                        DMSO
        Solvent mass                       7.8130E+01 g/mol
          :  Hamiltonian                  GFN1-xTB          :
 * total energy  :   -80.2157247 Eh     change       -0.1303135E-10 Eh
 * total energy  :   -80.2250417 Eh     change       -0.9317023E-02 Eh
 * total energy  :   -80.2275112 Eh     change       -0.2469466E-02 Eh
 * total energy  :   -80.2278275 Eh     change       -0.3163381E-03 Eh
 * total energy  :   -80.2280328 Eh     change       -0.2053456E-03 Eh
 * total energy  :   -80.2281142 Eh     change       -0.8132399E-04 Eh
 * total energy  :   -80.2282057 Eh     change       -0.9154030E-04 Eh
 * total energy  :   -80.2282693 Eh     change       -0.6357223E-04 Eh
 * total energy  :   -80.2283214 Eh     change       -0.5212353E-04 Eh
 * total energy  :   -80.2283618 Eh     change       -0.4039133E-04 Eh
 * total energy  :   -80.2285159 Eh     change       -0.3078328E-04 Eh
 * total energy  :   -80.2285417 Eh     change       -0.2573315E-04 Eh
 * total energy  :   -80.2285762 Eh     change       -0.3453503E-04 Eh
 * total energy  :   -80.2285960 Eh     change       -0.1979321E-04 Eh
 * total energy  :   -80.2286368 Eh     change       -0.4078773E-04 Eh
 * total energy  :   -80.2286655 Eh     change       -0.2872635E-04 Eh
 * total energy  :   -80.2286907 Eh     change       -0.2522991E-04 Eh
 * total energy  :   -80.2287031 Eh     change       -0.1237934E-04 Eh
 * total energy  :   -80.2287078 Eh     change       -0.4664260E-05 Eh
   *** GEOMETRY OPTIMIZATION CONVERGED AFTER 22 ITERATIONS ***

 final structure:
================
47
 xtb: 6.5.1 (579679a)
C           -3.56986535774688        1.95597138792550        1.16288633163466
N           -2.35390076614294        1.14401428539229        1.23225737203101
C           -1.68181822736785        1.21308699886458        2.41044725106218
O           -2.08241375848888        1.94039945228410        3.32590481495764
C           -0.44739462048763        0.32014530910169        2.61409667160313
C           -0.83073867025543       -0.72094076435410        3.69607507022587
O            0.59809381814047        1.14785125689894        3.13316978051684
C           -0.02623198487265       -0.36007228538515        1.33071877546277
C            1.18496232238994       -1.07470543991607        1.30551558840433
O            2.01549028498214       -1.11331074522930        2.24829364024962
N            1.41918540456224       -1.84275511347061        0.14209270758663
C            2.79456820675575       -2.13611447280652       -0.19750007040757
C            3.48859430921202       -1.03442612575618       -0.97791755885249
C            2.93626517903325        0.23532878633773       -1.12178056469085
C            3.59987770133524        1.22267616784819       -1.83817349226310
C            4.82236998572404        0.91479481144470       -2.40384903221219
F            5.47317920649742        1.86716559850936       -3.10138945313070
C            5.40341539959032       -0.33456383051181       -2.28519147204807
C            4.72385572991375       -1.30747713108301       -1.56639410203517
N           -0.80845382626740       -0.32111241957527        0.21972008606526
C           -1.90196691785749        0.35332232585960        0.13315240619382
C           -2.70637715042370        0.22556236112502       -1.15263203347722
C           -4.02796665445911       -0.51950714364310       -0.90430187071280
C           -1.87888645432950       -0.57340863701291       -2.17540558784417
N           -3.01034979194348        1.54531916388772       -1.72433343614340
H           -3.42269408343062        2.86802477562818        1.74558012334271
H           -4.41501665005932        1.40634251264607        1.58477324731406
H           -3.78803256785937        2.22856312497351        0.13370882921366
H           -1.64625785477520       -1.34595589971460        3.33522703372829
H           -1.14111964858168       -0.20974542768856        4.60749796304225
H            0.03157094331536       -1.34906119022892        3.91395787684721
H            1.40281802433575        0.59298543726678        3.12356429197961
H            0.85136908257452       -1.55599227281251       -0.64832668361122
H            3.34485603946911       -2.31462133518383        0.73596705211790
H            2.82896205006743       -3.06136497362156       -0.78393434425159
H            1.97329278483153        0.46309606945629       -0.67696675513300
H            3.17775510088991        2.21203355154000       -1.95935563879502
H            6.35999771913708       -0.53983033360750       -2.74715777261209
H            5.16164485798740       -2.29422155694611       -1.46587296284249
H           -4.69466199397418        0.05709167960911       -0.26591467108314
H           -4.53553618501507       -0.70166533270389       -1.85127652118973
H           -3.82693387579073       -1.47844827957379       -0.42692032879354
H           -2.42298875143830       -0.63801966369025       -3.11663173526074
H           -1.68394399688179       -1.58027035565863       -1.80763505924676
H           -0.92497021882962       -0.07827315489778       -2.35358703828214
H           -2.15325755570050        1.96896214342151       -2.05565686941747
H           -3.61035058777577        1.41883068504676       -2.52649985925129

          :  Hamiltonian                  GFN1-xTB          :
         :: total energy             -80.228707776403 Eh    ::
         :: gradient norm              0.000345068754 Eh/a0 ::
         :: HOMO-LUMO gap              1.589424331873 eV    ::
         :: SCC energy               -81.083996801517 Eh    ::
         :: -> Gsolv                  -0.105319231323 Eh    ::
         :: repulsion energy           0.886837046913 Eh    ::

    * Orbital Energies and Occupations

         #    Occupation            Energy/Eh            Energy/eV
      -------------------------------------------------------------
         1        2.0000           -0.8525651             -23.1995
       ...           ...                  ...                  ...
        56        2.0000           -0.4602142             -12.5231
        57        2.0000           -0.4591225             -12.4934
        58        2.0000           -0.4551546             -12.3854
        59        2.0000           -0.4380934             -11.9211
        60        2.0000           -0.4338048             -11.8044
        61        2.0000           -0.4198757             -11.4254
        62        2.0000           -0.4141339             -11.2692
        63        2.0000           -0.4090103             -11.1297
        64        2.0000           -0.3992206             -10.8633
        65        2.0000           -0.3922266             -10.6730
        66        2.0000           -0.3852725             -10.4838
        67        2.0000           -0.3713336             -10.1045
        68        2.0000           -0.3186347              -8.6705 (HOMO)
        69                         -0.2602245              -7.0811 (LUMO)
        70                         -0.2498172              -6.7979
        71                         -0.2368086              -6.4439
        72                         -0.1936636              -5.2699
        73                         -0.1378633              -3.7515
        74                         -0.1300563              -3.5390
        75                         -0.1179348              -3.2092
        76                         -0.1080525              -2.9403
        77                         -0.1046643              -2.8481
        78                         -0.1012305              -2.7546
        79                         -0.0912367              -2.4827
       ...                                ...                  ...
       144                          0.6693455              18.2138
      -------------------------------------------------------------
                  HL-Gap            0.0584103 Eh            1.5894 eV

Wiberg/Mayer (AO) data.
largest (>0.10) Wiberg bond orders for each atom

     #   Z sym  total        # sym  WBO       # sym  WBO       # sym  WBO
 ---------------------------------------------------------------------------
     1   6 C    3.949 --    27 H    0.982    26 H    0.980    28 H    0.972
                             2 N    0.946
     2   7 N    3.435 --     3 C    1.247    21 C    0.983     1 C    0.946
                             4 O    0.147
     3   6 C    3.891 --     4 O    1.550     2 N    1.247     5 C    0.939
     4   8 O    1.849 --     3 C    1.550     2 N    0.147
     5   6 C    3.914 --     8 C    0.973     6 C    0.964     3 C    0.939
                             7 O    0.937
     6   6 C    3.995 --    29 H    0.988    30 H    0.986    31 H    0.984
                             5 C    0.964
     7   8 O    1.877 --     5 C    0.937    32 H    0.843
     8   6 C    3.865 --     9 C    1.299    20 N    1.215     5 C    0.973
                            21 C    0.114    10 O    0.101
     9   6 C    3.911 --    10 O    1.420     8 C    1.299    11 N    1.050
    10   8 O    1.792 --     9 C    1.420     8 C    0.101
    11   7 N    3.161 --     9 C    1.050    12 C    0.982    33 H    0.924
    12   6 C    3.971 --    13 C    0.994    11 N    0.982    35 H    0.971
                            34 H    0.958
    13   6 C    3.986 --    14 C    1.419    19 C    1.409    12 C    0.994
    14   6 C    3.994 --    15 C    1.438    13 C    1.419    36 H    0.967
                            18 C    0.109
    15   6 C    3.992 --    14 C    1.438    16 C    1.407    37 H    0.971
                            19 C    0.111
    16   6 C    3.857 --    15 C    1.407    18 C    1.398    17 F    0.914
    17   9 F    1.038 --    16 C    0.914
    18   6 C    3.992 --    19 C    1.448    16 C    1.398    38 H    0.970
                            14 C    0.109
    19   6 C    3.994 --    18 C    1.448    13 C    1.409    39 H    0.973
                            15 C    0.111
    20   7 N    3.080 --    21 C    1.595     8 C    1.215
    21   6 C    3.897 --    20 N    1.595     2 N    0.983    22 C    0.982
                             8 C    0.114
    22   6 C    3.964 --    24 C    0.992    23 C    0.989    21 C    0.982
                            25 N    0.970
    23   6 C    3.992 --    22 C    0.989    42 H    0.986    41 H    0.985
                            40 H    0.982
    24   6 C    3.996 --    22 C    0.992    43 H    0.986    45 H    0.984
                            44 H    0.984
    25   7 N    2.993 --    22 C    0.970    47 H    0.948    46 H    0.947
    26   1 H    1.018 --     1 C    0.980
    27   1 H    1.010 --     1 C    0.982
    28   1 H    1.034 --     1 C    0.972
    29   1 H    1.012 --     6 C    0.988
    30   1 H    1.014 --     6 C    0.986
    31   1 H    1.018 --     6 C    0.984
    32   1 H    0.908 --     7 O    0.843
    33   1 H    0.986 --    11 N    0.924
    34   1 H    1.024 --    12 C    0.958
    35   1 H    1.013 --    12 C    0.971
    36   1 H    1.009 --    14 C    0.967
    37   1 H    1.000 --    15 C    0.971
    38   1 H    0.999 --    18 C    0.970
    39   1 H    1.001 --    19 C    0.973
    40   1 H    1.008 --    23 C    0.982
    41   1 H    1.002 --    23 C    0.985
    42   1 H    1.008 --    23 C    0.986
    43   1 H    1.006 --    24 C    0.986
    44   1 H    1.017 --    24 C    0.984
    45   1 H    1.017 --    24 C    0.984
    46   1 H    0.965 --    25 N    0.947
    47   1 H    0.962 --    25 N    0.948
 ---------------------------------------------------------------------------

           -------------------------------------------------
          | TOTAL ENERGY              -80.228707776403 Eh   |
          | GRADIENT NORM               0.000345068754 Eh/α |
          | HOMO-LUMO GAP               1.589424331873 eV   |
           -------------------------------------------------

 * finished run on 2023/06/20 at 15:10:36.720
