                         Program Version 5.0.1 -  RELEASE  -
|  1> # ORCA input file
|  2> ! SP r2SCAN-3c CPCM
|  3>
|  4> %maxcore 1875.0
|  5> %pal nprocs 4 end
|  6> %cpcm smd true SMDsolvent "DMSO" end
|  7>
|  8> *xyz -1 1
|  9> C      -3.386273   -1.585938    1.349912
| 10> N      -2.182608   -1.123276    0.664020
| 11> C      -2.109484    0.123188    0.031973
| 12> C      -3.184206    1.192806    0.230072
| 13> C      -3.008722    1.848972    1.608653
| 14> C      -3.020722    2.270511   -0.857406
| 15> N      -4.532511    0.625644    0.143096
| 16> N      -1.075090    0.491293   -0.628477
| 17> C       0.059298   -0.341365   -0.752935
| 18> C       1.251464    0.327643   -1.234397
| 19> O       1.321210    1.543304   -1.477919
| 20> N       2.342937   -0.488796   -1.483262
| 21> C       3.649396    0.122660   -1.665789
| 22> C       4.264037    0.499034   -0.332147
| 23> C       5.112042   -0.387817    0.327679
| 24> C       5.653448   -0.066695    1.565633
| 25> C       5.324686    1.153692    2.125315
| 26> F       5.846223    1.476047    3.325894
| 27> C       4.487228    2.059956    1.500839
| 28> C       3.957008    1.721287    0.264053
| 29> C      -0.021115   -1.672445   -0.374399
| 30> O       0.896832   -2.532228   -0.292621
| 31> C      -1.442436   -2.185643   -0.021551
| 32> C      -2.158882   -2.624856   -1.320284
| 33> O      -1.293716   -3.294354    0.828771
| 34> H      -4.194409   -1.827061    0.651973
| 35> H      -3.740555   -0.823795    2.040250
| 36> H      -3.135083   -2.479498    1.924724
| 37> H      -3.185489    1.133518    2.410285
| 38> H      -3.713620    2.672238    1.722413
| 39> H      -1.995889    2.239987    1.706351
| 40> H      -3.095275    1.817569   -1.845807
| 41> H      -2.047905    2.755458   -0.770220
| 42> H      -3.804174    3.019857   -0.753284
| 43> H      -4.739442    0.392422   -0.820266
| 44> H      -5.203199    1.324362    0.429541
| 45> H       2.352319   -1.397673   -1.031909
| 46> H       4.292733   -0.591278   -2.188289
| 47> H       3.530929    1.013731   -2.292021
| 48> H       5.363434   -1.338092   -0.129370
| 49> H       6.319222   -0.744577    2.083040
| 50> H       4.263438    3.008191    1.972113
| 51> H       3.296146    2.415694   -0.244169
| 52> H      -0.343446   -3.537305    0.763209
| 53> H      -1.524859   -3.338325   -1.844091
| 54> H      -3.106962   -3.105269   -1.085875
| 55> H      -2.337957   -1.762776   -1.960498
| 56> **                         ****END OF INPUT****

CARTESIAN COORDINATES (ANGSTROEM)
---------------------------------
  C     -3.386273   -1.585938    1.349912
  N     -2.182608   -1.123276    0.664020
  C     -2.109484    0.123188    0.031973
  C     -3.184206    1.192806    0.230072
  C     -3.008722    1.848972    1.608653
  C     -3.020722    2.270511   -0.857406
  N     -4.532511    0.625644    0.143096
  N     -1.075090    0.491293   -0.628477
  C      0.059298   -0.341365   -0.752935
  C      1.251464    0.327643   -1.234397
  O      1.321210    1.543304   -1.477919
  N      2.342937   -0.488796   -1.483262
  C      3.649396    0.122660   -1.665789
  C      4.264037    0.499034   -0.332147
  C      5.112042   -0.387817    0.327679
  C      5.653448   -0.066695    1.565633
  C      5.324686    1.153692    2.125315
  F      5.846223    1.476047    3.325894
  C      4.487228    2.059956    1.500839
  C      3.957008    1.721287    0.264053
  C     -0.021115   -1.672445   -0.374399
  O      0.896832   -2.532228   -0.292621
  C     -1.442436   -2.185643   -0.021551
  C     -2.158882   -2.624856   -1.320284
  O     -1.293716   -3.294354    0.828771
  H     -4.194409   -1.827061    0.651973
  H     -3.740555   -0.823795    2.040250
  H     -3.135083   -2.479498    1.924724
  H     -3.185489    1.133518    2.410285
  H     -3.713620    2.672238    1.722413
  H     -1.995889    2.239987    1.706351
  H     -3.095275    1.817569   -1.845807
  H     -2.047905    2.755458   -0.770220
  H     -3.804174    3.019857   -0.753284
  H     -4.739442    0.392422   -0.820266
  H     -5.203199    1.324362    0.429541
  H      2.352319   -1.397673   -1.031909
  H      4.292733   -0.591278   -2.188289
  H      3.530929    1.013731   -2.292021
  H      5.363434   -1.338092   -0.129370
  H      6.319222   -0.744577    2.083040
  H      4.263438    3.008191    1.972113
  H      3.296146    2.415694   -0.244169
  H     -0.343446   -3.537305    0.763209
  H     -1.524859   -3.338325   -1.844091
  H     -3.106962   -3.105269   -1.085875
  H     -2.337957   -1.762776   -1.960498

 Total Charge           Charge          ....   -1
 Multiplicity           Mult            ....    1
 Number of Electrons    NEL             ....  186
 Basis Dimension        Dim             ....  625

ORBITAL ENERGIES
----------------

  NO   OCC          E(Eh)            E(eV)
   0   2.0000     -24.498325      -666.6333
   1   2.0000     -18.931809      -515.1607
   2   2.0000     -18.894634      -514.1491
   3   2.0000     -18.880505      -513.7647
   4   2.0000     -14.166138      -385.4802
   5   2.0000     -14.146972      -384.9587
   6   2.0000     -14.120091      -384.2272
   7   2.0000     -14.110083      -383.9549
   8   2.0000     -10.113809      -275.2107
   9   2.0000     -10.101929      -274.8875
  10   2.0000     -10.092216      -274.6232
  11   2.0000     -10.067912      -273.9618
  12   2.0000     -10.063648      -273.8458
  13   2.0000     -10.061832      -273.7964
  14   2.0000     -10.049791      -273.4687
  15   2.0000     -10.036844      -273.1164
  16   2.0000     -10.036520      -273.1076
  17   2.0000     -10.036162      -273.0979
  18   2.0000     -10.036018      -273.0939
  19   2.0000     -10.033268      -273.0191
  20   2.0000     -10.030932      -272.9555
  21   2.0000     -10.011900      -272.4376
  22   2.0000     -10.009589      -272.3748
  23   2.0000     -10.004822      -272.2451
  24   2.0000      -9.999570      -272.1021
  25   2.0000      -1.188051       -32.3285
  26   2.0000      -0.993649       -27.0386
  27   2.0000      -0.962897       -26.2018
  28   2.0000      -0.940832       -25.6013
  29   2.0000      -0.911637       -24.8069
  30   2.0000      -0.856638       -23.3103
  31   2.0000      -0.844616       -22.9832
  32   2.0000      -0.827489       -22.5171
  33   2.0000      -0.825696       -22.4683
  34   2.0000      -0.731171       -19.8962
  35   2.0000      -0.721827       -19.6419
  36   2.0000      -0.720775       -19.6133
  37   2.0000      -0.697061       -18.9680
  38   2.0000      -0.676411       -18.4061
  39   2.0000      -0.642144       -17.4736
  40   2.0000      -0.639828       -17.4106
  41   2.0000      -0.634161       -17.2564
  42   2.0000      -0.588739       -16.0204
  43   2.0000      -0.586467       -15.9586
  44   2.0000      -0.565441       -15.3864
  45   2.0000      -0.556503       -15.1432
  46   2.0000      -0.533140       -14.5075
  47   2.0000      -0.512051       -13.9336
  48   2.0000      -0.509742       -13.8708
  49   2.0000      -0.479506       -13.0480
  50   2.0000      -0.467627       -12.7248
  51   2.0000      -0.456504       -12.4221
  52   2.0000      -0.449752       -12.2384
  53   2.0000      -0.447133       -12.1671
  54   2.0000      -0.435130       -11.8405
  55   2.0000      -0.432835       -11.7780
  56   2.0000      -0.430942       -11.7265
  57   2.0000      -0.410814       -11.1788
  58   2.0000      -0.408121       -11.1055
  59   2.0000      -0.404878       -11.0173
  60   2.0000      -0.398365       -10.8401
  61   2.0000      -0.394812       -10.7434
  62   2.0000      -0.392157       -10.6711
  63   2.0000      -0.379436       -10.3250
  64   2.0000      -0.370730       -10.0881
  65   2.0000      -0.368787       -10.0352
  66   2.0000      -0.358084        -9.7440
  67   2.0000      -0.356278        -9.6948
  68   2.0000      -0.354113        -9.6359
  69   2.0000      -0.349089        -9.4992
  70   2.0000      -0.347546        -9.4572
  71   2.0000      -0.342454        -9.3187
  72   2.0000      -0.334182        -9.0936
  73   2.0000      -0.333345        -9.0708
  74   2.0000      -0.329578        -8.9683
  75   2.0000      -0.327089        -8.9005
  76   2.0000      -0.324882        -8.8405
  77   2.0000      -0.306680        -8.3452
  78   2.0000      -0.305510        -8.3133
  79   2.0000      -0.304073        -8.2743
  80   2.0000      -0.301606        -8.2071
  81   2.0000      -0.292503        -7.9594
  82   2.0000      -0.280199        -7.6246
  83   2.0000      -0.242583        -6.6010
  84   2.0000      -0.238070        -6.4782
  85   2.0000      -0.229865        -6.2549
  86   2.0000      -0.225436        -6.1344
  87   2.0000      -0.205318        -5.5870
  88   2.0000      -0.203177        -5.5287
  89   2.0000      -0.196316        -5.3420
  90   2.0000      -0.186769        -5.0823
  91   2.0000      -0.183731        -4.9996
  92   2.0000      -0.137115        -3.7311
  93   0.0000      -0.037677        -1.0253
  94   0.0000      -0.025452        -0.6926
  95   0.0000      -0.012053        -0.3280
  96   0.0000       0.009495         0.2584
  97   0.0000       0.062880         1.7110

MULLIKEN ATOMIC CHARGES
-----------------------
   0 C :   -0.450401
   1 N :    0.121289
   2 C :    0.087353
   3 C :    0.170166
   4 C :   -0.565095
   5 C :   -0.603219
   6 N :   -0.638970
   7 N :   -0.166012
   8 C :   -0.177523
   9 C :    0.002267
  10 O :   -0.460265
  11 N :   -0.177489
  12 C :   -0.370290
  13 C :    0.084931
  14 C :   -0.214413
  15 C :   -0.296208
  16 C :    0.360858
  17 F :   -0.242654
  18 C :   -0.320926
  19 C :   -0.184018
  20 C :    0.088136
  21 O :   -0.527073
  22 C :    0.069237
  23 C :   -0.596095
  24 O :   -0.402615
  25 H :    0.168932
  26 H :    0.165592
  27 H :    0.173149
  28 H :    0.169070
  29 H :    0.171927
  30 H :    0.178612
  31 H :    0.171244
  32 H :    0.173323
  33 H :    0.160429
  34 H :    0.278578
  35 H :    0.281943
  36 H :    0.315329
  37 H :    0.172424
  38 H :    0.199165
  39 H :    0.187596
  40 H :    0.194514
  41 H :    0.194283
  42 H :    0.206689
  43 H :    0.326167
  44 H :    0.171676
  45 H :    0.172647
  46 H :    0.175742
Sum of atomic charges:   -1.0000000

LOEWDIN ATOMIC CHARGES
----------------------
   0 C :   -0.118758
   1 N :   -0.749722
   2 C :    0.315406
   3 C :    0.062518
   4 C :   -0.364259
   5 C :   -0.376398
   6 N :   -0.711373
   7 N :   -0.657457
   8 C :    0.075271
   9 C :    0.345990
  10 O :   -0.546991
  11 N :   -0.663080
  12 C :   -0.023673
  13 C :   -0.081272
  14 C :   -0.151201
  15 C :   -0.165579
  16 C :    0.195078
  17 F :   -0.303024
  18 C :   -0.165095
  19 C :   -0.143899
  20 C :    0.237068
  21 O :   -0.653283
  22 C :    0.276938
  23 C :   -0.352805
  24 O :   -0.547195
  25 H :    0.171594
  26 H :    0.184836
  27 H :    0.185843
  28 H :    0.163968
  29 H :    0.163352
  30 H :    0.167833
  31 H :    0.164230
  32 H :    0.166896
  33 H :    0.154777
  34 H :    0.249375
  35 H :    0.249537
  36 H :    0.288554
  37 H :    0.189683
  38 H :    0.202211
  39 H :    0.185299
  40 H :    0.192447
  41 H :    0.192200
  42 H :    0.195172
  43 H :    0.296889
  44 H :    0.167471
  45 H :    0.167012
  46 H :    0.167613

  Mayer bond orders larger than 0.100000
B(  0-C ,  1-N ) :   0.8997 B(  0-C , 25-H ) :   0.9506 B(  0-C , 26-H ) :   0.9474
B(  0-C , 27-H ) :   0.9503 B(  1-N ,  2-C ) :   1.1961 B(  1-N , 22-C ) :   0.9101
B(  2-C ,  3-C ) :   0.8986 B(  2-C ,  6-N ) :  -0.1095 B(  2-C ,  7-N ) :   1.7899
B(  3-C ,  4-C ) :   0.9308 B(  3-C ,  5-C ) :   0.9541 B(  3-C ,  6-N ) :   0.8255
B(  3-C ,  7-N ) :  -0.1070 B(  4-C , 28-H ) :   0.9608 B(  4-C , 29-H ) :   0.9653
B(  4-C , 30-H ) :   0.9809 B(  5-C , 31-H ) :   0.9747 B(  5-C , 32-H ) :   0.9808
B(  5-C , 33-H ) :   0.9711 B(  6-N , 34-H ) :   0.9101 B(  6-N , 35-H ) :   0.9158
B(  7-N ,  8-C ) :   0.8032 B(  8-C ,  9-C ) :   1.0660 B(  8-C , 10-O ) :  -0.1016
B(  8-C , 20-C ) :   1.2480 B(  9-C , 10-O ) :   1.9556 B(  9-C , 11-N ) :   1.0863
B( 10-O , 12-C ) :   0.1075 B( 11-N , 12-C ) :   0.8573 B( 11-N , 36-H ) :   0.8497
B( 12-C , 13-C ) :   0.8146 B( 12-C , 37-H ) :   0.9858 B( 12-C , 38-H ) :   0.9976
B( 13-C , 14-C ) :   1.3949 B( 13-C , 19-C ) :   1.3948 B( 14-C , 15-C ) :   1.3657
B( 14-C , 39-H ) :   0.9449 B( 15-C , 16-C ) :   1.4055 B( 15-C , 40-H ) :   0.9366
B( 16-C , 17-F ) :   0.8757 B( 16-C , 18-C ) :   1.3898 B( 18-C , 19-C ) :   1.3727
B( 18-C , 41-H ) :   0.9373 B( 19-C , 42-H ) :   0.9375 B( 20-C , 21-O ) :   1.7333
B( 20-C , 22-C ) :   0.8827 B( 22-C , 23-C ) :   0.8953 B( 22-C , 24-O ) :   1.0804
B( 23-C , 44-H ) :   0.9664 B( 23-C , 45-H ) :   0.9521 B( 23-C , 46-H ) :   0.9728
B( 24-O , 43-H ) :   0.8022

Dispersion correction           -0.022099600
FINAL SINGLE POINT ENERGY     -1205.515060729663

DIPOLE MOMENT
-------------
                                X             Y             Z
Electronic contribution:     33.07698       0.07703       6.62030
Nuclear contribution   :    -33.48698       0.32829      -5.80457
                        -----------------------------------------
Total Dipole Moment    :     -0.41001       0.40531       0.81572
                        -----------------------------------------
Magnitude (a.u.)       :      0.99889
Magnitude (Debye)      :      2.53899

Rotational constants in cm-1:     0.011993     0.003780     0.003514
Rotational constants in MHz :   359.551609   113.307551   105.332618

                             ****ORCA TERMINATED NORMALLY****
TOTAL RUN TIME: 0 days 0 hours 3 minutes 0 seconds 41 msec
