   * xtb version 6.5.1 (579679a) compiled by 'ehlert@majestix' on 2022-07-11
          program call               : /lustre/hpc/kemi/ree/PhD/git/ReactivityQM/dep/xtb-6.5.1/bin/xtb --gfn 1 /lustre/hpc/kemi/ree/PhD/git/ReactivityQM/calculations/RaltegravirCLI/reac02prodE11/conf20/RaltegravirCLI_reac02prodE11_conf20_gfn1.xyz --opt --vfukui --chrg -1 --uhf 0 --alpb DMSO

   ID    Z sym.   atoms
    1    6 C      1, 3-6, 9, 10, 13-17, 19-21, 23, 24
    2    7 N      2, 7, 8, 12
    3    8 O      11, 22, 25
    4    9 F      18
    5    1 H      26-47

      * Solvation model:               ALPB
        Solvent                        DMSO
        Solvent mass                       7.8130E+01 g/mol
          :  Hamiltonian                  GFN1-xTB          :
 * total energy  :   -80.1928450 Eh     change       -0.1477929E-10 Eh
 * total energy  :   -80.2018039 Eh     change       -0.8958926E-02 Eh
 * total energy  :   -80.2047782 Eh     change       -0.2974287E-02 Eh
 * total energy  :   -80.2057475 Eh     change       -0.9693232E-03 Eh
 * total energy  :   -80.2071374 Eh     change       -0.1389941E-02 Eh
 * total energy  :   -80.2091340 Eh     change       -0.1996586E-02 Eh
 * total energy  :   -80.2077809 Eh     change        0.1353156E-02 Eh
 * total energy  :   -80.2129340 Eh     change       -0.5153079E-02 Eh
 * total energy  :   -80.2155384 Eh     change       -0.2604448E-02 Eh
 * total energy  :   -80.2197301 Eh     change       -0.4191745E-02 Eh
 * total energy  :   -80.2341770 Eh     change       -0.2934580E-03 Eh
 * total energy  :   -80.2343072 Eh     change       -0.1302365E-03 Eh
 * total energy  :   -80.2343921 Eh     change       -0.8486982E-04 Eh
 * total energy  :   -80.2344259 Eh     change       -0.3377587E-04 Eh
 * total energy  :   -80.2344175 Eh     change        0.8414027E-05 Eh
 * total energy  :   -80.2344459 Eh     change       -0.2842152E-04 Eh
 * total energy  :   -80.2344539 Eh     change       -0.8013359E-05 Eh
 * total energy  :   -80.2344597 Eh     change       -0.5764230E-05 Eh
 * total energy  :   -80.2344645 Eh     change       -0.4821537E-05 Eh
   *** GEOMETRY OPTIMIZATION CONVERGED AFTER 61 ITERATIONS ***

 final structure:
================
47
 xtb: 6.5.1 (579679a)
C           -3.38627316872822       -1.58593785340529        1.34991238032064
N           -2.18260810465381       -1.12327613200460        0.66402037821231
C           -2.10948419012988        0.12318829555631        0.03197330159975
C           -3.18420557330465        1.19280626136838        0.23007222873120
C           -3.00872158944531        1.84897215519880        1.60865293031235
C           -3.02072219940299        2.27051122901025       -0.85740645070939
N           -4.53251072097794        0.62564377464455        0.14309592735307
N           -1.07509037463533        0.49129254222044       -0.62847684707205
C            0.05929831293874       -0.34136536467189       -0.75293477233434
C            1.25146410737930        0.32764314919513       -1.23439697528268
O            1.32121001803088        1.54330433944488       -1.47791851565992
N            2.34293694713324       -0.48879619119980       -1.48326234184832
C            3.64939613245188        0.12265966289877       -1.66578930774488
C            4.26403718010182        0.49903363803506       -0.33214674397986
C            5.11204237022510       -0.38781722409172        0.32767864141715
C            5.65344819709567       -0.06669467657618        1.56563324284147
C            5.32468633929186        1.15369229552300        2.12531549881828
F            5.84622299318577        1.47604686067272        3.32589425858031
C            4.48722766335850        2.05995626091024        1.50083887084137
C            3.95700795198184        1.72128723573274        0.26405342928169
C           -0.02111451871586       -1.67244533351890       -0.37439898204065
O            0.89683239878425       -2.53222810360976       -0.29262110591430
C           -1.44243552472472       -2.18564348476231       -0.02155128091299
C           -2.15888229189968       -2.62485588491977       -1.32028393478523
O           -1.29371617934816       -3.29435413385339        0.82877063109210
H           -4.19440867580398       -1.82706080734623        0.65197329962460
H           -3.74055523502761       -0.82379465732681        2.04024980380475
H           -3.13508278776547       -2.47949754789682        1.92472353326471
H           -3.18548899155482        1.13351759648506        2.41028528455746
H           -3.71361957968955        2.67223822318735        1.72241304766933
H           -1.99588861166348        2.23998733137736        1.70635051626841
H           -3.09527536686702        1.81756925103445       -1.84580727588292
H           -2.04790473266903        2.75545811160248       -0.77022037081697
H           -3.80417426575884        3.01985661987424       -0.75328409334486
H           -4.73944186933560        0.39242188985318       -0.82026590117879
H           -5.20319871544288        1.32436182026601        0.42954132166200
H            2.35231887550011       -1.39767327077718       -1.03190852053599
H            4.29273266032608       -0.59127803407603       -2.18828851237247
H            3.53092895344108        1.01373079354540       -2.29202095962048
H            5.36343369555638       -1.33809228690935       -0.12937039480144
H            6.31922243455135       -0.74457715887238        2.08303994543698
H            4.26343789735820        3.00819050081814        1.97211255240065
H            3.29614555684279        2.41569362774659       -0.24416851582183
H           -0.34344561916358       -3.53730457516108        0.76320854655071
H           -1.52485910642437       -3.33832517776709       -1.84409143543371
H           -3.10696225866471       -3.10526902247156       -1.08587453869000
H           -2.33795743374244       -1.76277554499070       -1.96049779385272

          :  Hamiltonian                  GFN1-xTB          :
         :: total energy             -80.234464481128 Eh    ::
         :: gradient norm              0.000848547563 Eh/a0 ::
         :: HOMO-LUMO gap              1.919787989770 eV    ::
         :: SCC energy               -81.088481920416 Eh    ::
         :: -> Gsolv                  -0.103823468020 Eh    ::
         :: repulsion energy           0.885084310949 Eh    ::

    * Orbital Energies and Occupations

         #    Occupation            Energy/Eh            Energy/eV
      -------------------------------------------------------------
         1        2.0000           -0.8537313             -23.2312
       ...           ...                  ...                  ...
        56        2.0000           -0.4603777             -12.5275
        57        2.0000           -0.4568528             -12.4316
        58        2.0000           -0.4445287             -12.0962
        59        2.0000           -0.4402154             -11.9789
        60        2.0000           -0.4385950             -11.9348
        61        2.0000           -0.4251041             -11.5677
        62        2.0000           -0.4089862             -11.1291
        63        2.0000           -0.4003059             -10.8929
        64        2.0000           -0.3937979             -10.7158
        65        2.0000           -0.3926476             -10.6845
        66        2.0000           -0.3770840             -10.2610
        67        2.0000           -0.3664683              -9.9721
        68        2.0000           -0.3311465              -9.0110 (HOMO)
        69                         -0.2605956              -7.0912 (LUMO)
        70                         -0.2528620              -6.8807
        71                         -0.2259658              -6.1488
        72                         -0.2073946              -5.6435
        73                         -0.1324503              -3.6042
        74                         -0.1148086              -3.1241
        75                         -0.1092923              -2.9740
        76                         -0.1061565              -2.8887
        77                         -0.1038163              -2.8250
        78                         -0.1019867              -2.7752
        79                         -0.0961114              -2.6153
       ...                                ...                  ...
       144                          0.7028025              19.1242
      -------------------------------------------------------------
                  HL-Gap            0.0705509 Eh            1.9198 eV

Wiberg/Mayer (AO) data.
largest (>0.10) Wiberg bond orders for each atom

     #   Z sym  total        # sym  WBO       # sym  WBO       # sym  WBO
 ---------------------------------------------------------------------------
     1   6 C    3.965 --    28 H    0.983    27 H    0.982    26 H    0.980
                             2 N    0.959
     2   7 N    3.241 --     3 C    1.088     1 C    0.959    23 C    0.931
                             8 N    0.139
     3   6 C    3.941 --     8 N    1.673     2 N    1.088     4 C    0.971
     4   6 C    3.963 --     6 C    0.991     5 C    0.988     7 N    0.976
                             3 C    0.971
     5   6 C    3.995 --     4 C    0.988    31 H    0.986    30 H    0.985
                            29 H    0.981
     6   6 C    3.996 --     4 C    0.991    34 H    0.987    32 H    0.985
                            33 H    0.983
     7   7 N    2.978 --     4 C    0.976    35 H    0.948    36 H    0.948
     8   7 N    3.015 --     3 C    1.673     9 C    1.058     2 N    0.139
     9   6 C    3.900 --    21 C    1.392    10 C    1.140     8 N    1.058
                            22 O    0.125
    10   6 C    3.900 --    11 O    1.504     9 C    1.140    12 N    1.136
    11   8 O    1.813 --    10 C    1.504    12 N    0.116
    12   7 N    3.228 --    10 C    1.136    13 C    0.962    37 H    0.892
                            11 O    0.116
    13   6 C    3.970 --    14 C    0.993    38 H    0.979    39 H    0.972
                            12 N    0.962
    14   6 C    3.987 --    15 C    1.420    20 C    1.414    13 C    0.993
    15   6 C    3.994 --    16 C    1.439    14 C    1.420    40 H    0.972
                            19 C    0.110
    16   6 C    3.992 --    15 C    1.439    17 C    1.405    41 H    0.970
                            20 C    0.111
    17   6 C    3.856 --    16 C    1.405    19 C    1.401    18 F    0.914
    18   9 F    1.039 --    17 C    0.914
    19   6 C    3.992 --    20 C    1.445    17 C    1.401    42 H    0.971
                            15 C    0.110
    20   6 C    3.992 --    19 C    1.445    14 C    1.414    43 H    0.968
                            16 C    0.111
    21   6 C    3.934 --    22 O    1.440     9 C    1.392    23 C    0.915
    22   8 O    1.850 --    21 C    1.440     9 C    0.125
    23   6 C    3.883 --    24 C    0.966    25 O    0.965     2 N    0.931
                            21 C    0.915
    24   6 C    3.994 --    47 H    0.987    45 H    0.986    46 H    0.984
                            23 C    0.966
    25   8 O    1.898 --    23 C    0.965    44 H    0.821
    26   1 H    1.023 --     1 C    0.980
    27   1 H    1.029 --     1 C    0.982
    28   1 H    1.021 --     1 C    0.983
    29   1 H    1.009 --     5 C    0.981
    30   1 H    1.003 --     5 C    0.985
    31   1 H    1.008 --     5 C    0.986
    32   1 H    1.015 --     6 C    0.985
    33   1 H    1.024 --     6 C    0.983
    34   1 H    1.007 --     6 C    0.987
    35   1 H    0.967 --     7 N    0.948
    36   1 H    0.963 --     7 N    0.948
    37   1 H    0.969 --    12 N    0.892
    38   1 H    1.009 --    13 C    0.979
    39   1 H    1.019 --    13 C    0.972
    40   1 H    1.001 --    15 C    0.972
    41   1 H    0.999 --    16 C    0.970
    42   1 H    1.000 --    19 C    0.971
    43   1 H    1.018 --    20 C    0.968
    44   1 H    0.890 --    25 O    0.821
    45   1 H    1.009 --    24 C    0.986
    46   1 H    1.008 --    24 C    0.984
    47   1 H    1.008 --    24 C    0.987
 ---------------------------------------------------------------------------

           -------------------------------------------------
          | TOTAL ENERGY              -80.234464481128 Eh   |
          | GRADIENT NORM               0.000848547563 Eh/α |
          | HOMO-LUMO GAP               1.919787989770 eV   |
           -------------------------------------------------

 * finished run on 2023/06/20 at 15:13:38.945
