   * xtb version 6.5.1 (579679a) compiled by 'ehlert@majestix' on 2022-07-11
          program call               : /lustre/hpc/kemi/ree/PhD/git/ReactivityQM/dep/xtb-6.5.1/bin/xtb --gfn 1 /lustre/hpc/kemi/ree/PhD/git/ReactivityQM/calculations/R02oxygendeprot/reac01prodN17/conf20/R02oxygendeprot_reac01prodN17_conf20_gfn1.xyz --opt --vfukui --chrg 0 --uhf 0 --alpb DMSO

   ID    Z sym.   atoms
    1    6 C      1, 3, 5, 7-10, 12, 13, 15, 18, 19, 22, 24
    2    8 O      2, 4, 14, 20, 23, 25
    3    7 N      6, 11, 16, 17, 21
    4    1 H      26-42

      * Solvation model:               ALPB
        Solvent                        DMSO
        Solvent mass                       7.8130E+01 g/mol
          :  Hamiltonian                  GFN1-xTB          :
 * total energy  :   -82.9346041 Eh     change       -0.7711662E-09 Eh
 * total energy  :   -82.9459324 Eh     change       -0.1132826E-01 Eh
 * total energy  :   -82.9495268 Eh     change       -0.3594487E-02 Eh
 * total energy  :   -82.9502947 Eh     change       -0.7678158E-03 Eh
 * total energy  :   -82.9509062 Eh     change       -0.6115281E-03 Eh
 * total energy  :   -82.9513808 Eh     change       -0.4746530E-03 Eh
 * total energy  :   -82.9517917 Eh     change       -0.4108630E-03 Eh
 * total energy  :   -82.9521091 Eh     change       -0.3174088E-03 Eh
 * total energy  :   -82.9523304 Eh     change       -0.2212620E-03 Eh
 * total energy  :   -82.9524662 Eh     change       -0.1358665E-03 Eh
 * total energy  :   -82.9977487 Eh     change       -0.5002721E-04 Eh
 * total energy  :   -82.9977758 Eh     change       -0.2706168E-04 Eh
 * total energy  :   -82.9978064 Eh     change       -0.3059334E-04 Eh
 * total energy  :   -82.9978263 Eh     change       -0.1995680E-04 Eh
 * total energy  :   -82.9978477 Eh     change       -0.2141357E-04 Eh
 * total energy  :   -82.9978542 Eh     change       -0.6512425E-05 Eh
 * total energy  :   -82.9978614 Eh     change       -0.7145263E-05 Eh
 * total energy  :   -82.9978675 Eh     change       -0.6119199E-05 Eh
 * total energy  :   -82.9978704 Eh     change       -0.2924020E-05 Eh
   *** GEOMETRY OPTIMIZATION CONVERGED AFTER 120 ITERATIONS ***

 final structure:
================
42
 xtb: 6.5.1 (579679a)
C           -3.34547030661014       -0.29226160876499       -3.28359818772214
O           -2.88141586255494       -0.11757021532951       -1.94353096206347
C           -3.76679014356351       -0.41134419796571       -0.96486727948600
O           -4.88624749086344       -0.80946976409122       -1.20518514280072
C           -3.20069859006922       -0.18944908156865        0.36388642524569
N           -1.89866281977278        0.28401982649918        0.40693995092137
C           -1.21672105860731        0.52516101478281        1.49361290259598
C            0.19934853324967        1.06742008981307        1.40224150662122
C            0.15882290758884        2.47937702253817        0.78920032265207
C            0.86154850863763        1.19571476713210        2.77863989694294
N            1.00445452538113        0.14313345435658        0.56832390234082
C            1.63044699699122       -0.99831438554188        1.23954710500603
C            1.01527599906024        0.23809923617616       -0.78579809199095
O            0.17720392678449        0.85692027615771       -1.43328276105947
C            2.13603153365519       -0.41479129978970       -1.50379269877994
N            2.18226835450068       -0.60833274197500       -2.78719271280018
N            3.41531364036829       -1.10444468962145       -3.07039487386492
C            4.05865135753058       -1.17198609787050       -1.94541362270072
C            5.44565774704171       -1.63335770911534       -1.72254255311897
O            3.30568170320162       -0.75274701463714       -0.91622041808054
N           -1.82854174377842        0.31908405573342        2.67764107481784
C           -3.13863944401569       -0.13226053430793        2.84231778020828
O           -3.57801423707848       -0.26276998493279        3.96534428394770
C           -3.91086030599823       -0.42809518667048        1.57016101688843
O           -5.06545103081811       -0.84349044324830        1.65919424466829
H           -3.66534622258043       -1.32563812086266       -3.44282674396808
H           -2.50881262073994       -0.05318330855564       -3.93724748547273
H           -4.18374323940294        0.38046703364241       -3.48419619092223
H           -0.21842407473010        3.17229724948856        1.53957002505149
H            1.16571477795239        2.77945770669134        0.50628463408170
H           -0.48981775625144        2.53414027055135       -0.08083149384893
H            1.89847677247670        1.49828991090342        2.64525337808292
H            0.35324972702366        1.96599032126396        3.35598172218746
H            0.83870778493104        0.26792044988655        3.34400845931391
H           -1.43277046563851        0.45668836998858       -0.48918120468762
H            1.77768564014469       -1.79913322752287        0.51989666671139
H            2.58817784153123       -0.71378472462898        1.67335655952781
H            0.96051078963483       -1.35934987096778        2.01800069503245
H            5.89990990681873       -1.89784543834408       -2.67461315269691
H            6.02704908316761       -0.84542170228866       -1.24405344906005
H            5.44837519663312       -2.50101414283574       -1.06291687588805
H           -1.33213784120371        0.50187443581365        3.53479934815275

          :  Hamiltonian                  GFN1-xTB          :
         :: total energy             -82.997870430160 Eh    ::
         :: gradient norm              0.000846653716 Eh/a0 ::
         :: HOMO-LUMO gap              2.547402917247 eV    ::
         :: SCC energy               -83.779159761782 Eh    ::
         :: -> Gsolv                  -0.078552719728 Eh    ::
         :: repulsion energy           0.808765573320 Eh    ::

    * Orbital Energies and Occupations

         #    Occupation            Energy/Eh            Energy/eV
      -------------------------------------------------------------
         1        2.0000           -0.8699380             -23.6722
       ...           ...                  ...                  ...
        55        2.0000           -0.5098719             -13.8743
        56        2.0000           -0.5085674             -13.8388
        57        2.0000           -0.5033603             -13.6971
        58        2.0000           -0.4927589             -13.4087
        59        2.0000           -0.4898384             -13.3292
        60        2.0000           -0.4840440             -13.1715
        61        2.0000           -0.4740802             -12.9004
        62        2.0000           -0.4735947             -12.8872
        63        2.0000           -0.4614781             -12.5575
        64        2.0000           -0.4570683             -12.4375
        65        2.0000           -0.4472326             -12.1698
        66        2.0000           -0.4255956             -11.5810
        67        2.0000           -0.4144952             -11.2790 (HOMO)
        68                         -0.3208798              -8.7316 (LUMO)
        69                         -0.3193245              -8.6893
        70                         -0.3035811              -8.2609
        71                         -0.2607375              -7.0950
        72                         -0.2352141              -6.4005
        73                         -0.2162467              -5.8844
        74                         -0.1574742              -4.2851
        75                         -0.1526101              -4.1527
        76                         -0.1440849              -3.9208
        77                         -0.1412027              -3.8423
        78                         -0.1351343              -3.6772
       ...                                ...                  ...
       134                          0.7618719              20.7316
      -------------------------------------------------------------
                  HL-Gap            0.0936153 Eh            2.5474 eV

Wiberg/Mayer (AO) data.
largest (>0.10) Wiberg bond orders for each atom

     #   Z sym  total        # sym  WBO       # sym  WBO       # sym  WBO
 ---------------------------------------------------------------------------
     1   6 C    3.875 --    27 H    0.986    26 H    0.981    28 H    0.980
                             2 O    0.901
     2   8 O    2.171 --     3 C    1.059     1 C    0.901     4 O    0.120
     3   6 C    3.867 --     4 O    1.628     5 C    1.087     2 O    1.059
     4   8 O    1.903 --     3 C    1.628     2 O    0.120
     5   6 C    3.866 --    24 C    1.253     3 C    1.087     6 N    1.083
                            25 O    0.131
     6   7 N    3.562 --     7 C    1.441     5 C    1.083    35 H    0.834
     7   6 C    3.915 --     6 N    1.441    21 N    1.215     8 C    0.972
     8   6 C    3.937 --    10 C    1.000     9 C    0.978     7 C    0.972
                            11 N    0.914
     9   6 C    3.982 --    29 H    0.982    30 H    0.981     8 C    0.978
                            31 H    0.978
    10   6 C    3.987 --     8 C    1.000    32 H    0.979    33 H    0.979
                            34 H    0.978
    11   7 N    3.359 --    13 C    1.246    12 C    0.931     8 C    0.914
                            14 O    0.166
    12   6 C    3.932 --    36 H    0.981    37 H    0.980    38 H    0.979
                            11 N    0.931
    13   6 C    3.914 --    14 O    1.555    11 N    1.246    15 C    1.002
    14   8 O    1.923 --    13 C    1.555    11 N    0.166
    15   6 C    3.876 --    16 N    1.614    20 O    1.045    13 C    1.002
    16   7 N    3.003 --    15 C    1.614    17 N    1.207
    17   7 N    2.983 --    18 C    1.602    16 N    1.207
    18   6 C    3.867 --    17 N    1.602    20 O    1.076    19 C    1.032
    19   6 C    3.985 --    18 C    1.032    39 H    0.982    40 H    0.963
                            41 H    0.962
    20   8 O    2.320 --    18 C    1.076    15 C    1.045
    21   7 N    3.454 --     7 C    1.215    22 C    1.082    42 H    0.879
                            23 O    0.117
    22   6 C    3.864 --    23 O    1.665    21 N    1.082    24 C    0.949
    23   8 O    1.934 --    22 C    1.665    21 N    0.117
    24   6 C    3.943 --    25 O    1.579     5 C    1.253    22 C    0.949
    25   8 O    1.885 --    24 C    1.579     5 C    0.131
    26   1 H    1.009 --     1 C    0.981
    27   1 H    1.011 --     1 C    0.986
    28   1 H    1.008 --     1 C    0.980
    29   1 H    1.000 --     9 C    0.982
    30   1 H    0.996 --     9 C    0.981
    31   1 H    1.010 --     9 C    0.978
    32   1 H    0.995 --    10 C    0.979
    33   1 H    0.997 --    10 C    0.979
    34   1 H    0.998 --    10 C    0.978
    35   1 H    0.936 --     6 N    0.834
    36   1 H    1.004 --    12 C    0.981
    37   1 H    1.005 --    12 C    0.980
    38   1 H    1.001 --    12 C    0.979
    39   1 H    0.998 --    19 C    0.982
    40   1 H    0.996 --    19 C    0.963
    41   1 H    0.996 --    19 C    0.962
    42   1 H    0.929 --    21 N    0.879
 ---------------------------------------------------------------------------

           -------------------------------------------------
          | TOTAL ENERGY              -82.997870430160 Eh   |
          | GRADIENT NORM               0.000846653716 Eh/α |
          | HOMO-LUMO GAP               2.547402917247 eV   |
           -------------------------------------------------

 * finished run on 2023/06/21 at 17:37:49.504
