                         Program Version 5.0.1 -  RELEASE  -
|  1> # ORCA input file
|  2> ! SP r2SCAN-3c CPCM
|  3>
|  4> %maxcore 1875.0
|  5> %pal nprocs 4 end
|  6> %cpcm smd true SMDsolvent "DMSO" end
|  7>
|  8> *xyz 0 1
|  9> C      -5.985268    0.552192   -0.575793
| 10> O      -4.892939    0.266198    0.312329
| 11> C      -3.701335    0.121979   -0.227982
| 12> C      -3.026472    0.299532    2.229543
| 13> O      -3.457056    0.190794   -1.402942
| 14> C      -2.618310   -0.197161    0.842557
| 15> N      -1.420955    0.488138    0.414939
| 16> C      -0.582081   -0.079356   -0.348877
| 17> C       0.607717    0.721108   -0.861545
| 18> C       0.580207    2.118599   -0.240524
| 19> C       0.553814    0.827653   -2.390471
| 20> N       1.860439    0.091221   -0.423045
| 21> C       2.412582   -1.026555   -0.930032
| 22> O       1.907826   -1.754657   -1.774189
| 23> C       3.736682   -1.326715   -0.335424
| 24> N       4.518761   -2.326318   -0.600771
| 25> N       5.620587   -2.183549    0.186736
| 26> C       5.444708   -1.105183    0.885320
| 27> C       6.353940   -0.512373    1.889314
| 28> O       4.271204   -0.515409    0.603372
| 29> N      -0.689392   -1.392281   -0.774361
| 30> C      -1.567489   -2.291777   -0.258286
| 31> O      -1.587468   -3.457462   -0.587534
| 32> C      -2.516749   -1.712198    0.798122
| 33> O      -3.164356   -2.427260    1.517551
| 34> H      -6.876429    0.610576    0.044609
| 35> H      -6.080837   -0.245286   -1.315117
| 36> H      -5.807861    1.502504   -1.082022
| 37> H      -3.897775   -0.249965    2.580576
| 38> H      -3.258364    1.360892    2.186936
| 39> H      -2.200154    0.143365    2.920320
| 40> H       1.432451    2.696124   -0.592383
| 41> H       0.616537    2.049797    0.845321
| 42> H      -0.338436    2.628866   -0.524761
| 43> H       1.424208    1.377523   -2.743334
| 44> H      -0.348175    1.366589   -2.676692
| 45> H       0.542322   -0.152807   -2.861136
| 46> H       2.389558    0.600536    0.265949
| 47> H       6.656921    0.485077    1.570905
| 48> H       7.233377   -1.141225    2.007018
| 49> H       5.839071   -0.416844    2.845035
| 50> H       0.014984   -1.747404   -1.419232
| 51> **                         ****END OF INPUT****

CARTESIAN COORDINATES (ANGSTROEM)
---------------------------------
  C     -5.985268    0.552192   -0.575793
  O     -4.892939    0.266198    0.312329
  C     -3.701335    0.121979   -0.227982
  C     -3.026472    0.299532    2.229543
  O     -3.457056    0.190794   -1.402942
  C     -2.618310   -0.197161    0.842557
  N     -1.420955    0.488138    0.414939
  C     -0.582081   -0.079356   -0.348877
  C      0.607717    0.721108   -0.861545
  C      0.580207    2.118599   -0.240524
  C      0.553814    0.827653   -2.390471
  N      1.860439    0.091221   -0.423045
  C      2.412582   -1.026555   -0.930032
  O      1.907826   -1.754657   -1.774189
  C      3.736682   -1.326715   -0.335424
  N      4.518761   -2.326318   -0.600771
  N      5.620587   -2.183549    0.186736
  C      5.444708   -1.105183    0.885320
  C      6.353940   -0.512373    1.889314
  O      4.271204   -0.515409    0.603372
  N     -0.689392   -1.392281   -0.774361
  C     -1.567489   -2.291777   -0.258286
  O     -1.587468   -3.457462   -0.587534
  C     -2.516749   -1.712198    0.798122
  O     -3.164356   -2.427260    1.517551
  H     -6.876429    0.610576    0.044609
  H     -6.080837   -0.245286   -1.315117
  H     -5.807861    1.502504   -1.082022
  H     -3.897775   -0.249965    2.580576
  H     -3.258364    1.360892    2.186936
  H     -2.200154    0.143365    2.920320
  H      1.432451    2.696124   -0.592383
  H      0.616537    2.049797    0.845321
  H     -0.338436    2.628866   -0.524761
  H      1.424208    1.377523   -2.743334
  H     -0.348175    1.366589   -2.676692
  H      0.542322   -0.152807   -2.861136
  H      2.389558    0.600536    0.265949
  H      6.656921    0.485077    1.570905
  H      7.233377   -1.141225    2.007018
  H      5.839071   -0.416844    2.845035
  H      0.014984   -1.747404   -1.419232

 Total Charge           Charge          ....    0
 Multiplicity           Mult            ....    1
 Number of Electrons    NEL             ....  184
 Basis Dimension        Dim             ....  615

ORBITAL ENERGIES
----------------

  NO   OCC          E(Eh)            E(eV)
   0   2.0000     -19.069231      -518.9001
   1   2.0000     -19.015023      -517.4251
   2   2.0000     -18.975269      -516.3433
   3   2.0000     -18.952953      -515.7361
   4   2.0000     -18.951359      -515.6927
   5   2.0000     -18.947838      -515.5969
   6   2.0000     -14.218879      -386.9154
   7   2.0000     -14.212551      -386.7432
   8   2.0000     -14.209197      -386.6519
   9   2.0000     -14.200326      -386.4105
  10   2.0000     -14.160689      -385.3319
  11   2.0000     -10.174319      -276.8573
  12   2.0000     -10.168874      -276.7091
  13   2.0000     -10.158913      -276.4381
  14   2.0000     -10.150575      -276.2112
  15   2.0000     -10.147481      -276.1270
  16   2.0000     -10.146776      -276.1078
  17   2.0000     -10.129172      -275.6288
  18   2.0000     -10.109620      -275.0967
  19   2.0000     -10.103925      -274.9418
  20   2.0000     -10.082253      -274.3521
  21   2.0000     -10.046651      -273.3833
  22   2.0000     -10.026339      -272.8306
  23   2.0000     -10.026273      -272.8288
  24   2.0000     -10.024565      -272.7823
  25   2.0000      -1.159030       -31.5388
  26   2.0000      -1.093123       -29.7454
  27   2.0000      -1.053677       -28.6720
  28   2.0000      -1.036760       -28.2117
  29   2.0000      -1.026851       -27.9420
  30   2.0000      -1.003365       -27.3029
  31   2.0000      -0.979569       -26.6554
  32   2.0000      -0.965587       -26.2750
  33   2.0000      -0.922483       -25.1020
  34   2.0000      -0.880375       -23.9562
  35   2.0000      -0.835501       -22.7351
  36   2.0000      -0.793854       -21.6019
  37   2.0000      -0.756264       -20.5790
  38   2.0000      -0.716077       -19.4854
  39   2.0000      -0.702368       -19.1124
  40   2.0000      -0.684841       -18.6355
  41   2.0000      -0.673298       -18.3214
  42   2.0000      -0.666231       -18.1291
  43   2.0000      -0.630147       -17.1472
  44   2.0000      -0.616527       -16.7766
  45   2.0000      -0.606880       -16.5140
  46   2.0000      -0.591217       -16.0878
  47   2.0000      -0.559870       -15.2348
  48   2.0000      -0.551239       -15.0000
  49   2.0000      -0.538980       -14.6664
  50   2.0000      -0.529012       -14.3952
  51   2.0000      -0.517438       -14.0802
  52   2.0000      -0.507272       -13.8036
  53   2.0000      -0.498209       -13.5570
  54   2.0000      -0.469977       -12.7887
  55   2.0000      -0.461399       -12.5553
  56   2.0000      -0.458608       -12.4794
  57   2.0000      -0.453219       -12.3327
  58   2.0000      -0.447592       -12.1796
  59   2.0000      -0.432684       -11.7739
  60   2.0000      -0.430271       -11.7083
  61   2.0000      -0.423849       -11.5335
  62   2.0000      -0.419947       -11.4273
  63   2.0000      -0.412775       -11.2322
  64   2.0000      -0.406887       -11.0720
  65   2.0000      -0.399381       -10.8677
  66   2.0000      -0.392467       -10.6796
  67   2.0000      -0.387353       -10.5404
  68   2.0000      -0.382966       -10.4210
  69   2.0000      -0.380682       -10.3589
  70   2.0000      -0.370114       -10.0713
  71   2.0000      -0.365253        -9.9390
  72   2.0000      -0.360995        -9.8232
  73   2.0000      -0.358094        -9.7442
  74   2.0000      -0.355703        -9.6792
  75   2.0000      -0.354876        -9.6567
  76   2.0000      -0.348035        -9.4705
  77   2.0000      -0.343545        -9.3483
  78   2.0000      -0.334215        -9.0945
  79   2.0000      -0.328283        -8.9330
  80   2.0000      -0.320155        -8.7119
  81   2.0000      -0.317110        -8.6290
  82   2.0000      -0.295698        -8.0464
  83   2.0000      -0.288115        -7.8400
  84   2.0000      -0.272337        -7.4107
  85   2.0000      -0.269722        -7.3395
  86   2.0000      -0.265210        -7.2167
  87   2.0000      -0.262439        -7.1413
  88   2.0000      -0.259473        -7.0606
  89   2.0000      -0.247497        -6.7347
  90   2.0000      -0.245801        -6.6886
  91   2.0000      -0.222274        -6.0484
  92   0.0000      -0.121389        -3.3032
  93   0.0000      -0.093572        -2.5462
  94   0.0000      -0.056077        -1.5259
  95   0.0000      -0.023335        -0.6350
  96   0.0000      -0.006919        -0.1883

MULLIKEN ATOMIC CHARGES
-----------------------
   0 C :   -0.318273
   1 O :   -0.139738
   2 C :    0.285175
   3 C :   -0.559840
   4 O :   -0.395588
   5 C :    0.154361
   6 N :   -0.200789
   7 C :    0.189069
   8 C :   -0.010124
   9 C :   -0.589689
  10 C :   -0.554770
  11 N :   -0.058320
  12 C :   -0.063201
  13 O :   -0.491054
  14 C :    0.385159
  15 N :   -0.171302
  16 N :   -0.274596
  17 C :    0.399825
  18 C :   -0.631500
  19 O :   -0.055643
  20 N :   -0.013351
  21 C :    0.051354
  22 O :   -0.362446
  23 C :    0.216013
  24 O :   -0.287726
  25 H :    0.182160
  26 H :    0.181590
  27 H :    0.181626
  28 H :    0.191612
  29 H :    0.189359
  30 H :    0.185647
  31 H :    0.187439
  32 H :    0.190751
  33 H :    0.199741
  34 H :    0.200081
  35 H :    0.192013
  36 H :    0.192571
  37 H :    0.325254
  38 H :    0.203128
  39 H :    0.205966
  40 H :    0.201990
  41 H :    0.286067
Sum of atomic charges:    0.0000000

LOEWDIN ATOMIC CHARGES
----------------------
   0 C :   -0.030868
   1 O :   -0.573036
   2 C :    0.403401
   3 C :   -0.321054
   4 O :   -0.386197
   5 C :    0.118323
   6 N :   -0.588585
   7 C :    0.362491
   8 C :    0.110913
   9 C :   -0.336374
  10 C :   -0.339362
  11 N :   -0.554011
  12 C :    0.387892
  13 O :   -0.483963
  14 C :    0.415327
  15 N :   -0.329032
  16 N :   -0.355189
  17 C :    0.382215
  18 C :   -0.316159
  19 O :   -0.392314
  20 N :   -0.459789
  21 C :    0.372474
  22 O :   -0.390170
  23 C :    0.329199
  24 O :   -0.382998
  25 H :    0.189482
  26 H :    0.185324
  27 H :    0.185510
  28 H :    0.183868
  29 H :    0.177752
  30 H :    0.174224
  31 H :    0.171019
  32 H :    0.178186
  33 H :    0.182122
  34 H :    0.178632
  35 H :    0.177056
  36 H :    0.181810
  37 H :    0.303600
  38 H :    0.193105
  39 H :    0.191777
  40 H :    0.192623
  41 H :    0.310774

  Mayer bond orders larger than 0.100000
B(  0-C ,  1-O ) :   0.8160 B(  0-C , 25-H ) :   0.9599 B(  0-C , 26-H ) :   0.9538
B(  0-C , 27-H ) :   0.9536 B(  1-O ,  2-C ) :   1.1589 B(  2-C ,  4-O ) :   1.8235
B(  2-C ,  5-C ) :   1.0017 B(  3-C ,  5-C ) :   0.8867 B(  3-C , 28-H ) :   0.9750
B(  3-C , 29-H ) :   0.9596 B(  3-C , 30-H ) :   0.9792 B(  5-C ,  6-N ) :   0.6769
B(  5-C , 23-C ) :   0.7648 B(  6-N ,  7-C ) :   1.9211 B(  7-C ,  8-C ) :   1.0251
B(  7-C , 20-N ) :   1.0279 B(  8-C ,  9-C ) :   0.9077 B(  8-C , 10-C ) :   0.8973
B(  8-C , 11-N ) :   0.8363 B(  9-C , 31-H ) :   0.9670 B(  9-C , 32-H ) :   0.9594
B(  9-C , 33-H ) :   0.9659 B( 10-C , 34-H ) :   0.9749 B( 10-C , 35-H ) :   0.9570
B( 10-C , 36-H ) :   0.9330 B( 11-N , 12-C ) :   1.1999 B( 11-N , 37-H ) :   0.8826
B( 12-C , 13-O ) :   1.7828 B( 12-C , 14-C ) :   0.8464 B( 14-C , 15-N ) :   1.7167
B( 14-C , 17-C ) :   0.1197 B( 14-C , 19-O ) :   1.0882 B( 15-N , 16-N ) :   1.2678
B( 16-N , 17-C ) :   1.6176 B( 17-C , 18-C ) :   0.8290 B( 17-C , 19-O ) :   1.0626
B( 18-C , 38-H ) :   0.9396 B( 18-C , 39-H ) :   0.9886 B( 18-C , 40-H ) :   0.9431
B( 20-N , 21-C ) :   1.0487 B( 20-N , 41-H ) :   0.8469 B( 21-C , 22-O ) :   2.0548
B( 21-C , 23-C ) :   0.8229 B( 23-C , 24-O ) :   2.0223

Dispersion correction           -0.019248264
FINAL SINGLE POINT ENERGY     -1268.650794085796

DIPOLE MOMENT
-------------
                                X             Y             Z
Electronic contribution:      4.26329     -15.60175      -1.53255
Nuclear contribution   :     -3.52001      20.57631       3.28332
                        -----------------------------------------
Total Dipole Moment    :      0.74328       4.97456       1.75077
                        -----------------------------------------
Magnitude (a.u.)       :      5.32578
Magnitude (Debye)      :     13.53705

Rotational constants in cm-1:     0.016504     0.003600     0.003483
Rotational constants in MHz :   494.779733   107.936074   104.419004

                             ****ORCA TERMINATED NORMALLY****
TOTAL RUN TIME: 0 days 0 hours 1 minutes 32 seconds 670 msec
