   * xtb version 6.5.1 (579679a) compiled by 'ehlert@majestix' on 2022-07-11
          program call               : /lustre/hpc/kemi/ree/PhD/git/ReactivityQM/dep/xtb-6.5.1/bin/xtb --gfn 1 /lustre/hpc/kemi/ree/PhD/git/ReactivityQM/calculations/R02oxygendeprot/reac01prodN09/conf03/R02oxygendeprot_reac01prodN09_conf03_gfn1.xyz --opt --vfukui --chrg 0 --uhf 0 --alpb DMSO

   ID    Z sym.   atoms
    1    6 C      1, 3, 4, 6, 8-11, 13, 15, 18, 19, 22, 24
    2    8 O      2, 5, 14, 20, 23, 25
    3    7 N      7, 12, 16, 17, 21
    4    1 H      26-42

      * Solvation model:               ALPB
        Solvent                        DMSO
        Solvent mass                       7.8130E+01 g/mol
          :  Hamiltonian                  GFN1-xTB          :
 * total energy  :   -82.8672063 Eh     change       -0.1693934E-10 Eh
 * total energy  :   -82.8804852 Eh     change       -0.1327887E-01 Eh
 * total energy  :   -82.8878937 Eh     change       -0.7408506E-02 Eh
 * total energy  :   -82.8904971 Eh     change       -0.2603396E-02 Eh
 * total energy  :   -82.8931555 Eh     change       -0.2658347E-02 Eh
 * total energy  :   -82.8958344 Eh     change       -0.2678906E-02 Eh
 * total energy  :   -82.8986509 Eh     change       -0.2816573E-02 Eh
 * total energy  :   -82.9018607 Eh     change       -0.3209750E-02 Eh
 * total energy  :   -82.9061042 Eh     change       -0.4243521E-02 Eh
 * total energy  :   -82.9115743 Eh     change       -0.5470067E-02 Eh
 * total energy  :   -83.0059569 Eh     change       -0.1617900E-04 Eh
 * total energy  :   -83.0059752 Eh     change       -0.1833365E-04 Eh
 * total energy  :   -83.0059938 Eh     change       -0.1855175E-04 Eh
 * total energy  :   -83.0060151 Eh     change       -0.2129031E-04 Eh
 * total energy  :   -83.0060324 Eh     change       -0.1736972E-04 Eh
 * total energy  :   -83.0060435 Eh     change       -0.1102926E-04 Eh
 * total energy  :   -83.0060538 Eh     change       -0.1036415E-04 Eh
 * total energy  :   -83.0060593 Eh     change       -0.5443511E-05 Eh
 * total energy  :   -83.0060633 Eh     change       -0.4000270E-05 Eh
   *** GEOMETRY OPTIMIZATION CONVERGED AFTER 84 ITERATIONS ***

 final structure:
================
42
 xtb: 6.5.1 (579679a)
C           -5.98526799923959        0.55219165036121       -0.57579311346939
O           -4.89293921386244        0.26619807324368        0.31232946200127
C           -3.70133456719527        0.12197881464427       -0.22798221214095
C           -3.02647221677362        0.29953195685369        2.22954309884533
O           -3.45705578287498        0.19079352284439       -1.40294237596172
C           -2.61830966958237       -0.19716059559104        0.84255667374570
N           -1.42095458262800        0.48813791653384        0.41493949649174
C           -0.58208092643245       -0.07935594193372       -0.34887726367120
C            0.60771741627052        0.72110799088620       -0.86154454964445
C            0.58020748387593        2.11859886878863       -0.24052380384113
C            0.55381383095623        0.82765290608729       -2.39047064516607
N            1.86043870068244        0.09122093474963       -0.42304483461230
C            2.41258200266466       -1.02655524593982       -0.93003244795551
O            1.90782588062457       -1.75465697570512       -1.77418880102616
C            3.73668182685210       -1.32671533096348       -0.33542363757636
N            4.51876063372876       -2.32631837012219       -0.60077073304445
N            5.62058694362152       -2.18354917850545        0.18673554316989
C            5.44470786196234       -1.10518262568274        0.88531951904321
C            6.35394049912237       -0.51237283648748        1.88931352406515
O            4.27120426186782       -0.51540903296698        0.60337225540421
N           -0.68939202855001       -1.39228135759781       -0.77436084237511
C           -1.56748857206097       -2.29177692977127       -0.25828556223081
O           -1.58746823203197       -3.45746208479326       -0.58753397914935
C           -2.51674882421613       -1.71219801349281        0.79812215648901
O           -3.16435597733617       -2.42725970667387        1.51755110322962
H           -6.87642855331605        0.61057623711532        0.04460859206246
H           -6.08083707363089       -0.24528601646844       -1.31511726272847
H           -5.80786149126281        1.50250441339917       -1.08202179203958
H           -3.89777487944681       -0.24996515258756        2.58057563190959
H           -3.25836421796408        1.36089247592084        2.18693636628883
H           -2.20015411865373        0.14336535058531        2.92032044863918
H            1.43245072448143        2.69612370576736       -0.59238294457452
H            0.61653713509035        2.04979714026106        0.84532098590869
H           -0.33843585037666        2.62886641425947       -0.52476097225847
H            1.42420750591010        1.37752317092927       -2.74333411065692
H           -0.34817478691791        1.36658860776136       -2.67669155785154
H            0.54232238537138       -0.15280748830585       -2.86113628171037
H            2.38955798921705        0.60053564632682        0.26594926005093
H            6.65692108092919        0.48507748300554        1.57090480246295
H            7.23337661488402       -1.14122530777065        2.00701835257853
H            5.83907133184535       -0.41684401015003        2.84503468691426
H            0.01498445439147       -1.74740407880982       -1.41923223561975

          :  Hamiltonian                  GFN1-xTB          :
         :: total energy             -83.006063276875 Eh    ::
         :: gradient norm              0.000453249602 Eh/a0 ::
         :: HOMO-LUMO gap              2.378352597310 eV    ::
         :: SCC energy               -83.791886570666 Eh    ::
         :: -> Gsolv                  -0.056106230555 Eh    ::
         :: repulsion energy           0.812570354102 Eh    ::

    * Orbital Energies and Occupations

         #    Occupation            Energy/Eh            Energy/eV
      -------------------------------------------------------------
         1        2.0000           -0.8680784             -23.6216
       ...           ...                  ...                  ...
        55        2.0000           -0.5109157             -13.9027
        56        2.0000           -0.5085398             -13.8381
        57        2.0000           -0.5075093             -13.8100
        58        2.0000           -0.5034404             -13.6993
        59        2.0000           -0.4900253             -13.3343
        60        2.0000           -0.4826160             -13.1326
        61        2.0000           -0.4738561             -12.8943
        62        2.0000           -0.4697842             -12.7835
        63        2.0000           -0.4611564             -12.5487
        64        2.0000           -0.4559513             -12.4071
        65        2.0000           -0.4549621             -12.3802
        66        2.0000           -0.4502405             -12.2517
        67        2.0000           -0.4377582             -11.9120 (HOMO)
        68                         -0.3503554              -9.5337 (LUMO)
        69                         -0.3154674              -8.5843
        70                         -0.2952802              -8.0350
        71                         -0.2688681              -7.3163
        72                         -0.2587417              -7.0407
        73                         -0.2211764              -6.0185
        74                         -0.2030456              -5.5252
        75                         -0.1466349              -3.9901
        76                         -0.1428143              -3.8862
        77                         -0.1292134              -3.5161
        78                         -0.1260545              -3.4301
       ...                                ...                  ...
       134                          0.7589442              20.6519
      -------------------------------------------------------------
                  HL-Gap            0.0874028 Eh            2.3784 eV

Wiberg/Mayer (AO) data.
largest (>0.10) Wiberg bond orders for each atom

     #   Z sym  total        # sym  WBO       # sym  WBO       # sym  WBO
 ---------------------------------------------------------------------------
     1   6 C    3.854 --    26 H    0.985    27 H    0.980    28 H    0.980
                             2 O    0.875
     2   8 O    2.230 --     3 C    1.155     1 C    0.875     5 O    0.139
     3   6 C    3.845 --     5 O    1.695     2 O    1.155     6 C    0.866
     4   6 C    3.985 --    30 H    0.985    31 H    0.984    29 H    0.982
                             6 C    0.982
     5   8 O    1.963 --     3 C    1.695     2 O    0.139
     6   6 C    3.964 --     4 C    0.982     7 N    0.981    24 C    0.948
                             3 C    0.866
     7   7 N    3.026 --     8 C    1.754     6 C    0.981
     8   6 C    3.928 --     7 N    1.754    21 N    1.083     9 C    0.965
     9   6 C    3.933 --    10 C    1.001    11 C    0.983     8 C    0.965
                            12 N    0.918
    10   6 C    3.990 --     9 C    1.001    32 H    0.984    33 H    0.983
                            34 H    0.982
    11   6 C    3.987 --    36 H    0.984     9 C    0.983    35 H    0.983
                            37 H    0.978
    12   7 N    3.353 --    13 C    1.271     9 C    0.918    38 H    0.890
                            14 O    0.175
    13   6 C    3.915 --    14 O    1.559    12 N    1.271    15 C    0.998
    14   8 O    1.914 --    13 C    1.559    12 N    0.175
    15   6 C    3.874 --    16 N    1.620    20 O    1.046    13 C    0.998
    16   7 N    3.001 --    15 C    1.620    17 N    1.201
    17   7 N    2.982 --    18 C    1.608    16 N    1.201
    18   6 C    3.867 --    17 N    1.608    20 O    1.072    19 C    1.032
    19   6 C    3.986 --    18 C    1.032    40 H    0.982    41 H    0.963
                            39 H    0.961
    20   8 O    2.316 --    18 C    1.072    15 C    1.046
    21   7 N    3.439 --    22 C    1.198     8 C    1.083    42 H    0.847
                            23 O    0.150
    22   6 C    3.897 --    23 O    1.663    21 N    1.198    24 C    0.907
    23   8 O    1.950 --    22 C    1.663    21 N    0.150
    24   6 C    3.845 --    25 O    1.809     6 C    0.948    22 C    0.907
    25   8 O    2.023 --    24 C    1.809
    26   1 H    1.008 --     1 C    0.985
    27   1 H    1.004 --     1 C    0.980
    28   1 H    1.003 --     1 C    0.980
    29   1 H    1.008 --     4 C    0.982
    30   1 H    1.003 --     4 C    0.985
    31   1 H    1.001 --     4 C    0.984
    32   1 H    0.998 --    10 C    0.984
    33   1 H    1.004 --    10 C    0.983
    34   1 H    1.007 --    10 C    0.982
    35   1 H    0.999 --    11 C    0.983
    36   1 H    1.000 --    11 C    0.984
    37   1 H    1.008 --    11 C    0.978
    38   1 H    0.935 --    12 N    0.890
    39   1 H    0.996 --    19 C    0.961
    40   1 H    0.998 --    19 C    0.982
    41   1 H    0.996 --    19 C    0.963
    42   1 H    0.930 --    21 N    0.847
 ---------------------------------------------------------------------------

           -------------------------------------------------
          | TOTAL ENERGY              -83.006063276875 Eh   |
          | GRADIENT NORM               0.000453249602 Eh/α |
          | HOMO-LUMO GAP               2.378352597310 eV   |
           -------------------------------------------------

 * finished run on 2023/06/21 at 17:25:14.757
