   * xtb version 6.5.1 (579679a) compiled by 'ehlert@majestix' on 2022-07-11
          program call               : /lustre/hpc/kemi/ree/PhD/git/ReactivityQM/dep/xtb-6.5.1/bin/xtb --gfn 1 /lustre/hpc/kemi/ree/PhD/git/ReactivityQM/calculations/R02oxygendeprot/reac01prodN13/conf06/R02oxygendeprot_reac01prodN13_conf06_gfn1.xyz --opt --vfukui --chrg 0 --uhf 0 --alpb DMSO

   ID    Z sym.   atoms
    1    6 C      1, 3, 5, 7-10, 12, 14, 17-19, 22, 24
    2    8 O      2, 4, 13, 20, 23, 25
    3    7 N      6, 11, 15, 16, 21
    4    1 H      26-42

      * Solvation model:               ALPB
        Solvent                        DMSO
        Solvent mass                       7.8130E+01 g/mol
          :  Hamiltonian                  GFN1-xTB          :
 * total energy  :   -82.9217903 Eh     change       -0.4547573E-08 Eh
 * total energy  :   -82.9329277 Eh     change       -0.1113745E-01 Eh
 * total energy  :   -82.9371367 Eh     change       -0.4208943E-02 Eh
 * total energy  :   -82.9376085 Eh     change       -0.4718464E-03 Eh
 * total energy  :   -82.9378287 Eh     change       -0.2201925E-03 Eh
 * total energy  :   -82.9379326 Eh     change       -0.1038565E-03 Eh
 * total energy  :   -82.9380457 Eh     change       -0.1131689E-03 Eh
 * total energy  :   -82.9381372 Eh     change       -0.9145498E-04 Eh
 * total energy  :   -82.9382010 Eh     change       -0.6381121E-04 Eh
 * total energy  :   -82.9382366 Eh     change       -0.3554995E-04 Eh
 * total energy  :   -82.9382632 Eh     change       -0.2660925E-04 Eh
 * total energy  :   -82.9382840 Eh     change       -0.2082445E-04 Eh
 * total energy  :   -82.9383132 Eh     change       -0.2920499E-04 Eh
 * total energy  :   -82.9383390 Eh     change       -0.2582233E-04 Eh
 * total energy  :   -82.9383718 Eh     change       -0.3277499E-04 Eh
 * total energy  :   -82.9384064 Eh     change       -0.3464788E-04 Eh
 * total energy  :   -82.9384189 Eh     change       -0.1243297E-04 Eh
 * total energy  :   -82.9384280 Eh     change       -0.9088581E-05 Eh
 * total energy  :   -82.9384322 Eh     change       -0.4264949E-05 Eh
   *** GEOMETRY OPTIMIZATION CONVERGED AFTER 19 ITERATIONS ***

 final structure:
================
42
 xtb: 6.5.1 (579679a)
C           -7.16683673719490        0.65423652146632        1.12223402866214
O           -5.98219537430265        0.88425958832014        0.35856396854950
C           -4.94239355104571        0.09397142903543        0.62981743533597
O           -4.98481655108415       -0.77972800338389        1.47250713411437
C           -3.73463997281641        0.37925400096589       -0.18612975073426
N           -2.69869905096445       -0.44185095672450        0.09385486955462
C           -1.55894631304315       -0.31701863694698       -0.51744158038352
C           -0.44142368223524       -1.28877608719970       -0.22316243340828
C           -0.71036875368823       -2.02757524691798        1.09096214849690
C           -0.34399760812100       -2.27031796310523       -1.40280572150767
N            0.80234630634928       -0.51547422114611       -0.10947702576646
C            2.01260727359007       -1.08986629891948        0.07110438565985
O            2.24907105062660       -2.28218505351719        0.07866299017289
C            3.06398797141378       -0.05504306126440        0.26891403728529
N            2.83293871476092        1.27043919203383        0.28377653489732
N            3.94146223737054        1.87555411235291        0.50621696510270
C            4.98948247133978        0.89861157815375        0.65501625622804
C            6.04498513853825        1.07345956149530       -0.43996464253898
C            5.59148870496555        0.97145704998399        2.06098339638932
O            4.31840685953801       -0.35064723394736        0.48288106771262
N           -1.35107901232307        0.63116173701295       -1.47057073146627
C           -2.31176482667803        1.54490663942933       -1.87410852909615
O           -2.04998381121815        2.36586490489430       -2.73068979825940
C           -3.65209909117984        1.42151975854363       -1.17584994446864
O           -4.55953242924318        2.19155256542289       -1.48291880898720
H           -7.89975801992456        1.38883852893379        0.79384819113359
H           -6.95842721672514        0.77770939003218        2.18798578474978
H           -7.53953875843620       -0.35757649377129        0.94470231910371
H           -1.65995561883053       -2.55520319056180        1.01673994456350
H           -0.76389060546790       -1.31633063127330        1.91327432130099
H            0.08564430239527       -2.74331609837688        1.28408606557617
H           -1.30965320631817       -2.75211317761334       -1.54787375084218
H            0.40494100518338       -3.03204559986571       -1.19858082725121
H           -0.07182628068603       -1.73529721267015       -2.31006411419538
H            0.73708898697117        0.48553075859194       -0.00387569052051
H            6.78594615077070        0.28280213491701       -0.35085822167930
H            6.52312484210919        2.04245537353368       -0.32175619573061
H            5.56712255543467        1.01722616914639       -1.41530654886757
H            6.32952634659012        0.18104827542962        2.17490797650626
H            6.06524031767462        1.94045964354671        2.19517735300775
H            4.80247365334162        0.84352047069358        2.79884263934327
H           -0.45605841743205        0.69452578327257       -1.92900449774073

          :  Hamiltonian                  GFN1-xTB          :
         :: total energy             -82.938432232548 Eh    ::
         :: gradient norm              0.000648251987 Eh/a0 ::
         :: HOMO-LUMO gap              0.045912870201 eV    ::
         :: SCC energy               -83.705281200645 Eh    ::
         :: -> Gsolv                  -0.068851659338 Eh    ::
         :: repulsion energy           0.792173569466 Eh    ::

    * Orbital Energies and Occupations

         #    Occupation            Energy/Eh            Energy/eV
      -------------------------------------------------------------
         1        2.0000           -0.8824666             -24.0131
       ...           ...                  ...                  ...
        55        2.0000           -0.5145579             -14.0018
        56        2.0000           -0.5112059             -13.9106
        57        2.0000           -0.5083544             -13.8330
        58        2.0000           -0.5039189             -13.7123
        59        2.0000           -0.4914101             -13.3720
        60        2.0000           -0.4874712             -13.2648
        61        2.0000           -0.4832113             -13.1488
        62        2.0000           -0.4747541             -12.9187
        63        2.0000           -0.4696944             -12.7810
        64        2.0000           -0.4694257             -12.7737
        65        2.0000           -0.4609362             -12.5427
        66        2.0000           -0.4246893             -11.5564
        67        1.4170           -0.4082731             -11.1097 (HOMO)
        68        0.5830           -0.4065858             -11.0638 (LUMO)
        69                         -0.3252730              -8.8511
        70                         -0.3108738              -8.4593
        71                         -0.2853664              -7.7652
        72                         -0.2359453              -6.4204
        73                         -0.2243765              -6.1056
        74                         -0.1575278              -4.2865
        75                         -0.1440482              -3.9198
        76                         -0.1385037              -3.7689
        77                         -0.1347347              -3.6663
        78                         -0.1344223              -3.6578
       ...                                ...                  ...
       134                          0.7457206              20.2921
      -------------------------------------------------------------
                  HL-Gap            0.0016873 Eh            0.0459 eV

Wiberg/Mayer (AO) data.
largest (>0.10) Wiberg bond orders for each atom

     #   Z sym  total        # sym  WBO       # sym  WBO       # sym  WBO
 ---------------------------------------------------------------------------
     1   6 C    3.875 --    26 H    0.986    27 H    0.979    28 H    0.979
                             2 O    0.902
     2   8 O    2.193 --     3 C    1.108     1 C    0.902     4 O    0.131
     3   6 C    3.842 --     4 O    1.632     2 O    1.108     5 C    1.024
     4   8 O    1.877 --     3 C    1.632     2 O    0.131
     5   6 C    3.712 --     6 N    1.290    24 C    1.167     3 C    1.024
     6   7 N    2.988 --     7 C    1.486     5 C    1.290
     7   6 C    3.791 --     6 N    1.486    21 N    1.183     8 C    0.987
     8   6 C    3.923 --     7 C    0.987     9 C    0.986    10 C    0.968
                            11 N    0.917
     9   6 C    3.982 --     8 C    0.986    30 H    0.985    31 H    0.982
                            29 H    0.982
    10   6 C    3.973 --    34 H    0.984    32 H    0.984    33 H    0.976
                             8 C    0.968
    11   7 N    3.321 --    12 C    1.243     8 C    0.917    35 H    0.890
                            13 O    0.188
    12   6 C    3.910 --    13 O    1.599    11 N    1.243    14 C    0.985
    13   8 O    1.909 --    12 C    1.599    11 N    0.188
    14   6 C    3.636 --    15 N    1.305    20 O    1.200    12 C    0.985
    15   7 N    3.013 --    16 N    1.541    14 C    1.305
    16   7 N    2.689 --    15 N    1.541    17 C    1.023
    17   6 C    3.836 --    16 N    1.023    18 C    0.937    19 C    0.937
                            20 O    0.877
    18   6 C    3.936 --    38 H    0.982    37 H    0.982    36 H    0.980
                            17 C    0.937
    19   6 C    3.936 --    41 H    0.982    40 H    0.982    39 H    0.980
                            17 C    0.937
    20   8 O    2.218 --    14 C    1.200    17 C    0.877
    21   7 N    3.420 --     7 C    1.183    22 C    1.106    42 H    0.883
                            23 O    0.113
    22   6 C    3.839 --    23 O    1.653    21 N    1.106    24 C    0.949
    23   8 O    1.875 --    22 C    1.653    21 N    0.113
    24   6 C    3.867 --    25 O    1.612     5 C    1.167    22 C    0.949
    25   8 O    1.792 --    24 C    1.612
    26   1 H    1.011 --     1 C    0.986
    27   1 H    1.007 --     1 C    0.979
    28   1 H    1.007 --     1 C    0.979
    29   1 H    1.009 --     9 C    0.982
    30   1 H    1.003 --     9 C    0.985
    31   1 H    1.005 --     9 C    0.982
    32   1 H    0.999 --    10 C    0.984
    33   1 H    1.007 --    10 C    0.976
    34   1 H    1.000 --    10 C    0.984
    35   1 H    0.946 --    11 N    0.890
    36   1 H    0.996 --    18 C    0.980
    37   1 H    0.997 --    18 C    0.982
    38   1 H    0.996 --    18 C    0.982
    39   1 H    0.996 --    19 C    0.980
    40   1 H    0.997 --    19 C    0.982
    41   1 H    0.996 --    19 C    0.982
    42   1 H    0.928 --    21 N    0.883
 ---------------------------------------------------------------------------

           -------------------------------------------------
          | TOTAL ENERGY              -82.938432232548 Eh   |
          | GRADIENT NORM               0.000648251987 Eh/α |
          | HOMO-LUMO GAP               0.045912870201 eV   |
           -------------------------------------------------

 * finished run on 2023/06/21 at 17:29:06.714
