   * xtb version 6.5.1 (579679a) compiled by 'ehlert@majestix' on 2022-07-11
          program call               : /lustre/hpc/kemi/ree/PhD/git/ReactivityQM/dep/xtb-6.5.1/bin/xtb --gfn 1 /lustre/hpc/kemi/ree/PhD/git/ReactivityQM/calculations/R01/reac01prodE06/conf08/R01_reac01prodE06_conf08_gfn1.xyz --opt --vfukui --chrg -1 --uhf 0 --alpb DMSO

   ID    Z sym.   atoms
    1    6 C      1, 3, 5, 8-10
    2    8 O      2, 4, 11
    3    7 N      6, 7
    4    1 H      12-20

      * Solvation model:               ALPB
        Solvent                        DMSO
        Solvent mass                       7.8130E+01 g/mol
          :  Hamiltonian                  GFN1-xTB          :
 * total energy  :   -38.3475934 Eh     change       -0.3097966E-11 Eh
 * total energy  :   -38.3538952 Eh     change       -0.6301814E-02 Eh
 * total energy  :   -38.3553771 Eh     change       -0.1481942E-02 Eh
 * total energy  :   -38.3555975 Eh     change       -0.2203703E-03 Eh
 * total energy  :   -38.3558307 Eh     change       -0.2332116E-03 Eh
 * total energy  :   -38.3558707 Eh     change       -0.4004804E-04 Eh
 * total energy  :   -38.3558945 Eh     change       -0.2375087E-04 Eh
 * total energy  :   -38.3559072 Eh     change       -0.1270592E-04 Eh
 * total energy  :   -38.3559098 Eh     change       -0.2564159E-05 Eh
   *** GEOMETRY OPTIMIZATION CONVERGED AFTER 9 ITERATIONS ***

 final structure:
================
20
 xtb: 6.5.1 (579679a)
C            3.80030676840445        0.70917404507640        0.41584952835893
O            2.39199934617576        0.60475095403156        0.30967503331681
C            1.91429714362956       -0.67676553346803        0.07378891314321
O            2.70223386394176       -1.63062697371001       -0.03353693955056
C            0.51543383223012       -0.74901511523963       -0.02389487076565
N           -0.18920214729632       -1.85587580278496       -0.25265040670947
N           -1.45547310453824       -1.60381677974068       -0.29418472291240
C           -1.63492067238735       -0.15916842729972       -0.06779688147242
C           -2.47532726694320        0.06332851573689        1.19965512623688
C           -2.31053077958192        0.47487324654217       -1.29410575916038
O           -0.32933416331434        0.37017942317833        0.10585191484224
H            4.29149275805234        0.38277181549831       -0.50827215684991
H            4.03243543073500        1.75867946271101        0.59896058536474
H            4.18001114667994        0.10164050814883        1.24575683781297
H           -3.45254877972028       -0.39919233499530        1.07753881573515
H           -2.60096571454502        1.12821125164701        1.38683645619700
H           -1.97021953598424       -0.39016750154250        2.05106080368004
H           -1.68362855519380        0.31949334739029       -2.17087035011715
H           -3.27890179441615        0.00791530205513       -1.46115304632264
H           -2.44715977592793        1.54360959676482       -1.13954688082750

          :  Hamiltonian                  GFN1-xTB          :
         :: total energy             -38.355909767943 Eh    ::
         :: gradient norm              0.000469894734 Eh/a0 ::
         :: HOMO-LUMO gap              2.132756464488 eV    ::
         :: SCC energy               -38.663766160861 Eh    ::
         :: -> Gsolv                  -0.097378872817 Eh    ::
         :: repulsion energy           0.316317493183 Eh    ::

    * Orbital Energies and Occupations

         #    Occupation            Energy/Eh            Energy/eV
      -------------------------------------------------------------
         1        2.0000           -0.7789948             -21.1975
       ...           ...                  ...                  ...
        19        2.0000           -0.5077036             -13.8153
        20        2.0000           -0.4954114             -13.4808
        21        2.0000           -0.4864376             -13.2366
        22        2.0000           -0.4842115             -13.1761
        23        2.0000           -0.4746404             -12.9156
        24        2.0000           -0.4715518             -12.8316
        25        2.0000           -0.4500349             -12.2461
        26        2.0000           -0.4491246             -12.2213
        27        2.0000           -0.4390497             -11.9471
        28        2.0000           -0.4219473             -11.4818
        29        2.0000           -0.4141418             -11.2694
        30        2.0000           -0.3745030             -10.1907
        31        2.0000           -0.3214716              -8.7477 (HOMO)
        32                         -0.2430942              -6.6149 (LUMO)
        33                         -0.1279149              -3.4807
        34                         -0.1146941              -3.1210
        35                         -0.1057435              -2.8774
        36                         -0.0998317              -2.7166
        37                         -0.0589812              -1.6050
        38                         -0.0527119              -1.4344
        39                         -0.0514918              -1.4012
        40                         -0.0474813              -1.2920
        41                         -0.0294953              -0.8026
        42                         -0.0273714              -0.7448
       ...                                ...                  ...
        62                          0.7092580              19.2999
      -------------------------------------------------------------
                  HL-Gap            0.0783774 Eh            2.1328 eV

Wiberg/Mayer (AO) data.
largest (>0.10) Wiberg bond orders for each atom

     #   Z sym  total        # sym  WBO       # sym  WBO       # sym  WBO
 ---------------------------------------------------------------------------
     1   6 C    3.909 --    13 H    0.987    14 H    0.981    12 H    0.981
                             2 O    0.939
     2   8 O    2.103 --     3 C    0.975     1 C    0.939
     3   6 C    3.883 --     4 O    1.474     5 C    1.252     2 O    0.975
                             7 N    0.105
     4   8 O    1.789 --     3 C    1.474
     5   6 C    3.847 --     6 N    1.367     3 C    1.252    11 O    0.931
                             7 N    0.150
     6   7 N    3.025 --     7 N    1.504     5 C    1.367
     7   7 N    2.899 --     6 N    1.504     8 C    0.978     5 C    0.150
                             3 C    0.105
     8   6 C    3.901 --     9 C    0.978    10 C    0.978     7 N    0.978
                            11 O    0.928
     9   6 C    3.993 --    15 H    0.988    16 H    0.986    17 H    0.985
                             8 C    0.978
    10   6 C    3.993 --    19 H    0.988    20 H    0.986    18 H    0.985
                             8 C    0.978
    11   8 O    2.049 --     5 C    0.931     8 C    0.928
    12   1 H    1.016 --     1 C    0.981
    13   1 H    1.018 --     1 C    0.987
    14   1 H    1.016 --     1 C    0.981
    15   1 H    1.010 --     9 C    0.988
    16   1 H    1.008 --     9 C    0.986
    17   1 H    1.014 --     9 C    0.985
    18   1 H    1.014 --    10 C    0.985
    19   1 H    1.010 --    10 C    0.988
    20   1 H    1.008 --    10 C    0.986
 ---------------------------------------------------------------------------

           -------------------------------------------------
          | TOTAL ENERGY              -38.355909767943 Eh   |
          | GRADIENT NORM               0.000469894734 Eh/α |
          | HOMO-LUMO GAP               2.132756464488 eV   |
           -------------------------------------------------

 * finished run on 2023/06/20 at 14:54:20.154
