   * xtb version 6.5.1 (579679a) compiled by 'ehlert@majestix' on 2022-07-11
          program call               : /lustre/hpc/kemi/ree/PhD/git/ReactivityQM/dep/xtb-6.5.1/bin/xtb --gfn 1 /lustre/hpc/kemi/ree/PhD/git/ReactivityQM/calculations/RaltegravirCLI/reac02prodN14/conf03/RaltegravirCLI_reac02prodN14_conf03_gfn1.xyz --opt --vfukui --chrg 1 --uhf 0 --alpb DMSO

   ID    Z sym.   atoms
    1    6 C      1-3, 5, 7, 8, 11-15, 17-19, 21, 24, 25
    2    7 N      4, 6, 10, 23
    3    8 O      9, 20, 22
    4    9 F      16
    5    1 H      26-47

      * Solvation model:               ALPB
        Solvent                        DMSO
        Solvent mass                       7.8130E+01 g/mol
          :  Hamiltonian                  GFN1-xTB          :
 * total energy  :   -79.4639592 Eh     change       -0.7717915E-10 Eh
 * total energy  :   -79.4761979 Eh     change       -0.1223871E-01 Eh
 * total energy  :   -79.4804632 Eh     change       -0.4265300E-02 Eh
 * total energy  :   -79.4813290 Eh     change       -0.8658057E-03 Eh
 * total energy  :   -79.4818024 Eh     change       -0.4734190E-03 Eh
 * total energy  :   -79.4819979 Eh     change       -0.1955554E-03 Eh
 * total energy  :   -79.4821221 Eh     change       -0.1241465E-03 Eh
 * total energy  :   -79.4821896 Eh     change       -0.6751612E-04 Eh
 * total energy  :   -79.4822206 Eh     change       -0.3100510E-04 Eh
 * total energy  :   -79.4822398 Eh     change       -0.1916991E-04 Eh
 * total energy  :   -79.4822594 Eh     change       -0.1957477E-04 Eh
 * total energy  :   -79.4822710 Eh     change       -0.1161885E-04 Eh
 * total energy  :   -79.4822875 Eh     change       -0.1650751E-04 Eh
 * total energy  :   -79.4822933 Eh     change       -0.5784209E-05 Eh
 * total energy  :   -79.4822954 Eh     change       -0.2157136E-05 Eh
 * total energy  :   -79.4822989 Eh     change       -0.3427124E-05 Eh
   *** GEOMETRY OPTIMIZATION CONVERGED AFTER 16 ITERATIONS ***

 final structure:
================
47
 xtb: 6.5.1 (579679a)
C           -2.66490343523213        0.82771423148165        2.16769286933416
C           -3.31347436286688        0.38288286321575        0.84500218008232
C           -4.05937210316722       -0.94584225078358        1.05820871777712
N           -4.25469608408674        1.39213332683559        0.38531265391215
C           -2.20215645839389        0.12363977023162       -0.15697481846869
N           -1.14648150106379       -0.42668584757161        0.26247715255437
C           -0.05722468949874       -0.78838822119044       -0.50350371421359
C            1.07140150716432       -1.35133342706148        0.32626608245205
O            0.91509310559989       -1.55922320086720        1.51920491156372
N            2.21452427858304       -1.59548646728795       -0.33134536230260
C            3.39633410877915       -2.08169380844391        0.37784959315415
C            4.30831462702556       -0.93236632643647        0.75186477464981
C            5.58350306010066       -0.83791757907450        0.20112458517311
C            6.42373102229295        0.21433416144440        0.54001990472079
C            5.95816001181010        1.16413126467541        1.43074370767281
F            6.76180393589046        2.18586208406126        1.76187548143452
C            4.69539891536566        1.10271919365478        1.99376223241990
C            3.87116912962093        0.04228594252731        1.64798670035864
C           -0.11975549130179       -0.65050171678449       -1.85589402684231
O            0.85155041772561       -1.04786364352164       -2.68734254609826
C           -1.27894125630953       -0.06374716182321       -2.50053098450480
O           -1.41189375899398        0.06418318536129       -3.68400208736451
N           -2.35474921001132        0.49085802924228       -1.60188052899281
C           -2.20622142817913        1.97685707548196       -1.73233018840709
C           -3.66563511099506        0.05032042007158       -2.16559607960313
H           -2.09930934243265        1.74505103519040        2.01414538131130
H           -1.99366625211051        0.05423129721838        2.53923702982351
H           -3.44666687137832        1.01051967523249        2.90212045101694
H           -4.77701739417381       -0.82357048300835        1.86797805890624
H           -4.59492519790682       -1.23428901643938        0.15628613236084
H           -3.35441700305747       -1.73313608763985        1.32198792183964
H           -3.97968939060305        2.30368440621602        0.72605660778739
H           -5.17570213367140        1.19710372026004        0.75309629624608
H            2.32324316354989       -1.34508763082932       -1.29830588409248
H            3.05251081919287       -2.60584586910637        1.27553925505327
H            3.91424298404919       -2.78791706468520       -0.27504690481151
H            5.92699292011916       -1.59014631200963       -0.49907828092620
H            7.41686017655937        0.29821700446150        0.11814215589319
H            4.36676151489814        1.86790227528810        2.68496740093312
H            2.87898450987932       -0.02719823123553        2.07752406104798
H            0.63086551973936       -0.86053325563665       -3.61574217145632
H           -3.05335161978976        2.44137784818678       -1.24006796996359
H           -1.27096414813992        2.27308090939783       -1.26416939169148
H           -2.20211684968834        2.21799181429829       -2.79279946053450
H           -3.73673361656230       -1.02915154942743       -2.06355726090577
H           -4.45454264618876        0.55331907091782       -1.61459908697489
H           -3.68683737213887        0.33752254590722       -3.21412255132934

          :  Hamiltonian                  GFN1-xTB          :
         :: total energy             -79.482298855743 Eh    ::
         :: gradient norm              0.000649207212 Eh/a0 ::
         :: HOMO-LUMO gap              1.283339905457 eV    ::
         :: SCC energy               -80.381542614459 Eh    ::
         :: -> Gsolv                  -0.114105002845 Eh    ::
         :: repulsion energy           0.930660164009 Eh    ::

    * Orbital Energies and Occupations

         #    Occupation            Energy/Eh            Energy/eV
      -------------------------------------------------------------
         1        2.0000           -0.8927280             -24.2924
       ...           ...                  ...                  ...
        55        2.0000           -0.5195626             -14.1380
        56        2.0000           -0.5151514             -14.0180
        57        2.0000           -0.5129666             -13.9585
        58        2.0000           -0.5077967             -13.8179
        59        2.0000           -0.5070865             -13.7985
        60        2.0000           -0.4872119             -13.2577
        61        2.0000           -0.4784321             -13.0188
        62        2.0000           -0.4757300             -12.9453
        63        2.0000           -0.4706502             -12.8070
        64        2.0000           -0.4567175             -12.4279
        65        2.0000           -0.4547521             -12.3744
        66        2.0000           -0.4419734             -12.0267
        67        2.0000           -0.4378629             -11.9149 (HOMO)
        68                         -0.3907010             -10.6315 (LUMO)
        69                         -0.3193143              -8.6890
        70                         -0.2792616              -7.5991
        71                         -0.2782889              -7.5726
        72                         -0.2715893              -7.3903
        73                         -0.2006054              -5.4588
        74                         -0.1635175              -4.4495
        75                         -0.1580681              -4.3013
        76                         -0.1511615              -4.1133
        77                         -0.1391818              -3.7873
        78                         -0.1341576              -3.6506
       ...                                ...                  ...
       144                          0.7103484              19.3296
      -------------------------------------------------------------
                  HL-Gap            0.0471619 Eh            1.2833 eV

Wiberg/Mayer (AO) data.
largest (>0.10) Wiberg bond orders for each atom

     #   Z sym  total        # sym  WBO       # sym  WBO       # sym  WBO
 ---------------------------------------------------------------------------
     1   6 C    3.988 --    26 H    0.985    28 H    0.983    27 H    0.981
                             2 C    0.975
     2   6 C    3.958 --     4 N    0.993     5 C    0.983     1 C    0.975
                             3 C    0.965
     3   6 C    3.986 --    31 H    0.984    30 H    0.983    29 H    0.978
                             2 C    0.965
     4   7 N    2.996 --     2 C    0.993    32 H    0.931    33 H    0.928
     5   6 C    3.888 --     6 N    1.776     2 C    0.983    23 N    0.868
     6   7 N    3.089 --     5 C    1.776     7 C    1.117
     7   6 C    3.954 --    19 C    1.532     6 N    1.117     8 C    0.976
     8   6 C    3.919 --     9 O    1.581    10 N    1.285     7 C    0.976
     9   8 O    1.897 --     8 C    1.581    10 N    0.187
    10   7 N    3.379 --     8 C    1.285    11 C    0.934    34 H    0.885
                             9 O    0.187
    11   6 C    3.937 --    12 C    0.992    36 H    0.975    35 H    0.965
                            10 N    0.934
    12   6 C    3.987 --    13 C    1.423    18 C    1.413    11 C    0.992
    13   6 C    3.993 --    14 C    1.439    12 C    1.423    37 H    0.970
                            17 C    0.109
    14   6 C    3.991 --    13 C    1.439    15 C    1.403    38 H    0.969
                            18 C    0.111
    15   6 C    3.862 --    14 C    1.403    17 C    1.396    16 F    0.928
    16   9 F    1.057 --    15 C    0.928
    17   6 C    3.992 --    18 C    1.449    15 C    1.396    39 H    0.969
                            13 C    0.109
    18   6 C    3.993 --    17 C    1.449    12 C    1.413    40 H    0.970
                            14 C    0.111
    19   6 C    3.925 --     7 C    1.532    20 O    1.096    21 C    1.075
    20   8 O    2.089 --    19 C    1.096    41 H    0.790
    21   6 C    3.870 --    22 O    1.754    19 C    1.075    23 N    0.861
    22   8 O    2.048 --    21 C    1.754
    23   7 N    3.622 --    25 C    0.880    24 C    0.869     5 C    0.868
                            21 C    0.861
    24   6 C    3.877 --    43 H    0.982    44 H    0.977    42 H    0.971
                            23 N    0.869
    25   6 C    3.875 --    45 H    0.982    47 H    0.976    46 H    0.968
                            23 N    0.880
    26   1 H    1.001 --     1 C    0.985
    27   1 H    1.009 --     1 C    0.981
    28   1 H    1.000 --     1 C    0.983
    29   1 H    0.996 --     3 C    0.978
    30   1 H    1.000 --     3 C    0.983
    31   1 H    1.001 --     3 C    0.984
    32   1 H    0.949 --     4 N    0.931
    33   1 H    0.943 --     4 N    0.928
    34   1 H    0.938 --    10 N    0.885
    35   1 H    1.008 --    11 C    0.965
    36   1 H    1.001 --    11 C    0.975
    37   1 H    0.999 --    13 C    0.970
    38   1 H    0.997 --    14 C    0.969
    39   1 H    0.998 --    17 C    0.969
    40   1 H    1.006 --    18 C    0.970
    41   1 H    0.818 --    20 O    0.790
    42   1 H    1.007 --    24 C    0.971
    43   1 H    0.992 --    24 C    0.982
    44   1 H    0.994 --    24 C    0.977
    45   1 H    0.995 --    25 C    0.982
    46   1 H    1.017 --    25 C    0.968
    47   1 H    0.997 --    25 C    0.976
 ---------------------------------------------------------------------------

           -------------------------------------------------
          | TOTAL ENERGY              -79.482298855743 Eh   |
          | GRADIENT NORM               0.000649207212 Eh/α |
          | HOMO-LUMO GAP               1.283339905457 eV   |
           -------------------------------------------------

 * finished run on 2023/06/20 at 15:35:56.049
