   * xtb version 6.5.1 (579679a) compiled by 'ehlert@majestix' on 2022-07-11
          program call               : /lustre/hpc/kemi/ree/PhD/git/ReactivityQM/dep/xtb-6.5.1/bin/xtb --gfn 1 /lustre/hpc/kemi/ree/PhD/git/ReactivityQM/calculations/R02deprot/reac01prodE05/conf11/R02deprot_reac01prodE05_conf11_gfn1.xyz --opt --vfukui --chrg -2 --uhf 0 --alpb DMSO

   ID    Z sym.   atoms
    1    6 C      1, 3, 5, 6, 8, 11-14, 16, 18, 21, 22, 25
    2    8 O      2, 4, 7, 9, 17, 23
    3    7 N      10, 15, 19, 20, 24
    4    1 H      26-42

      * Solvation model:               ALPB
        Solvent                        DMSO
        Solvent mass                       7.8130E+01 g/mol
          :  Hamiltonian                  GFN1-xTB          :
 * total energy  :   -83.5600914 Eh     change       -0.1269314E-09 Eh
 * total energy  :   -83.5740983 Eh     change       -0.1400695E-01 Eh
 * total energy  :   -83.5795840 Eh     change       -0.5485681E-02 Eh
 * total energy  :   -83.5806546 Eh     change       -0.1070606E-02 Eh
 * total energy  :   -83.5813277 Eh     change       -0.6731033E-03 Eh
 * total energy  :   -83.5816188 Eh     change       -0.2911182E-03 Eh
 * total energy  :   -83.5818739 Eh     change       -0.2551129E-03 Eh
 * total energy  :   -83.5820749 Eh     change       -0.2009745E-03 Eh
 * total energy  :   -83.5822615 Eh     change       -0.1866008E-03 Eh
 * total energy  :   -83.5824190 Eh     change       -0.1575304E-03 Eh
 * total energy  :   -83.5834608 Eh     change       -0.2226216E-04 Eh
 * total energy  :   -83.5834729 Eh     change       -0.1205760E-04 Eh
 * total energy  :   -83.5834795 Eh     change       -0.6660127E-05 Eh
 * total energy  :   -83.5834904 Eh     change       -0.1085790E-04 Eh
 * total energy  :   -83.5834997 Eh     change       -0.9300783E-05 Eh
 * total energy  :   -83.5835127 Eh     change       -0.1306839E-04 Eh
 * total energy  :   -83.5835218 Eh     change       -0.9095353E-05 Eh
 * total energy  :   -83.5835291 Eh     change       -0.7289595E-05 Eh
 * total energy  :   -83.5835336 Eh     change       -0.4496588E-05 Eh
   *** GEOMETRY OPTIMIZATION CONVERGED AFTER 39 ITERATIONS ***

 final structure:
================
42
 xtb: 6.5.1 (579679a)
C           -2.94551875820321       -2.33942582840054        2.58851573642409
O           -2.47447767291550       -1.44827994282950        1.59866900547980
C           -3.36456873751522       -0.39094842594935        1.29492752332523
O           -4.43869883721810       -0.32553679744847        1.92950883624478
C           -2.91685447394371        0.46946057997094        0.27743293740718
C           -3.57541432476213        1.66374593827131       -0.11515374299467
O           -4.87189458634247        1.92753111725669        0.28977215388269
C           -2.95835351253201        2.65119672247040       -0.89740390345128
O           -3.56177614575484        3.70699738570119       -1.26698327734736
N           -1.60129260798513        2.44955365935158       -1.21500138608119
C           -1.03471164991240        1.31300239678741       -0.99631238005747
C            0.43828581881002        1.22370392495090       -1.41424233065979
C            1.12200078575995        2.55677685405246       -1.04753834172122
C            0.51084670680954        1.02069069579043       -2.93667166329513
N            1.07943253119255        0.12385053753164       -0.69636863218021
C            2.46535838898116       -0.09060862108162       -0.80740313022881
O            3.13260126356600        0.24320520508548       -1.81200694764875
C            2.97290314166756       -0.78205978947559        0.33135143132639
N            2.27642195247006       -1.11913126282411        1.42509699499195
N            3.15878518284859       -1.73160803720382        2.27262173471518
C            4.31184225410223       -1.74237081395767        1.68930477196480
C            5.57962794511588       -2.29781647204167        2.22615627539269
O            4.29535605566020       -1.16693270372836        0.46172912773199
N           -1.64480391073182        0.24011604589936       -0.37473264743208
C           -1.42880710453667       -1.11688655020395       -0.89423912919580
H           -2.18931055816169       -3.11544663903807        2.71922661347368
H           -3.10507994867283       -1.82740931678250        3.54651228996964
H           -3.89119866453222       -2.80806699620607        2.28724802831049
H           -5.09308623148967        2.78926580503300       -0.10848520361930
H            0.59651625278573        3.38206852925860       -1.52731494406566
H            2.15820729981758        2.55315532065581       -1.38244581217537
H            1.09796761527238        2.70594174799822        0.03215648006352
H           -0.12306177760182        1.76197180363272       -3.42345938904517
H            0.16410423040370        0.02615430448683       -3.21384392847533
H            1.53157584459940        1.14184219708847       -3.29521565883655
H            0.76916082954223        0.05996294658291        0.27085742611126
H            5.40288740908438       -2.71189514734553        3.21622867992733
H            5.96037941469444       -3.08205698287121        1.57123319731629
H            6.33913931898479       -1.51774957702285        2.29315375007513
H           -2.39672939719631       -1.60383145155749       -1.03154828426573
H           -0.91868274772634       -1.07859878929987       -1.85562588277354
H           -0.82907859443717       -1.71353357258959       -0.20445937858367

          :  Hamiltonian                  GFN1-xTB          :
         :: total energy             -83.583533629550 Eh    ::
         :: gradient norm              0.000707001919 Eh/a0 ::
         :: HOMO-LUMO gap              0.038746259512 eV    ::
         :: SCC energy               -84.306080117236 Eh    ::
         :: -> Gsolv                  -0.261889073942 Eh    ::
         :: repulsion energy           0.749515034488 Eh    ::

    * Orbital Energies and Occupations

         #    Occupation            Energy/Eh            Energy/eV
      -------------------------------------------------------------
         1        2.0000           -0.7986636             -21.7327
       ...           ...                  ...                  ...
        56        2.0000           -0.4346045             -11.8262
        57        2.0000           -0.4288217             -11.6688
        58        2.0000           -0.4273137             -11.6278
        59        2.0000           -0.4064159             -11.0591
        60        2.0000           -0.4026798             -10.9575
        61        2.0000           -0.3999429             -10.8830
        62        2.0000           -0.3988240             -10.8526
        63        2.0000           -0.3952368             -10.7549
        64        2.0000           -0.3904492             -10.6247
        65        2.0000           -0.3839759             -10.4485
        66        2.0000           -0.3554528              -9.6724
        67        2.0000           -0.3504797              -9.5370
        68        1.3581           -0.2669698              -7.2646 (HOMO)
        69        0.6419           -0.2655459              -7.2259 (LUMO)
        70                         -0.2229162              -6.0659
        71                         -0.2082377              -5.6664
        72                         -0.1540062              -4.1907
        73                         -0.1384833              -3.7683
        74                         -0.1238834              -3.3710
        75                         -0.1099252              -2.9912
        76                         -0.1066651              -2.9025
        77                         -0.0958267              -2.6076
        78                         -0.0908822              -2.4730
        79                         -0.0802500              -2.1837
       ...                                ...                  ...
       134                          0.7082206              19.2717
      -------------------------------------------------------------
                  HL-Gap            0.0014239 Eh            0.0387 eV

Wiberg/Mayer (AO) data.
largest (>0.10) Wiberg bond orders for each atom

     #   Z sym  total        # sym  WBO       # sym  WBO       # sym  WBO
 ---------------------------------------------------------------------------
     1   6 C    3.917 --    26 H    0.987    27 H    0.980    28 H    0.980
                             2 O    0.949
     2   8 O    2.054 --     1 C    0.949     3 C    0.919
     3   6 C    3.756 --     4 O    1.439     5 C    1.298     2 O    0.919
     4   8 O    1.685 --     3 C    1.439
     5   6 C    3.740 --     3 C    1.298     6 C    1.241    24 N    0.957
     6   6 C    3.741 --     8 C    1.288     5 C    1.241     7 O    1.003
     7   8 O    1.958 --     6 C    1.003    29 H    0.844
     8   6 C    3.817 --     9 O    1.367     6 C    1.288    10 N    1.050
     9   8 O    1.619 --     8 C    1.367
    10   7 N    2.993 --    11 C    1.622     8 C    1.050    24 N    0.113
    11   6 C    3.916 --    10 N    1.622    24 N    1.145    12 C    0.969
    12   6 C    3.950 --    14 C    0.986    13 C    0.982    11 C    0.969
                            15 N    0.948
    13   6 C    3.991 --    32 H    0.987    31 H    0.984    30 H    0.983
                            12 C    0.982
    14   6 C    3.993 --    33 H    0.987    12 C    0.986    34 H    0.980
                            35 H    0.980
    15   7 N    3.143 --    16 C    1.068    12 C    0.948    36 H    0.919
                            17 O    0.104
    16   6 C    3.745 --    17 O    1.441    18 C    1.165    15 N    1.068
    17   8 O    1.681 --    16 C    1.441    15 N    0.104
    18   6 C    3.691 --    19 N    1.382    16 C    1.165    23 O    0.973
    19   7 N    2.737 --    18 C    1.382    20 N    1.184
    20   7 N    2.981 --    21 C    1.629    19 N    1.184
    21   6 C    3.818 --    20 N    1.629    23 O    1.047    22 C    1.023
    22   6 C    3.994 --    21 C    1.023    37 H    0.986    38 H    0.972
                            39 H    0.971
    23   8 O    2.177 --    21 C    1.047    18 C    0.973
    24   7 N    3.264 --    11 C    1.145     5 C    0.957    25 C    0.940
                            10 N    0.113
    25   6 C    3.956 --    42 H    0.984    40 H    0.983    41 H    0.981
                            24 N    0.940
    26   1 H    1.019 --     1 C    0.987
    27   1 H    1.021 --     1 C    0.980
    28   1 H    1.020 --     1 C    0.980
    29   1 H    0.899 --     7 O    0.844
    30   1 H    1.026 --    13 C    0.983
    31   1 H    1.013 --    13 C    0.984
    32   1 H    1.009 --    13 C    0.987
    33   1 H    1.013 --    14 C    0.987
    34   1 H    1.012 --    14 C    0.980
    35   1 H    1.024 --    14 C    0.980
    36   1 H    0.985 --    15 N    0.919
    37   1 H    1.005 --    22 C    0.986
    38   1 H    1.001 --    22 C    0.972
    39   1 H    1.001 --    22 C    0.971
    40   1 H    1.016 --    25 C    0.983
    41   1 H    1.018 --    25 C    0.981
    42   1 H    1.032 --    25 C    0.984
 ---------------------------------------------------------------------------

           -------------------------------------------------
          | TOTAL ENERGY              -83.583533629550 Eh   |
          | GRADIENT NORM               0.000707001919 Eh/α |
          | HOMO-LUMO GAP               0.038746259512 eV   |
           -------------------------------------------------

 * finished run on 2023/06/20 at 17:41:18.470
