   * xtb version 6.5.1 (579679a) compiled by 'ehlert@majestix' on 2022-07-11
          program call               : /lustre/hpc/kemi/ree/PhD/git/ReactivityQM/dep/xtb-6.5.1/bin/xtb --gfn 1 /lustre/hpc/kemi/ree/PhD/git/ReactivityQM/calculations/R02methylcation/reac01prodN15/conf11/R02methylcation_reac01prodN15_conf11_gfn1.xyz --opt --vfukui --chrg 0 --uhf 0 --alpb DMSO

   ID    Z sym.   atoms
    1    6 C      1, 3, 5, 7-10, 12, 14, 17, 18, 21, 23, 24
    2    8 O      2, 4, 13, 19, 22, 25
    3    7 N      6, 11, 15, 16, 20
    4    1 H      26-42

      * Solvation model:               ALPB
        Solvent                        DMSO
        Solvent mass                       7.8130E+01 g/mol
          :  Hamiltonian                  GFN1-xTB          :
 * total energy  :   -82.8906677 Eh     change       -0.7429293E-09 Eh
 * total energy  :   -82.9123076 Eh     change       -0.2163997E-01 Eh
 * total energy  :   -82.9322157 Eh     change       -0.1990801E-01 Eh
 * total energy  :   -82.9518979 Eh     change       -0.1968228E-01 Eh
 * total energy  :   -82.9768924 Eh     change       -0.2499443E-01 Eh
 * total energy  :   -82.8811869 Eh     change        0.9570550E-01 Eh
 * total energy  :   -82.9956377 Eh     change       -0.1144508E+00 Eh
 * total energy  :   -82.9990898 Eh     change       -0.3452071E-02 Eh
 * total energy  :   -83.0000767 Eh     change       -0.9869197E-03 Eh
 * total energy  :   -83.0013007 Eh     change       -0.1224033E-02 Eh
 * total energy  :   -83.0050246 Eh     change       -0.9551049E-05 Eh
 * total energy  :   -83.0050320 Eh     change       -0.7432977E-05 Eh
 * total energy  :   -83.0050454 Eh     change       -0.1339428E-04 Eh
 * total energy  :   -83.0050514 Eh     change       -0.6035469E-05 Eh
 * total energy  :   -83.0050571 Eh     change       -0.5678439E-05 Eh
 * total energy  :   -83.0050646 Eh     change       -0.7482020E-05 Eh
 * total energy  :   -83.0050715 Eh     change       -0.6906684E-05 Eh
 * total energy  :   -83.0050785 Eh     change       -0.6994163E-05 Eh
 * total energy  :   -83.0050825 Eh     change       -0.4027669E-05 Eh
   *** GEOMETRY OPTIMIZATION CONVERGED AFTER 53 ITERATIONS ***

 final structure:
================
42
 xtb: 6.5.1 (579679a)
C           -5.98818391252027        1.45186303562477       -0.89406779380955
O           -4.93155658639466        0.94646368091436       -0.06640320428925
C           -3.77813769469053        0.69578018468230       -0.66235706894798
O           -3.56208382705345        0.87460924099385       -1.83451017442555
C           -2.71622632484911        0.16952883223496        0.29062935956615
N           -1.73193120306290       -0.59258520106008       -0.37924443099525
C           -0.63838912389171       -0.86544677402950        0.21900745270267
C            0.35799020640079       -1.79941594381407       -0.45737511188184
C            0.67117184086684       -2.99202430085536        0.45391681781998
C           -0.22854766828960       -2.29354378530875       -1.78110428723886
N            1.58358886867399       -1.05963910751188       -0.78952402517055
C            2.53603872856244       -0.66349907289674        0.07619695035841
O            2.48886505092118       -0.77247314190021        1.29235887179230
C            3.67360890161100       -0.03588843531063       -0.63797034398416
N            3.76457773762553        0.14869190937580       -1.92104241623271
N            4.95897123976230        0.76182100155313       -2.14517189373008
C            5.52122110990711        0.91358559108723       -0.98349065253308
C            6.83276782532677        1.53105479783625       -0.69001957553889
O            4.75727366744597        0.43110375786280        0.00689621813507
N           -0.28482121076785       -0.33875939810302        1.43890909680900
C           -0.95691990377166        0.69599859566234        2.03750091073984
O           -0.43511964924334        1.40523764737820        2.87231885687122
C           -2.36941153834039        0.88447391365074        1.56430940686734
C           -3.04730327977153        2.15024474375076        2.03054771140862
O           -3.13113112932334       -0.29818071955620        1.53805070251706
H           -6.83528229608971        1.63213987612548       -0.23690510976033
H           -6.24564511897603        0.71470166692276       -1.65687394478241
H           -5.67234340589402        2.37955366236033       -1.37514912196726
H           -0.24439257382448       -3.55328480159288        0.63381476383553
H            1.07837401942257       -2.66879249700430        1.40894927415876
H            1.39479057729969       -3.64127675076937       -0.03547812336890
H            0.47985741595639       -2.95613137880371       -2.27405653167772
H           -0.44947098544262       -1.45145226049656       -2.43542721168510
H           -1.15216944950370       -2.83791535745654       -1.59214661311012
H            1.76784968766501       -0.91474328290147       -1.77176851507063
H            7.32606568400523        1.79997534499173       -1.62058732727797
H            7.45614249598423        0.83362340617980       -0.13153599016676
H            6.69589814130228        2.42389825947973       -0.07972000621197
H            0.67169777634816       -0.49071101388419        1.75685142179610
H           -4.12250167520273        2.07697332493374        1.89398671910164
H           -2.66629788312442        3.00435994341145        1.47326178873236
H           -2.82888553505878        2.30007880625241        3.08789315065631

          :  Hamiltonian                  GFN1-xTB          :
         :: total energy             -83.005082506380 Eh    ::
         :: gradient norm              0.000606933543 Eh/a0 ::
         :: HOMO-LUMO gap              3.508950928956 eV    ::
         :: SCC energy               -83.774449463035 Eh    ::
         :: -> Gsolv                  -0.047104151217 Eh    ::
         :: repulsion energy           0.794975286283 Eh    ::

    * Orbital Energies and Occupations

         #    Occupation            Energy/Eh            Energy/eV
      -------------------------------------------------------------
         1        2.0000           -0.8668944             -23.5894
       ...           ...                  ...                  ...
        55        2.0000           -0.5093933             -13.8613
        56        2.0000           -0.5060872             -13.7713
        57        2.0000           -0.5051584             -13.7461
        58        2.0000           -0.5030269             -13.6881
        59        2.0000           -0.4864196             -13.2362
        60        2.0000           -0.4806591             -13.0794
        61        2.0000           -0.4725221             -12.8580
        62        2.0000           -0.4684600             -12.7474
        63        2.0000           -0.4623263             -12.5805
        64        2.0000           -0.4614058             -12.5555
        65        2.0000           -0.4561643             -12.4129
        66        2.0000           -0.4522805             -12.3072
        67        2.0000           -0.4456498             -12.1267 (HOMO)
        68                         -0.3166983              -8.6178 (LUMO)
        69                         -0.3012425              -8.1972
        70                         -0.2878442              -7.8326
        71                         -0.2596950              -7.0667
        72                         -0.2564104              -6.9773
        73                         -0.2044955              -5.5646
        74                         -0.1433161              -3.8998
        75                         -0.1432355              -3.8976
        76                         -0.1324940              -3.6053
        77                         -0.1315289              -3.5791
        78                         -0.1279598              -3.4820
       ...                                ...                  ...
       134                          0.7122724              19.3819
      -------------------------------------------------------------
                  HL-Gap            0.1289516 Eh            3.5090 eV

Wiberg/Mayer (AO) data.
largest (>0.10) Wiberg bond orders for each atom

     #   Z sym  total        # sym  WBO       # sym  WBO       # sym  WBO
 ---------------------------------------------------------------------------
     1   6 C    3.860 --    26 H    0.985    28 H    0.980    27 H    0.980
                             2 O    0.884
     2   8 O    2.226 --     3 C    1.141     1 C    0.884     4 O    0.141
     3   6 C    3.850 --     4 O    1.686     2 O    1.141     5 C    0.938
     4   8 O    1.938 --     3 C    1.686     2 O    0.141
     5   6 C    3.870 --     6 N    1.027     3 C    0.938    25 O    0.907
                            23 C    0.834
     6   7 N    3.022 --     7 C    1.702     5 C    1.027
     7   6 C    3.931 --     6 N    1.702    20 N    1.128     8 C    0.965
     8   6 C    3.933 --    10 C    1.001     9 C    0.985     7 C    0.965
                            11 N    0.917
     9   6 C    3.988 --     8 C    0.985    29 H    0.984    31 H    0.983
                            30 H    0.978
    10   6 C    3.990 --     8 C    1.001    32 H    0.985    34 H    0.983
                            33 H    0.982
    11   7 N    3.348 --    12 C    1.265     8 C    0.917    35 H    0.891
                            13 O    0.175
    12   6 C    3.915 --    13 O    1.568    11 N    1.265    14 C    0.995
    13   8 O    1.926 --    12 C    1.568    11 N    0.175
    14   6 C    3.878 --    15 N    1.606    19 O    1.065    12 C    0.995
    15   7 N    3.019 --    14 C    1.606    16 N    1.204
    16   7 N    2.981 --    17 C    1.600    15 N    1.204
    17   6 C    3.869 --    16 N    1.600    19 O    1.084    18 C    1.032
    18   6 C    3.986 --    17 C    1.032    36 H    0.982    37 H    0.964
                            38 H    0.961
    19   8 O    2.333 --    17 C    1.084    14 C    1.065
    20   7 N    3.427 --    21 C    1.154     7 C    1.128    39 H    0.847
                            22 O    0.126
    21   6 C    3.896 --    22 O    1.649    20 N    1.154    23 C    0.977
    22   8 O    1.929 --    21 C    1.649    20 N    0.126
    23   6 C    3.860 --    24 C    1.002    21 C    0.977    25 O    0.893
                             5 C    0.834
    24   6 C    3.986 --    23 C    1.002    40 H    0.981    41 H    0.980
                            42 H    0.975
    25   8 O    1.965 --     5 C    0.907    23 C    0.893
    26   1 H    1.008 --     1 C    0.985
    27   1 H    1.005 --     1 C    0.980
    28   1 H    1.005 --     1 C    0.980
    29   1 H    1.000 --     9 C    0.984
    30   1 H    1.007 --     9 C    0.978
    31   1 H    0.999 --     9 C    0.983
    32   1 H    0.999 --    10 C    0.985
    33   1 H    1.006 --    10 C    0.982
    34   1 H    1.006 --    10 C    0.983
    35   1 H    0.948 --    11 N    0.891
    36   1 H    0.998 --    18 C    0.982
    37   1 H    0.996 --    18 C    0.964
    38   1 H    0.996 --    18 C    0.961
    39   1 H    0.932 --    20 N    0.847
    40   1 H    1.008 --    24 C    0.981
    41   1 H    1.000 --    24 C    0.980
    42   1 H    1.003 --    24 C    0.975
 ---------------------------------------------------------------------------

           -------------------------------------------------
          | TOTAL ENERGY              -83.005082506380 Eh   |
          | GRADIENT NORM               0.000606933543 Eh/α |
          | HOMO-LUMO GAP               3.508950928956 eV   |
           -------------------------------------------------

 * finished run on 2023/06/21 at 17:56:55.599
