                         Program Version 5.0.1 -  RELEASE  -
|  1> # ORCA input file
|  2> ! SP r2SCAN-3c CPCM
|  3>
|  4> %maxcore 1875.0
|  5> %pal nprocs 4 end
|  6> %cpcm smd true SMDsolvent "DMSO" end
|  7>
|  8> *xyz -1 1
|  9> C      -3.895016    2.611530    1.046417
| 10> O      -3.154825    1.442109    0.706067
| 11> C      -3.873335    0.391476    0.262777
| 12> O      -5.087567    0.435077    0.174758
| 13> C      -3.005939   -0.768086   -0.247863
| 14> C      -3.781758   -2.083753   -0.102477
| 15> N      -1.766161   -0.851087    0.509507
| 16> C      -0.729179   -0.193071    0.126139
| 17> C       0.439896   -0.244701    1.117550
| 18> C       0.422438    1.017979    1.985366
| 19> C       0.296893   -1.475628    2.025625
| 20> N       1.735979   -0.321703    0.437419
| 21> C       2.049102   -1.308724   -0.423726
| 22> O       1.294880   -2.198125   -0.786624
| 23> C       3.441796   -1.205433   -0.935692
| 24> N       4.022007   -1.974141   -1.805383
| 25> N       5.288912   -1.493893   -1.972390
| 26> C       5.402309   -0.463653   -1.195401
| 27> C       6.584532    0.405430   -1.008444
| 28> O       4.270191   -0.224540   -0.511753
| 29> N      -0.673786    0.557264   -1.006133
| 30> C       0.463920    1.352723   -1.438383
| 31> C      -1.640953    0.290281   -2.077901
| 32> O      -1.348261    0.684972   -3.244287
| 33> C      -2.744759   -0.394322   -1.678928
| 34> O      -3.747401   -0.742251   -2.616298
| 35> H      -4.637868    2.382982    1.815941
| 36> H      -4.405776    3.012887    0.166521
| 37> H      -3.181683    3.340173    1.426557
| 38> H      -3.941744   -2.304237    0.952485
| 39> H      -3.213140   -2.897760   -0.550630
| 40> H      -4.747203   -2.004546   -0.601176
| 41> H      -0.551411    1.106669    2.466139
| 42> H       0.599535    1.912804    1.392870
| 43> H       1.191069    0.955159    2.753731
| 44> H       0.229141   -2.384321    1.428727
| 45> H       1.158648   -1.543410    2.687207
| 46> H      -0.607512   -1.384014    2.624698
| 47> H       2.460714    0.305046    0.738238
| 48> H       6.325368    1.440521   -1.228609
| 49> H       6.921573    0.356823    0.026572
| 50> H       7.385988    0.080223   -1.667114
| 51> H       0.093806    2.151856   -2.084765
| 52> H       0.971796    1.800777   -0.589693
| 53> H       1.179056    0.752630   -2.010053
| 54> H      -3.494274   -0.325991   -3.453102
| 55> **                         ****END OF INPUT****

CARTESIAN COORDINATES (ANGSTROEM)
---------------------------------
  C     -3.895016    2.611530    1.046417
  O     -3.154825    1.442109    0.706067
  C     -3.873335    0.391476    0.262777
  O     -5.087567    0.435077    0.174758
  C     -3.005939   -0.768086   -0.247863
  C     -3.781758   -2.083753   -0.102477
  N     -1.766161   -0.851087    0.509507
  C     -0.729179   -0.193071    0.126139
  C      0.439896   -0.244701    1.117550
  C      0.422438    1.017979    1.985366
  C      0.296893   -1.475628    2.025625
  N      1.735979   -0.321703    0.437419
  C      2.049102   -1.308724   -0.423726
  O      1.294880   -2.198125   -0.786624
  C      3.441796   -1.205433   -0.935692
  N      4.022007   -1.974141   -1.805383
  N      5.288912   -1.493893   -1.972390
  C      5.402309   -0.463653   -1.195401
  C      6.584532    0.405430   -1.008444
  O      4.270191   -0.224540   -0.511753
  N     -0.673786    0.557264   -1.006133
  C      0.463920    1.352723   -1.438383
  C     -1.640953    0.290281   -2.077901
  O     -1.348261    0.684972   -3.244287
  C     -2.744759   -0.394322   -1.678928
  O     -3.747401   -0.742251   -2.616298
  H     -4.637868    2.382982    1.815941
  H     -4.405776    3.012887    0.166521
  H     -3.181683    3.340173    1.426557
  H     -3.941744   -2.304237    0.952485
  H     -3.213140   -2.897760   -0.550630
  H     -4.747203   -2.004546   -0.601176
  H     -0.551411    1.106669    2.466139
  H      0.599535    1.912804    1.392870
  H      1.191069    0.955159    2.753731
  H      0.229141   -2.384321    1.428727
  H      1.158648   -1.543410    2.687207
  H     -0.607512   -1.384014    2.624698
  H      2.460714    0.305046    0.738238
  H      6.325368    1.440521   -1.228609
  H      6.921573    0.356823    0.026572
  H      7.385988    0.080223   -1.667114
  H      0.093806    2.151856   -2.084765
  H      0.971796    1.800777   -0.589693
  H      1.179056    0.752630   -2.010053
  H     -3.494274   -0.325991   -3.453102

 Total Charge           Charge          ....   -1
 Multiplicity           Mult            ....    1
 Number of Electrons    NEL             ....  194
 Basis Dimension        Dim             ....  649

ORBITAL ENERGIES
----------------

  NO   OCC          E(Eh)            E(eV)
   0   2.0000     -19.062406      -518.7144
   1   2.0000     -18.976927      -516.3884
   2   2.0000     -18.933250      -515.1999
   3   2.0000     -18.927985      -515.0566
   4   2.0000     -18.911965      -514.6207
   5   2.0000     -18.859234      -513.1859
   6   2.0000     -14.201062      -386.4305
   7   2.0000     -14.194541      -386.2531
   8   2.0000     -14.192753      -386.2044
   9   2.0000     -14.169375      -385.5683
  10   2.0000     -14.107024      -383.8716
  11   2.0000     -10.149381      -276.1787
  12   2.0000     -10.144275      -276.0398
  13   2.0000     -10.139245      -275.9029
  14   2.0000     -10.125675      -275.5336
  15   2.0000     -10.087618      -274.4980
  16   2.0000     -10.083255      -274.3793
  17   2.0000     -10.064804      -273.8772
  18   2.0000     -10.062650      -273.8186
  19   2.0000     -10.060988      -273.7734
  20   2.0000     -10.043616      -273.3007
  21   2.0000     -10.037782      -273.1419
  22   2.0000     -10.019704      -272.6500
  23   2.0000     -10.019576      -272.6465
  24   2.0000     -10.006901      -272.3016
  25   2.0000     -10.000235      -272.1202
  26   2.0000      -1.151334       -31.3294
  27   2.0000      -1.047588       -28.5063
  28   2.0000      -1.015842       -27.6425
  29   2.0000      -0.971676       -26.4407
  30   2.0000      -0.968096       -26.3432
  31   2.0000      -0.955344       -25.9962
  32   2.0000      -0.938594       -25.5405
  33   2.0000      -0.910646       -24.7799
  34   2.0000      -0.890673       -24.2365
  35   2.0000      -0.829031       -22.5591
  36   2.0000      -0.827604       -22.5202
  37   2.0000      -0.764508       -20.8033
  38   2.0000      -0.720074       -19.5942
  39   2.0000      -0.710510       -19.3340
  40   2.0000      -0.674503       -18.3542
  41   2.0000      -0.668996       -18.2043
  42   2.0000      -0.660812       -17.9816
  43   2.0000      -0.651755       -17.7352
  44   2.0000      -0.631390       -17.1810
  45   2.0000      -0.599101       -16.3024
  46   2.0000      -0.590345       -16.0641
  47   2.0000      -0.573145       -15.5961
  48   2.0000      -0.570091       -15.5130
  49   2.0000      -0.535209       -14.5638
  50   2.0000      -0.521256       -14.1841
  51   2.0000      -0.510044       -13.8790
  52   2.0000      -0.492275       -13.3955
  53   2.0000      -0.489991       -13.3333
  54   2.0000      -0.476421       -12.9641
  55   2.0000      -0.456333       -12.4175
  56   2.0000      -0.450714       -12.2646
  57   2.0000      -0.435668       -11.8551
  58   2.0000      -0.428083       -11.6487
  59   2.0000      -0.422303       -11.4915
  60   2.0000      -0.418692       -11.3932
  61   2.0000      -0.409150       -11.1336
  62   2.0000      -0.407472       -11.0879
  63   2.0000      -0.401650       -10.9294
  64   2.0000      -0.395228       -10.7547
  65   2.0000      -0.393200       -10.6995
  66   2.0000      -0.382471       -10.4076
  67   2.0000      -0.380628       -10.3574
  68   2.0000      -0.379519       -10.3272
  69   2.0000      -0.363942        -9.9034
  70   2.0000      -0.361577        -9.8390
  71   2.0000      -0.351465        -9.5639
  72   2.0000      -0.350604        -9.5404
  73   2.0000      -0.345317        -9.3966
  74   2.0000      -0.342436        -9.3182
  75   2.0000      -0.340161        -9.2563
  76   2.0000      -0.332286        -9.0420
  77   2.0000      -0.326704        -8.8901
  78   2.0000      -0.325131        -8.8473
  79   2.0000      -0.317764        -8.6468
  80   2.0000      -0.313168        -8.5217
  81   2.0000      -0.311657        -8.4806
  82   2.0000      -0.309862        -8.4318
  83   2.0000      -0.302445        -8.2299
  84   2.0000      -0.292864        -7.9692
  85   2.0000      -0.288257        -7.8439
  86   2.0000      -0.265078        -7.2132
  87   2.0000      -0.263519        -7.1707
  88   2.0000      -0.258989        -7.0474
  89   2.0000      -0.253220        -6.8905
  90   2.0000      -0.241436        -6.5698
  91   2.0000      -0.236509        -6.4357
  92   2.0000      -0.224334        -6.1044
  93   2.0000      -0.206026        -5.6062
  94   2.0000      -0.189528        -5.1573
  95   2.0000      -0.176904        -4.8138
  96   2.0000      -0.104339        -2.8392
  97   0.0000      -0.081590        -2.2202
  98   0.0000      -0.017437        -0.4745
  99   0.0000      -0.009220        -0.2509
 100   0.0000       0.023925         0.6510
 101   0.0000       0.053935         1.4676

MULLIKEN ATOMIC CHARGES
-----------------------
   0 C :   -0.332261
   1 O :   -0.136011
   2 C :    0.186962
   3 O :   -0.418570
   4 C :    0.175589
   5 C :   -0.608611
   6 N :   -0.260743
   7 C :    0.078045
   8 C :    0.026228
   9 C :   -0.567529
  10 C :   -0.651231
  11 N :   -0.104504
  12 C :   -0.130851
  13 O :   -0.426400
  14 C :    0.413283
  15 N :   -0.175568
  16 N :   -0.286961
  17 C :    0.389182
  18 C :   -0.634699
  19 O :   -0.058379
  20 N :    0.233243
  21 C :   -0.458669
  22 C :   -0.056378
  23 O :   -0.537324
  24 C :   -0.111565
  25 O :   -0.427272
  26 H :    0.167278
  27 H :    0.167088
  28 H :    0.166535
  29 H :    0.165822
  30 H :    0.169407
  31 H :    0.175146
  32 H :    0.197113
  33 H :    0.183265
  34 H :    0.184947
  35 H :    0.198318
  36 H :    0.174642
  37 H :    0.183794
  38 H :    0.314708
  39 H :    0.199833
  40 H :    0.200913
  41 H :    0.204391
  42 H :    0.176504
  43 H :    0.169081
  44 H :    0.170649
  45 H :    0.311558
Sum of atomic charges:   -1.0000000

LOEWDIN ATOMIC CHARGES
----------------------
   0 C :   -0.051146
   1 O :   -0.596659
   2 C :    0.384900
   3 O :   -0.467228
   4 C :    0.120923
   5 C :   -0.363393
   6 N :   -0.656329
   7 C :    0.341127
   8 C :    0.114418
   9 C :   -0.346862
  10 C :   -0.346436
  11 N :   -0.588623
  12 C :    0.370738
  13 O :   -0.445671
  14 C :    0.411551
  15 N :   -0.339173
  16 N :   -0.364092
  17 C :    0.375584
  18 C :   -0.318111
  19 O :   -0.393342
  20 N :   -0.713272
  21 C :   -0.096416
  22 C :    0.295646
  23 O :   -0.646132
  24 C :    0.119681
  25 O :   -0.562127
  26 H :    0.176201
  27 H :    0.174880
  28 H :    0.179256
  29 H :    0.162197
  30 H :    0.162476
  31 H :    0.173703
  32 H :    0.177723
  33 H :    0.168786
  34 H :    0.170044
  35 H :    0.179636
  36 H :    0.161106
  37 H :    0.174054
  38 H :    0.297596
  39 H :    0.190975
  40 H :    0.191434
  41 H :    0.190654
  42 H :    0.191859
  43 H :    0.183467
  44 H :    0.174125
  45 H :    0.280272

  Mayer bond orders larger than 0.100000
B(  0-C ,  1-O ) :   0.8275 B(  0-C , 26-H ) :   0.9601 B(  0-C , 27-H ) :   0.9603
B(  0-C , 28-H ) :   0.9671 B(  1-O ,  2-C ) :   1.0815 B(  2-C ,  3-O ) :   1.8590
B(  2-C ,  4-C ) :   0.9038 B(  4-C ,  5-C ) :   0.8708 B(  4-C ,  6-N ) :   0.8299
B(  4-C , 20-N ) :   0.1061 B(  4-C , 24-C ) :   0.8985 B(  5-C , 29-H ) :   0.9811
B(  5-C , 30-H ) :   0.9862 B(  5-C , 31-H ) :   0.9866 B(  6-N ,  7-C ) :   1.8165
B(  6-N , 20-N ) :   0.1267 B(  7-C ,  8-C ) :   0.8147 B(  7-C , 20-N ) :   1.2674
B(  8-C ,  9-C ) :   0.9462 B(  8-C , 10-C ) :   0.8490 B(  8-C , 11-N ) :   0.8158
B(  9-C , 32-H ) :   0.9706 B(  9-C , 33-H ) :   0.9467 B(  9-C , 34-H ) :   0.9672
B( 10-C , 35-H ) :   0.9764 B( 10-C , 36-H ) :   0.9778 B( 10-C , 37-H ) :   0.9641
B( 11-N , 12-C ) :   1.1686 B( 11-N , 38-H ) :   0.8915 B( 12-C , 13-O ) :   1.9131
B( 12-C , 14-C ) :   0.7642 B( 13-O , 14-C ) :  -0.1088 B( 14-C , 15-N ) :   1.7237
B( 14-C , 17-C ) :   0.1130 B( 14-C , 19-O ) :   1.0737 B( 15-N , 16-N ) :   1.2675
B( 16-N , 17-C ) :   1.6328 B( 17-C , 18-C ) :   0.8269 B( 17-C , 19-O ) :   1.0665
B( 18-C , 39-H ) :   0.9447 B( 18-C , 40-H ) :   0.9412 B( 18-C , 41-H ) :   0.9906
B( 20-N , 21-C ) :   0.8286 B( 20-N , 22-C ) :   0.8487 B( 21-C , 42-H ) :   0.9492
B( 21-C , 43-H ) :   0.9454 B( 21-C , 44-H ) :   0.9542 B( 22-C , 23-O ) :   1.8257
B( 22-C , 24-C ) :   1.3352 B( 24-C , 25-O ) :   0.9513 B( 25-O , 45-H ) :   0.8547

Dispersion correction           -0.022458952
FINAL SINGLE POINT ENERGY     -1308.633515182905

DIPOLE MOMENT
-------------
                                X             Y             Z
Electronic contribution:      5.94034      -6.85526     -10.47294
Nuclear contribution   :      0.24735      10.67911      14.98569
                        -----------------------------------------
Total Dipole Moment    :      6.18770       3.82384       4.51275
                        -----------------------------------------
Magnitude (a.u.)       :      8.56004
Magnitude (Debye)      :     21.75790

Rotational constants in cm-1:     0.014862     0.003741     0.003571
Rotational constants in MHz :   445.561045   112.142740   107.061804

                             ****ORCA TERMINATED NORMALLY****
TOTAL RUN TIME: 0 days 0 hours 1 minutes 59 seconds 696 msec
