   * xtb version 6.5.1 (579679a) compiled by 'ehlert@majestix' on 2022-07-11
          program call               : /lustre/hpc/kemi/ree/PhD/git/ReactivityQM/dep/xtb-6.5.1/bin/xtb --gfn 1 /lustre/hpc/kemi/ree/PhD/git/ReactivityQM/calculations/R03/reac02prodE04/conf10/R03_reac02prodE04_conf10_gfn1.xyz --opt --vfukui --chrg -1 --uhf 0 --alpb DMSO

   ID    Z sym.   atoms
    1    6 C      1, 3, 5, 6, 8-11, 13, 15, 18, 19, 22, 23, 25
    2    8 O      2, 4, 14, 20, 24, 26
    3    7 N      7, 12, 16, 17, 21
    4    1 H      27-46

      * Solvation model:               ALPB
        Solvent                        DMSO
        Solvent mass                       7.8130E+01 g/mol
          :  Hamiltonian                  GFN1-xTB          :
 * total energy  :   -87.0276314 Eh     change       -0.5884857E-09 Eh
 * total energy  :   -87.0426037 Eh     change       -0.1497228E-01 Eh
 * total energy  :   -87.0486992 Eh     change       -0.6095435E-02 Eh
 * total energy  :   -87.0500565 Eh     change       -0.1357389E-02 Eh
 * total energy  :   -87.0511298 Eh     change       -0.1073284E-02 Eh
 * total energy  :   -87.0517299 Eh     change       -0.6000818E-03 Eh
 * total energy  :   -87.0522079 Eh     change       -0.4780087E-03 Eh
 * total energy  :   -87.0525356 Eh     change       -0.3276455E-03 Eh
 * total energy  :   -87.0527130 Eh     change       -0.1774389E-03 Eh
 * total energy  :   -87.0528182 Eh     change       -0.1052193E-03 Eh
 * total energy  :   -87.0560972 Eh     change       -0.1676105E-04 Eh
 * total energy  :   -87.0561110 Eh     change       -0.1373939E-04 Eh
 * total energy  :   -87.0561414 Eh     change       -0.3043467E-04 Eh
 * total energy  :   -87.0561549 Eh     change       -0.1355401E-04 Eh
 * total energy  :   -87.0561624 Eh     change       -0.7417989E-05 Eh
 * total energy  :   -87.0561712 Eh     change       -0.8785367E-05 Eh
 * total energy  :   -87.0561754 Eh     change       -0.4230188E-05 Eh
 * total energy  :   -87.0561816 Eh     change       -0.6213041E-05 Eh
 * total energy  :   -87.0561856 Eh     change       -0.4018004E-05 Eh
   *** GEOMETRY OPTIMIZATION CONVERGED AFTER 89 ITERATIONS ***

 final structure:
================
46
 xtb: 6.5.1 (579679a)
C           -3.89501598183593        2.61152951152143        1.04641722376700
O           -3.15482463511280        1.44210913665893        0.70606650120776
C           -3.87333504450740        0.39147607509383        0.26277682958368
O           -5.08756708323072        0.43507740117961        0.17475816377046
C           -3.00593945731399       -0.76808608921956       -0.24786300710616
C           -3.78175784551107       -2.08375332573378       -0.10247735522328
N           -1.76616144844604       -0.85108667774145        0.50950651632725
C           -0.72917888389191       -0.19307133950916        0.12613900790145
C            0.43989568998660       -0.24470147627604        1.11755029526886
C            0.42243822580873        1.01797942822914        1.98536607180945
C            0.29689277095487       -1.47562844730024        2.02562511208603
N            1.73597899342101       -0.32170264753265        0.43741901021721
C            2.04910244181759       -1.30872358452249       -0.42372607026486
O            1.29487956743759       -2.19812523098720       -0.78662366540988
C            3.44179598660165       -1.20543268026586       -0.93569234314168
N            4.02200658548335       -1.97414126186936       -1.80538274693610
N            5.28891219549869       -1.49389266115435       -1.97238965142241
C            5.40230911456330       -0.46365336513304       -1.19540141767176
C            6.58453169066631        0.40542966933471       -1.00844390902554
O            4.27019098208106       -0.22453999539924       -0.51175297617695
N           -0.67378573782892        0.55726351527016       -1.00613338060762
C            0.46391979936284        1.35272252536491       -1.43838301269332
C           -1.64095285318330        0.29028093568380       -2.07790145625815
O           -1.34826070958762        0.68497204305604       -3.24428652428208
C           -2.74475894436825       -0.39432172387681       -1.67892767866330
O           -3.74740125793773       -0.74225107516027       -2.61629800275100
H           -4.63786774473633        2.38298174718631        1.81594092973511
H           -4.40577599650611        3.01288654875066        0.16652056075377
H           -3.18168308006840        3.34017328458663        1.42655684799794
H           -3.94174387646833       -2.30423724539055        0.95248465317652
H           -3.21314036208712       -2.89775989235865       -0.55063049144862
H           -4.74720265947375       -2.00454587868644       -0.60117592153712
H           -0.55141079080349        1.10666929220039        2.46613940861113
H            0.59953473572858        1.91280373353842        1.39286990141586
H            1.19106907647600        0.95515906556046        2.75373086983281
H            0.22914145711745       -2.38432131850302        1.42872735888963
H            1.15864839030955       -1.54340996187494        2.68720711332677
H           -0.60751155332896       -1.38401354124812        2.62469820432686
H            2.46071377340854        0.30504605351106        0.73823786533812
H            6.32536796132463        1.44052069762538       -1.22860868495954
H            6.92157259963918        0.35682282611473        0.02657165609103
H            7.38598785299357        0.08022265459487       -1.66711356430301
H            0.09380610419528        2.15185644732623       -2.08476485804935
H            0.97179627363029        1.80077727519883       -0.58969334623468
H            1.17905628769787        0.75263042813098       -2.01005335446872
H           -3.49427360998190       -0.32599087598463       -3.45310168279958

          :  Hamiltonian                  GFN1-xTB          :
         :: total energy             -87.056185613711 Eh    ::
         :: gradient norm              0.000685907839 Eh/a0 ::
         :: HOMO-LUMO gap              0.254574091058 eV    ::
         :: SCC energy               -87.855176741507 Eh    ::
         :: -> Gsolv                  -0.134663735948 Eh    ::
         :: repulsion energy           0.830165200803 Eh    ::

    * Orbital Energies and Occupations

         #    Occupation            Energy/Eh            Energy/eV
      -------------------------------------------------------------
         1        2.0000           -0.8577002             -23.3392
       ...           ...                  ...                  ...
        59        2.0000           -0.4722734             -12.8512
        60        2.0000           -0.4666845             -12.6991
        61        2.0000           -0.4629918             -12.5986
        62        2.0000           -0.4586243             -12.4798
        63        2.0000           -0.4538579             -12.3501
        64        2.0000           -0.4505512             -12.2601
        65        2.0000           -0.4433641             -12.0646
        66        2.0000           -0.4331177             -11.7857
        67        2.0000           -0.4330158             -11.7830
        68        2.0000           -0.3912832             -10.6474
        69        2.0000           -0.3838498             -10.4451
        70        2.0000           -0.3712130             -10.1012
        71        1.9856           -0.3095774              -8.4240 (HOMO)
        72        0.0144           -0.3002220              -8.1695 (LUMO)
        73                         -0.2501325              -6.8065
        74                         -0.2355622              -6.4100
        75                         -0.2162580              -5.8847
        76                         -0.1880255              -5.1164
        77                         -0.1387652              -3.7760
        78                         -0.1301941              -3.5428
        79                         -0.1285601              -3.4983
        80                         -0.1218995              -3.3171
        81                         -0.1101393              -2.9970
        82                         -0.1018911              -2.7726
       ...                                ...                  ...
       144                          0.7355868              20.0163
      -------------------------------------------------------------
                  HL-Gap            0.0093554 Eh            0.2546 eV

Wiberg/Mayer (AO) data.
largest (>0.10) Wiberg bond orders for each atom

     #   Z sym  total        # sym  WBO       # sym  WBO       # sym  WBO
 ---------------------------------------------------------------------------
     1   6 C    3.891 --    29 H    0.987    27 H    0.981    28 H    0.981
                             2 O    0.913
     2   8 O    2.172 --     3 C    1.076     1 C    0.913     4 O    0.116
     3   6 C    3.809 --     4 O    1.630     2 O    1.076     5 C    0.919
     4   8 O    1.898 --     3 C    1.630     2 O    0.116
     5   6 C    3.967 --     6 C    0.987     7 N    0.975    25 C    0.956
                             3 C    0.919
     6   6 C    3.996 --    30 H    0.988     5 C    0.987    31 H    0.987
                            32 H    0.985
     7   7 N    2.972 --     8 C    1.642     5 C    0.975    21 N    0.171
     8   6 C    3.949 --     7 N    1.642    21 N    1.203     9 C    0.959
     9   6 C    3.928 --    10 C    0.991    11 C    0.991     8 C    0.959
                            12 N    0.918
    10   6 C    3.994 --     9 C    0.991    35 H    0.984    33 H    0.984
                            34 H    0.979
    11   6 C    3.992 --     9 C    0.991    37 H    0.987    38 H    0.984
                            36 H    0.982
    12   7 N    3.360 --    13 C    1.265     9 C    0.918    39 H    0.899
                            14 O    0.179
    13   6 C    3.916 --    14 O    1.576    12 N    1.265    15 C    0.989
    14   8 O    1.880 --    13 C    1.576    12 N    0.179
    15   6 C    3.862 --    16 N    1.621    20 O    1.045    13 C    0.989
    16   7 N    2.987 --    15 C    1.621    17 N    1.192
    17   7 N    2.981 --    18 C    1.617    16 N    1.192
    18   6 C    3.869 --    17 N    1.617    20 O    1.070    19 C    1.031
    19   6 C    3.987 --    18 C    1.031    42 H    0.983    40 H    0.965
                            41 H    0.963
    20   8 O    2.310 --    18 C    1.070    15 C    1.045
    21   7 N    3.368 --     8 C    1.203    22 C    0.959    23 C    0.895
                             7 N    0.171
    22   6 C    3.960 --    44 H    0.981    45 H    0.980    43 H    0.980
                            21 N    0.959
    23   6 C    3.916 --    25 C    1.515    24 O    1.358    21 N    0.895
    24   8 O    1.718 --    23 C    1.358    25 C    0.165
    25   6 C    3.789 --    23 C    1.515     5 C    0.956    26 O    0.947
                            24 O    0.165
    26   8 O    1.917 --    25 C    0.947    46 H    0.857
    27   1 H    1.012 --     1 C    0.981
    28   1 H    1.011 --     1 C    0.981
    29   1 H    1.014 --     1 C    0.987
    30   1 H    1.010 --     6 C    0.988
    31   1 H    1.011 --     6 C    0.987
    32   1 H    1.016 --     6 C    0.985
    33   1 H    1.007 --    10 C    0.984
    34   1 H    1.004 --    10 C    0.979
    35   1 H    1.000 --    10 C    0.984
    36   1 H    1.020 --    11 C    0.982
    37   1 H    1.004 --    11 C    0.987
    38   1 H    1.021 --    11 C    0.984
    39   1 H    0.944 --    12 N    0.899
    40   1 H    0.997 --    19 C    0.965
    41   1 H    0.997 --    19 C    0.963
    42   1 H    0.999 --    19 C    0.983
    43   1 H    1.023 --    22 C    0.980
    44   1 H    1.014 --    22 C    0.981
    45   1 H    1.014 --    22 C    0.980
    46   1 H    0.892 --    26 O    0.857
 ---------------------------------------------------------------------------

           -------------------------------------------------
          | TOTAL ENERGY              -87.056185613711 Eh   |
          | GRADIENT NORM               0.000685907839 Eh/α |
          | HOMO-LUMO GAP               0.254574091058 eV   |
           -------------------------------------------------

 * finished run on 2023/06/20 at 15:17:50.578
