   * xtb version 6.5.1 (579679a) compiled by 'ehlert@majestix' on 2022-07-11
          program call               : /lustre/hpc/kemi/ree/PhD/git/ReactivityQM/dep/xtb-6.5.1/bin/xtb --gfn 1 /lustre/hpc/kemi/ree/PhD/git/ReactivityQM/calculations/R02/reac01prodN16/conf11/R02_reac01prodN16_conf11_gfn1.xyz --opt --vfukui --chrg 1 --uhf 0 --alpb DMSO

   ID    Z sym.   atoms
    1    6 C      1, 2, 5, 6, 9-12, 14, 15, 18-20, 22
    2    7 N      3, 4, 8, 13, 24
    3    8 O      7, 16, 17, 21, 23, 25
    4    1 H      26-43

      * Solvation model:               ALPB
        Solvent                        DMSO
        Solvent mass                       7.8130E+01 g/mol
          :  Hamiltonian                  GFN1-xTB          :
 * total energy  :   -83.0989378 Eh     change       -0.1817568E-10 Eh
 * total energy  :   -83.1137746 Eh     change       -0.1483685E-01 Eh
 * total energy  :   -83.1194806 Eh     change       -0.5705969E-02 Eh
 * total energy  :   -83.1207081 Eh     change       -0.1227512E-02 Eh
 * total energy  :   -83.1212825 Eh     change       -0.5744302E-03 Eh
 * total energy  :   -83.1216536 Eh     change       -0.3710498E-03 Eh
 * total energy  :   -83.1220385 Eh     change       -0.3849604E-03 Eh
 * total energy  :   -83.1223686 Eh     change       -0.3300394E-03 Eh
 * total energy  :   -83.1226933 Eh     change       -0.3246778E-03 Eh
 * total energy  :   -83.1229753 Eh     change       -0.2820777E-03 Eh
 * total energy  :   -83.1246574 Eh     change       -0.8178759E-05 Eh
 * total energy  :   -83.1246677 Eh     change       -0.1026608E-04 Eh
 * total energy  :   -83.1246849 Eh     change       -0.1720727E-04 Eh
 * total energy  :   -83.1246950 Eh     change       -0.1007840E-04 Eh
 * total energy  :   -83.1247069 Eh     change       -0.1196993E-04 Eh
 * total energy  :   -83.1247161 Eh     change       -0.9132069E-05 Eh
 * total energy  :   -83.1247211 Eh     change       -0.5031661E-05 Eh
 * total energy  :   -83.1247245 Eh     change       -0.3403344E-05 Eh
 * total energy  :   -83.1247267 Eh     change       -0.2194670E-05 Eh
   *** GEOMETRY OPTIMIZATION CONVERGED AFTER 55 ITERATIONS ***

 final structure:
================
43
 xtb: 6.5.1 (579679a)
C           -6.02324582128801        3.19870420531066       -0.67390546937155
C           -4.77662934996204        2.41852315291483       -0.51207881962452
N           -3.55546295908032        2.86250322091236       -0.51679711994291
N           -2.74798335218790        1.78000997838704       -0.33758412395519
C           -3.52704997266942        0.74533671894227       -0.23441432315753
C           -3.09845166017154       -0.66214814055589       -0.03417904895541
O           -3.87364250407955       -1.59550572556472        0.07184679180651
N           -1.75271102801196       -0.75139449386384        0.00587206423741
C           -1.02796062304886       -2.00308729498464        0.18429044712142
C           -1.38522157505447       -2.61773279107502        1.54681260990287
C           -1.36108596719852       -2.96392262721739       -0.96768518619910
C            0.44525532324907       -1.65962229266576        0.15307163508710
N            0.82524155510199       -0.43729131207922       -0.00333339521392
C            2.16683307454928       -0.12116826516321       -0.01435284812546
C            2.39092118807729        1.28345424440087       -0.27441557400118
O            1.64374419843431        2.13262729546226       -0.61392811471858
O            3.84143077360851        1.67493880624861       -0.15114394222723
C            4.17670151653029        2.83723244183407       -0.96525336652870
C            4.32775617917342        1.77392433077684        1.22128012674627
C            3.11629780478841       -1.10477322270474        0.13258544812809
O            4.42117938428636       -0.89798864963137        0.13596289070133
C            2.69517625981614       -2.50581616263893        0.29509368492915
O            3.49968537425101       -3.40747473904266        0.41815081472254
N            1.33818242129952       -2.68590585927531        0.29529648736237
O           -4.82301876655012        1.08992952350657       -0.33754712304359
H           -6.57501566043496        2.83981497883041       -1.54255491574622
H           -5.78224180160185        4.25088246569164       -0.80402747606459
H           -6.65708537298574        3.07418968255579        0.20389766136980
H           -1.19598813267018        0.09050360558326       -0.07619212262212
H           -1.15591107845347       -1.91170193560587        2.34306715834720
H           -2.44764172193307       -2.85531906264803        1.57022536540962
H           -0.81584211661121       -3.53073278905404        1.70495168277803
H           -0.79377719121002       -3.88540867042068       -0.86008042388245
H           -2.42363600361106       -3.20071573230131       -0.94814941557301
H           -1.11248816240917       -2.50033834267774       -1.92083097747603
H            5.25719907999123        2.94125374123975       -0.91872244853924
H            3.67331850500331        3.71913361148103       -0.56986368079253
H            3.84796026948885        2.61422072762364       -1.97741155740071
H            3.96404649238753        0.90314358582634        1.75775371446692
H            3.95879872791494        2.69638147874670        1.66856646957354
H            5.41315564626443        1.76337947749071        1.16342772555013
H            4.89046447494999       -1.75372099491729        0.23410000114386
H            1.01874357207077       -3.63831816963387        0.41276469373282

          :  Hamiltonian                  GFN1-xTB          :
         :: total energy             -83.124726706235 Eh    ::
         :: gradient norm              0.000513964148 Eh/a0 ::
         :: HOMO-LUMO gap              1.865017913983 eV    ::
         :: SCC energy               -83.930539639672 Eh    ::
         :: -> Gsolv                  -0.117117104556 Eh    ::
         :: repulsion energy           0.832099503574 Eh    ::

    * Orbital Energies and Occupations

         #    Occupation            Energy/Eh            Energy/eV
      -------------------------------------------------------------
         1        2.0000           -0.9326184             -25.3778
       ...           ...                  ...                  ...
        55        2.0000           -0.5303497             -14.4316
        56        2.0000           -0.5219451             -14.2029
        57        2.0000           -0.5157961             -14.0355
        58        2.0000           -0.5137212             -13.9791
        59        2.0000           -0.5096949             -13.8695
        60        2.0000           -0.4962364             -13.5033
        61        2.0000           -0.4869050             -13.2494
        62        2.0000           -0.4865843             -13.2406
        63        2.0000           -0.4705115             -12.8033
        64        2.0000           -0.4700137             -12.7897
        65        2.0000           -0.4644691             -12.6388
        66        2.0000           -0.4565126             -12.4223
        67        2.0000           -0.4525763             -12.3152 (HOMO)
        68                         -0.3840381             -10.4502 (LUMO)
        69                         -0.3177668              -8.6469
        70                         -0.3150855              -8.5739
        71                         -0.2939437              -7.9986
        72                         -0.2606120              -7.0916
        73                         -0.2033002              -5.5321
        74                         -0.2014829              -5.4826
        75                         -0.1833279              -4.9886
        76                         -0.1749000              -4.7593
        77                         -0.1528505              -4.1593
        78                         -0.1446513              -3.9362
       ...                                ...                  ...
       136                          0.7453935              20.2832
      -------------------------------------------------------------
                  HL-Gap            0.0685381 Eh            1.8650 eV

Wiberg/Mayer (AO) data.
largest (>0.10) Wiberg bond orders for each atom

     #   Z sym  total        # sym  WBO       # sym  WBO       # sym  WBO
 ---------------------------------------------------------------------------
     1   6 C    3.986 --     2 C    1.032    27 H    0.983    28 H    0.963
                            26 H    0.963
     2   6 C    3.870 --     3 N    1.603    25 O    1.084     1 C    1.032
     3   7 N    2.980 --     2 C    1.603     4 N    1.201
     4   7 N    3.015 --     5 C    1.610     3 N    1.201
     5   6 C    3.876 --     4 N    1.610    25 O    1.065     6 C    0.990
     6   6 C    3.917 --     7 O    1.594     8 N    1.249     5 C    0.990
     7   8 O    1.914 --     6 C    1.594     8 N    0.177
     8   7 N    3.343 --     6 C    1.249     9 C    0.941    29 H    0.878
                             7 O    0.177
     9   6 C    3.939 --    12 C    0.986    11 C    0.974    10 C    0.973
                             8 N    0.941
    10   6 C    3.985 --    30 H    0.985    32 H    0.983    31 H    0.976
                             9 C    0.973
    11   6 C    3.985 --    35 H    0.985    33 H    0.983    34 H    0.976
                             9 C    0.974
    12   6 C    3.919 --    13 N    1.592    24 N    1.162     9 C    0.986
    13   7 N    3.043 --    12 C    1.592    14 C    1.147
    14   6 C    3.959 --    20 C    1.445    13 N    1.147    15 C    1.101
    15   6 C    3.802 --    16 O    1.824    14 C    1.101    17 O    0.738
    16   8 O    2.086 --    15 C    1.824
    17   8 O    2.480 --    18 C    0.815    19 C    0.808    15 C    0.738
    18   6 C    3.786 --    37 H    0.979    36 H    0.977    38 H    0.976
                            17 O    0.815
    19   6 C    3.784 --    40 H    0.980    41 H    0.975    39 H    0.975
                            17 O    0.808
    20   6 C    3.912 --    14 C    1.445    21 O    1.158    22 C    1.029
    21   8 O    2.134 --    20 C    1.158    42 H    0.777
    22   6 C    3.915 --    23 O    1.613    24 N    1.152    20 C    1.029
    23   8 O    1.938 --    22 C    1.613    24 N    0.142
    24   7 N    3.476 --    12 C    1.162    22 C    1.152    43 H    0.872
                            23 O    0.142
    25   8 O    2.332 --     2 C    1.084     5 C    1.065
    26   1 H    0.996 --     1 C    0.963
    27   1 H    0.998 --     1 C    0.983
    28   1 H    0.996 --     1 C    0.963
    29   1 H    0.964 --     8 N    0.878
    30   1 H    1.000 --    10 C    0.985
    31   1 H    1.005 --    10 C    0.976
    32   1 H    0.998 --    10 C    0.983
    33   1 H    0.998 --    11 C    0.983
    34   1 H    1.006 --    11 C    0.976
    35   1 H    1.000 --    11 C    0.985
    36   1 H    0.993 --    18 C    0.977
    37   1 H    0.996 --    18 C    0.979
    38   1 H    0.995 --    18 C    0.976
    39   1 H    1.000 --    19 C    0.975
    40   1 H    0.991 --    19 C    0.980
    41   1 H    0.995 --    19 C    0.975
    42   1 H    0.818 --    21 O    0.777
    43   1 H    0.917 --    24 N    0.872
 ---------------------------------------------------------------------------

           -------------------------------------------------
          | TOTAL ENERGY              -83.124726706235 Eh   |
          | GRADIENT NORM               0.000513964148 Eh/α |
          | HOMO-LUMO GAP               1.865017913983 eV   |
           -------------------------------------------------

 * finished run on 2023/06/20 at 15:43:04.096
