   * xtb version 6.5.1 (579679a) compiled by 'ehlert@majestix' on 2022-07-11
          program call               : /lustre/hpc/kemi/ree/PhD/git/ReactivityQM/dep/xtb-6.5.1/bin/xtb --gfn 1 /lustre/hpc/kemi/ree/PhD/git/ReactivityQM/calculations/R01/reac01prodE03/conf13/R01_reac01prodE03_conf13_gfn1.xyz --opt --vfukui --chrg -1 --uhf 0 --alpb DMSO

   ID    Z sym.   atoms
    1    6 C      1, 3, 5, 6, 9, 10
    2    8 O      2, 4, 11
    3    7 N      7, 8
    4    1 H      12-20

      * Solvation model:               ALPB
        Solvent                        DMSO
        Solvent mass                       7.8130E+01 g/mol
          :  Hamiltonian                  GFN1-xTB          :
 * total energy  :   -38.3115214 Eh     change       -0.2508926E-10 Eh
 * total energy  :   -38.3222993 Eh     change       -0.1077787E-01 Eh
 * total energy  :   -38.3258980 Eh     change       -0.3598757E-02 Eh
 * total energy  :   -38.3264454 Eh     change       -0.5473160E-03 Eh
 * total energy  :   -38.3269335 Eh     change       -0.4881484E-03 Eh
 * total energy  :   -38.3271992 Eh     change       -0.2656838E-03 Eh
 * total energy  :   -38.3275394 Eh     change       -0.3401808E-03 Eh
 * total energy  :   -38.3278222 Eh     change       -0.2828349E-03 Eh
 * total energy  :   -38.3280336 Eh     change       -0.2113819E-03 Eh
 * total energy  :   -38.3280970 Eh     change       -0.6346283E-04 Eh
 * total energy  :   -38.3290899 Eh     change       -0.1103236E-04 Eh
 * total energy  :   -38.3291018 Eh     change       -0.1186800E-04 Eh
 * total energy  :   -38.3291083 Eh     change       -0.6570024E-05 Eh
 * total energy  :   -38.3291134 Eh     change       -0.5110270E-05 Eh
 * total energy  :   -38.3291195 Eh     change       -0.6067083E-05 Eh
 * total energy  :   -38.3291275 Eh     change       -0.8041635E-05 Eh
 * total energy  :   -38.3291355 Eh     change       -0.7977313E-05 Eh
 * total energy  :   -38.3291408 Eh     change       -0.5275412E-05 Eh
 * total energy  :   -38.3291449 Eh     change       -0.4111470E-05 Eh
   *** GEOMETRY OPTIMIZATION CONVERGED AFTER 57 ITERATIONS ***

 final structure:
================
20
 xtb: 6.5.1 (579679a)
C            2.54760708778008        1.65592385486115        0.09802470945341
O            1.29771935220945        1.02805576390564       -0.15277907652623
C            1.33704120135135       -0.31669703612721       -0.34509542927612
O            2.39897587291826       -0.93415191090445       -0.33438079094908
C           -0.03690758998581       -0.98001689276326       -0.30449913053631
C           -0.09591768877964       -2.25867337022426       -1.14400865201658
N           -0.06369617712108       -1.21325393612554        1.13880725245269
N           -1.04610980922471       -0.38243914370230        1.61554858671493
C           -1.61722278507577        0.22930235108543        0.64923726223491
C           -2.75421782326593        1.18736968276012        0.71851734800094
O           -1.09734566435734       -0.09257652646205       -0.61343902992199
H            3.23199542753546        1.50218744251343       -0.74262086690183
H            3.01100188777458        1.25630916585266        1.00625050105643
H            2.35382236376889        2.72082308850833        0.22098873182442
H           -0.99956741653901       -2.81124822054869       -0.89505922175225
H            0.77559161179509       -2.87247237867308       -0.92347918443254
H           -0.10715818853825       -2.01188558256335       -2.20429617016006
H           -3.61266203399227        0.81327910571075        0.15660776647707
H           -2.47760754257395        2.15624211187761        0.29745618306162
H           -3.04534208567941        1.32392343101943        1.75822121119677

          :  Hamiltonian                  GFN1-xTB          :
         :: total energy             -38.329144906714 Eh    ::
         :: gradient norm              0.000741271278 Eh/a0 ::
         :: HOMO-LUMO gap              2.026138422618 eV    ::
         :: SCC energy               -38.635865988726 Eh    ::
         :: -> Gsolv                  -0.104226443264 Eh    ::
         :: repulsion energy           0.315588691489 Eh    ::

    * Orbital Energies and Occupations

         #    Occupation            Energy/Eh            Energy/eV
      -------------------------------------------------------------
         1        2.0000           -0.7929269             -21.5766
       ...           ...                  ...                  ...
        19        2.0000           -0.5035559             -13.7025
        20        2.0000           -0.4983208             -13.5600
        21        2.0000           -0.4934073             -13.4263
        22        2.0000           -0.4886725             -13.2975
        23        2.0000           -0.4758521             -12.9486
        24        2.0000           -0.4681762             -12.7397
        25        2.0000           -0.4614781             -12.5575
        26        2.0000           -0.4577614             -12.4563
        27        2.0000           -0.4200209             -11.4294
        28        2.0000           -0.4131939             -11.2436
        29        2.0000           -0.3888241             -10.5804
        30        2.0000           -0.3624398              -9.8625
        31        2.0000           -0.2891076              -7.8670 (HOMO)
        32                         -0.2146483              -5.8409 (LUMO)
        33                         -0.1708201              -4.6483
        34                         -0.1209283              -3.2906
        35                         -0.1130803              -3.0771
        36                         -0.0978347              -2.6622
        37                         -0.0585682              -1.5937
        38                         -0.0575680              -1.5665
        39                         -0.0468320              -1.2744
        40                         -0.0453513              -1.2341
        41                         -0.0391988              -1.0667
        42                         -0.0342651              -0.9324
       ...                                ...                  ...
        62                          0.6702082              18.2373
      -------------------------------------------------------------
                  HL-Gap            0.0744592 Eh            2.0261 eV

Wiberg/Mayer (AO) data.
largest (>0.10) Wiberg bond orders for each atom

     #   Z sym  total        # sym  WBO       # sym  WBO       # sym  WBO
 ---------------------------------------------------------------------------
     1   6 C    3.902 --    14 H    0.987    12 H    0.981    13 H    0.981
                             2 O    0.925
     2   8 O    2.154 --     3 C    1.046     1 C    0.925     4 O    0.105
     3   6 C    3.814 --     4 O    1.574     2 O    1.046     5 C    0.921
                             7 N    0.172
     4   8 O    1.857 --     3 C    1.574     2 O    0.105
     5   6 C    3.901 --     6 C    0.979     7 N    0.968    11 O    0.928
                             3 C    0.921
     6   6 C    3.996 --    17 H    0.987    15 H    0.986    16 H    0.986
                             5 C    0.979
     7   7 N    2.656 --     8 N    1.162     5 C    0.968     3 C    0.172
                             9 C    0.164
     8   7 N    3.014 --     9 C    1.687     7 N    1.162
     9   6 C    3.879 --     8 N    1.687    10 C    1.018    11 O    0.937
                             7 N    0.164
    10   6 C    3.996 --     9 C    1.018    20 H    0.987    19 H    0.976
                            18 H    0.976
    11   8 O    2.066 --     9 C    0.937     5 C    0.928
    12   1 H    1.015 --     1 C    0.981
    13   1 H    1.014 --     1 C    0.981
    14   1 H    1.016 --     1 C    0.987
    15   1 H    1.018 --     6 C    0.986
    16   1 H    1.017 --     6 C    0.986
    17   1 H    1.009 --     6 C    0.987
    18   1 H    1.008 --    10 C    0.976
    19   1 H    1.008 --    10 C    0.976
    20   1 H    1.009 --    10 C    0.987
 ---------------------------------------------------------------------------

           -------------------------------------------------
          | TOTAL ENERGY              -38.329144906714 Eh   |
          | GRADIENT NORM               0.000741271278 Eh/α |
          | HOMO-LUMO GAP               2.026138422618 eV   |
           -------------------------------------------------

 * finished run on 2023/06/20 at 14:53:19.556
