   * xtb version 6.5.1 (579679a) compiled by 'ehlert@majestix' on 2022-07-11
          program call               : /lustre/hpc/kemi/ree/PhD/git/ReactivityQM/dep/xtb-6.5.1/bin/xtb --gfn 1 /lustre/hpc/kemi/ree/PhD/git/ReactivityQM/calculations/R02deprot/reac01prodN11/conf09/R02deprot_reac01prodN11_conf09_gfn1.xyz --opt --vfukui --chrg 0 --uhf 0 --alpb DMSO

   ID    Z sym.   atoms
    1    6 C      1, 3, 5, 6, 8, 11-15, 17, 19, 22, 23
    2    8 O      2, 4, 7, 9, 18, 24
    3    7 N      10, 16, 20, 21, 25
    4    1 H      26-42

      * Solvation model:               ALPB
        Solvent                        DMSO
        Solvent mass                       7.8130E+01 g/mol
          :  Hamiltonian                  GFN1-xTB          :
 * total energy  :   -82.9162524 Eh     change       -0.1159606E-10 Eh
 * total energy  :   -82.9306472 Eh     change       -0.1439478E-01 Eh
 * total energy  :   -82.9362833 Eh     change       -0.5636056E-02 Eh
 * total energy  :   -82.9376373 Eh     change       -0.1354020E-02 Eh
 * total energy  :   -82.9384813 Eh     change       -0.8440083E-03 Eh
 * total energy  :   -82.9389592 Eh     change       -0.4778736E-03 Eh
 * total energy  :   -82.9394210 Eh     change       -0.4617922E-03 Eh
 * total energy  :   -82.9398229 Eh     change       -0.4019734E-03 Eh
 * total energy  :   -82.9401328 Eh     change       -0.3098607E-03 Eh
 * total energy  :   -82.9404084 Eh     change       -0.2756330E-03 Eh
 * total energy  :   -82.9712094 Eh     change       -0.6934148E-05 Eh
 * total energy  :   -82.9712183 Eh     change       -0.8956303E-05 Eh
 * total energy  :   -82.9712304 Eh     change       -0.1211607E-04 Eh
 * total energy  :   -82.9712399 Eh     change       -0.9484710E-05 Eh
 * total energy  :   -82.9712478 Eh     change       -0.7864954E-05 Eh
 * total energy  :   -82.9712590 Eh     change       -0.1122641E-04 Eh
 * total energy  :   -82.9712677 Eh     change       -0.8647598E-05 Eh
 * total energy  :   -82.9712697 Eh     change       -0.2062172E-05 Eh
 * total energy  :   -82.9712738 Eh     change       -0.4047113E-05 Eh
   *** GEOMETRY OPTIMIZATION CONVERGED AFTER 61 ITERATIONS ***

 final structure:
================
42
 xtb: 6.5.1 (579679a)
C            6.68446249863944       -0.27142512900193        0.77383329200966
O            5.42075425762812        0.27598563458181        0.37795762088435
C            4.37470315742703       -0.52551111968372        0.45239792995324
O            4.41885743306718       -1.67438744527941        0.81700389573287
C            3.08369653246549        0.14445018969674        0.02415253826590
C            2.93318734132155        1.61058008423452       -0.08966433779583
O            3.79746221267164        2.44517287435800        0.07465481880635
C            1.53643262272822        2.03117720555502       -0.41462678790139
O            1.32726513278207        3.34598882839404       -0.44377552999701
N            0.58102965171831        1.22099208686960       -0.64497840519393
C            0.81950381710456       -0.19583163570993       -0.63191821418444
C            0.65209214081610       -0.69128975343952       -2.08093465877243
C           -0.24077468621902       -0.83949867874841        0.32409739381442
C            0.01769409374557       -0.36573054721894        1.75902189027171
C           -0.19789309063935       -2.36486782101101        0.24067263279294
N           -1.52883578798707       -0.31945181889619       -0.12812024085238
C           -2.72445129342626       -0.75406066705301        0.32246453454483
O           -2.91301804379014       -1.72594971427667        1.03099676736035
C           -3.81945435442414        0.11366615023024       -0.18788841701871
N           -3.67417640026539        1.20172239804740       -0.88305699397963
N           -4.92564644227572        1.68320734039202       -1.12562056334748
C           -5.75496966042063        0.85801596178909       -0.56137576404853
C           -7.23240310148060        0.93345636360848       -0.54441414425504
O           -5.11714149556932       -0.15223201590354        0.04826061295155
N            2.10540608936907       -0.64705919872219       -0.20411234590941
H            6.63372538315858       -0.60973478695034        1.81085537822791
H            7.41462957525948        0.52770881017280        0.66784590748244
H            6.94275948555424       -1.11385103341765        0.12901779616434
H            2.16009339917097        3.81256868824058       -0.25294203997130
H            0.93449682834289       -1.73838022206405       -2.15564562933593
H           -0.38240422163823       -0.56292338913878       -2.39083274148119
H            1.29737602185952       -0.10135044553253       -2.72828212247023
H            0.98450213700152       -0.73280167714766        2.09958796968812
H            0.01261863148135        0.72202760692972        1.80548655303728
H           -0.76127311757527       -0.75175172284226        2.41494521426306
H           -0.62772382297173       -2.71422957510573       -0.69603372938775
H           -0.76215262136203       -2.80022628541860        1.06347773639419
H            0.83612750749601       -2.70011172733934        0.30874868111272
H           -1.49910463038435        0.58677380070307       -0.58229398690660
H           -7.59486274120214        0.93480591029401        0.48374774482715
H           -7.65477527244570        0.06416437471664       -1.04968393833993
H           -7.55781916672406        1.84019310107916       -1.04910831743655

          :  Hamiltonian                  GFN1-xTB          :
         :: total energy             -82.971273772373 Eh    ::
         :: gradient norm              0.000993125103 Eh/a0 ::
         :: HOMO-LUMO gap              1.503054657979 eV    ::
         :: SCC energy               -83.745304182542 Eh    ::
         :: -> Gsolv                  -0.048166914829 Eh    ::
         :: repulsion energy           0.800976631928 Eh    ::

    * Orbital Energies and Occupations

         #    Occupation            Energy/Eh            Energy/eV
      -------------------------------------------------------------
         1        2.0000           -0.8650119             -23.5382
       ...           ...                  ...                  ...
        55        2.0000           -0.5072227             -13.8022
        56        2.0000           -0.5035846             -13.7032
        57        2.0000           -0.5019769             -13.6595
        58        2.0000           -0.4989187             -13.5763
        59        2.0000           -0.4910409             -13.3619
        60        2.0000           -0.4894826             -13.3195
        61        2.0000           -0.4838556             -13.1664
        62        2.0000           -0.4713986             -12.8274
        63        2.0000           -0.4649821             -12.6528
        64        2.0000           -0.4605771             -12.5329
        65        2.0000           -0.4534429             -12.3388
        66        2.0000           -0.4466923             -12.1551
        67        2.0000           -0.4275634             -11.6346 (HOMO)
        68                         -0.3723272             -10.1315 (LUMO)
        69                         -0.3205796              -8.7234
        70                         -0.3116176              -8.4795
        71                         -0.2584384              -7.0325
        72                         -0.2492645              -6.7828
        73                         -0.2004195              -5.4537
        74                         -0.1907682              -5.1911
        75                         -0.1436259              -3.9083
        76                         -0.1399281              -3.8076
        77                         -0.1366903              -3.7195
        78                         -0.1231564              -3.3513
       ...                                ...                  ...
       134                          0.7426606              20.2088
      -------------------------------------------------------------
                  HL-Gap            0.0552362 Eh            1.5031 eV

Wiberg/Mayer (AO) data.
largest (>0.10) Wiberg bond orders for each atom

     #   Z sym  total        # sym  WBO       # sym  WBO       # sym  WBO
 ---------------------------------------------------------------------------
     1   6 C    3.861 --    27 H    0.985    28 H    0.979    26 H    0.979
                             2 O    0.887
     2   8 O    2.227 --     3 C    1.147     1 C    0.887     4 O    0.146
     3   6 C    3.853 --     4 O    1.679     2 O    1.147     5 C    0.949
     4   8 O    1.942 --     3 C    1.679     2 O    0.146
     5   6 C    3.956 --    25 N    1.759     6 C    1.022     3 C    0.949
     6   6 C    3.882 --     7 O    1.728     5 C    1.022     8 C    0.975
     7   8 O    1.997 --     6 C    1.728
     8   6 C    3.903 --    10 N    1.689     9 O    1.112     6 C    0.975
     9   8 O    2.090 --     8 C    1.112    29 H    0.806    10 N    0.119
    10   7 N    3.048 --     8 C    1.689    11 C    0.992     9 O    0.119
    11   6 C    3.932 --    25 N    1.003    10 N    0.992    12 C    0.934
                            13 C    0.905
    12   6 C    3.984 --    32 H    0.983    30 H    0.983    31 H    0.981
                            11 C    0.934
    13   6 C    3.931 --    15 C    1.000    14 C    0.990    16 N    0.932
                            11 C    0.905
    14   6 C    3.991 --    13 C    0.990    34 H    0.984    33 H    0.984
                            35 H    0.982
    15   6 C    3.990 --    13 C    1.000    36 H    0.983    38 H    0.983
                            37 H    0.976
    16   7 N    3.346 --    17 C    1.249    13 C    0.932    39 H    0.885
                            18 O    0.176
    17   6 C    3.916 --    18 O    1.597    16 N    1.249    19 C    0.986
    18   8 O    1.910 --    17 C    1.597    16 N    0.176
    19   6 C    3.874 --    20 N    1.611    24 O    1.064    17 C    0.986
    20   7 N    3.016 --    19 C    1.611    21 N    1.199
    21   7 N    2.980 --    22 C    1.605    20 N    1.199
    22   6 C    3.871 --    21 N    1.605    24 O    1.083    23 C    1.031
    23   6 C    3.986 --    22 C    1.031    42 H    0.983    40 H    0.964
                            41 H    0.962
    24   8 O    2.330 --    22 C    1.083    19 C    1.064
    25   7 N    3.040 --     5 C    1.759    11 C    1.003
    26   1 H    1.005 --     1 C    0.979
    27   1 H    1.009 --     1 C    0.985
    28   1 H    1.005 --     1 C    0.979
    29   1 H    0.841 --     9 O    0.806
    30   1 H    1.003 --    12 C    0.983
    31   1 H    1.003 --    12 C    0.981
    32   1 H    1.001 --    12 C    0.983
    33   1 H    1.003 --    14 C    0.984
    34   1 H    1.005 --    14 C    0.984
    35   1 H    1.003 --    14 C    0.982
    36   1 H    1.002 --    15 C    0.983
    37   1 H    1.012 --    15 C    0.976
    38   1 H    1.010 --    15 C    0.983
    39   1 H    0.971 --    16 N    0.885
    40   1 H    0.997 --    23 C    0.964
    41   1 H    0.997 --    23 C    0.962
    42   1 H    0.998 --    23 C    0.983
 ---------------------------------------------------------------------------

           -------------------------------------------------
          | TOTAL ENERGY              -82.971273772373 Eh   |
          | GRADIENT NORM               0.000993125103 Eh/α |
          | HOMO-LUMO GAP               1.503054657979 eV   |
           -------------------------------------------------

 * finished run on 2023/06/20 at 18:18:15.613
