   * xtb version 6.5.1 (579679a) compiled by 'ehlert@majestix' on 2022-07-11
          program call               : /lustre/hpc/kemi/ree/PhD/git/ReactivityQM/dep/xtb-6.5.1/bin/xtb --gfn 1 /lustre/hpc/kemi/ree/PhD/git/ReactivityQM/calculations/R02methylcation/reac01prodE10/conf15/R02methylcation_reac01prodE10_conf15_gfn1.xyz --opt --vfukui --chrg -2 --uhf 0 --alpb DMSO

   ID    Z sym.   atoms
    1    6 C      1, 3, 5, 7-10, 12, 14, 17-19, 22, 24
    2    8 O      2, 4, 13, 20, 23, 25
    3    7 N      6, 11, 15, 16, 21
    4    1 H      26-42

      * Solvation model:               ALPB
        Solvent                        DMSO
        Solvent mass                       7.8130E+01 g/mol
          :  Hamiltonian                  GFN1-xTB          :
 * total energy  :   -83.5627756 Eh     change       -0.2177956E-09 Eh
 * total energy  :   -83.5789681 Eh     change       -0.1619256E-01 Eh
 * total energy  :   -83.5856666 Eh     change       -0.6698476E-02 Eh
 * total energy  :   -83.5868831 Eh     change       -0.1216513E-02 Eh
 * total energy  :   -83.5880022 Eh     change       -0.1119103E-02 Eh
 * total energy  :   -83.5884181 Eh     change       -0.4159097E-03 Eh
 * total energy  :   -83.5888760 Eh     change       -0.4578665E-03 Eh
 * total energy  :   -83.5893528 Eh     change       -0.4768090E-03 Eh
 * total energy  :   -83.5899055 Eh     change       -0.5526560E-03 Eh
 * total energy  :   -83.5902865 Eh     change       -0.3810216E-03 Eh
 * total energy  :   -83.5915723 Eh     change       -0.4417701E-04 Eh
 * total energy  :   -83.5916063 Eh     change       -0.3405638E-04 Eh
 * total energy  :   -83.5916180 Eh     change       -0.1172779E-04 Eh
 * total energy  :   -83.5916359 Eh     change       -0.1789957E-04 Eh
 * total energy  :   -83.5916429 Eh     change       -0.6973247E-05 Eh
 * total energy  :   -83.5916595 Eh     change       -0.1656697E-04 Eh
 * total energy  :   -83.5916665 Eh     change       -0.7002484E-05 Eh
 * total energy  :   -83.5916741 Eh     change       -0.7612455E-05 Eh
 * total energy  :   -83.5916780 Eh     change       -0.3913453E-05 Eh
   *** GEOMETRY OPTIMIZATION CONVERGED AFTER 28 ITERATIONS ***

 final structure:
================
42
 xtb: 6.5.1 (579679a)
C            6.48734249637463        2.25780594678153        0.36663779674085
O            5.36064080447458        1.57367144195141        0.88317588516320
C            4.48358519320663        1.08939171087834       -0.05109172419246
O            4.70711337945083        1.27894221297357       -1.24740713450547
C            3.35007744844917        0.37364879874058        0.48782970498151
N            2.49556442635153       -0.10992690489044       -0.49681829252840
C            1.45435189536706       -0.79108287896749       -0.15941930047840
C            0.54762000372550       -1.36886832927787       -1.24661053122285
C            1.00655538138727       -0.82751794563280       -2.60802976508748
C            0.68126100034006       -2.90308510551678       -1.25432880622720
N           -0.86668228898095       -1.00564070299894       -1.11577971151299
C           -1.57415265648480       -1.19834339791207        0.13670329482497
O           -1.11515419933798       -2.06536949293659        1.02150728998640
C           -2.72270961873938       -0.50248474066479        0.27402821349627
N           -3.64247562808462       -0.49659215522366        1.35057628425819
N           -4.56219110416097        0.37902686693727        0.95910210591332
C           -5.68979821931142        0.63923124390738        1.82098396020394
C           -4.34705507045356        0.91734193075360       -0.21830317854802
C           -5.17965254604607        1.91292834073071       -0.93829400945993
O           -3.19151342724720        0.42112197964234       -0.74864174019234
N            1.13860316739178       -1.08419507493909        1.13486055464051
C            1.86106327527814       -0.64360732282846        2.19084507409342
O            1.51830453395534       -0.89792547130083        3.35675212615740
C            3.10872464971720        0.15597818115641        1.86968580083337
O            3.82379069016166        0.56359166915816        2.81486789542483
H            6.18308386635549        3.12982152850089       -0.22245050332489
H            7.08587791143617        2.58405458515224        1.21699850666769
H            7.08782911020940        1.60022884140744       -0.27171399400521
H            0.36918094921813       -1.22084898291285       -3.39914779141874
H            2.03768795434739       -1.12219344887253       -2.80283917220223
H            0.95340363753877        0.26138203971819       -2.62070770246602
H            1.71563818849429       -3.18574906417388       -1.45186287556279
H            0.37659894037985       -3.32920821962162       -0.29915640796756
H            0.04743047632354       -3.31875284717953       -2.03760412170207
H           -1.02975532261525       -0.06671034802647       -1.46550744554698
H           -5.55745493122498        0.06349241233370        2.73456266161302
H           -5.74213519743485        1.70180344040607        2.05440145831406
H           -6.61087170644751        0.33756836034177        1.32378837581009
H           -4.75531085633639        2.08181969802968       -1.92579208275623
H           -5.21418033051812        2.86471778950471       -0.40379339001957
H           -6.20548115263716        1.55765535490836       -1.05042356154223
H            0.12524387614732       -1.60712294005477        1.22580425334536

          :  Hamiltonian                  GFN1-xTB          :
         :: total energy             -83.591678015006 Eh    ::
         :: gradient norm              0.000749045888 Eh/a0 ::
         :: HOMO-LUMO gap              0.817752253152 eV    ::
         :: SCC energy               -84.317576543027 Eh    ::
         :: -> Gsolv                  -0.297711905203 Eh    ::
         :: repulsion energy           0.751375140629 Eh    ::

    * Orbital Energies and Occupations

         #    Occupation            Energy/Eh            Energy/eV
      -------------------------------------------------------------
         1        2.0000           -0.8065210             -21.9466
       ...           ...                  ...                  ...
        56        2.0000           -0.4425557             -12.0426
        57        2.0000           -0.4363070             -11.8725
        58        2.0000           -0.4197960             -11.4232
        59        2.0000           -0.4149613             -11.2917
        60        2.0000           -0.4084975             -11.1158
        61        2.0000           -0.3945231             -10.7355
        62        2.0000           -0.3832085             -10.4276
        63        2.0000           -0.3803926             -10.3510
        64        2.0000           -0.3772281             -10.2649
        65        2.0000           -0.3592046              -9.7745
        66        2.0000           -0.3386144              -9.2142
        67        2.0000           -0.3325931              -9.0503
        68        2.0000           -0.2698288              -7.3424 (HOMO)
        69        0.0000           -0.2397770              -6.5247 (LUMO)
        70                         -0.2289328              -6.2296
        71                         -0.1995952              -5.4313
        72                         -0.1651769              -4.4947
        73                         -0.1414653              -3.8495
        74                         -0.1258718              -3.4251
        75                         -0.1176907              -3.2025
        76                         -0.1136951              -3.0938
        77                         -0.0928695              -2.5271
        78                         -0.0905252              -2.4633
        79                         -0.0845910              -2.3018
       ...                                ...                  ...
       134                          0.7659862              20.8435
      -------------------------------------------------------------
                  HL-Gap            0.0300518 Eh            0.8178 eV

Wiberg/Mayer (AO) data.
largest (>0.10) Wiberg bond orders for each atom

     #   Z sym  total        # sym  WBO       # sym  WBO       # sym  WBO
 ---------------------------------------------------------------------------
     1   6 C    3.909 --    27 H    0.987    28 H    0.980    26 H    0.980
                             2 O    0.936
     2   8 O    2.140 --     3 C    1.018     1 C    0.936     4 O    0.101
     3   6 C    3.846 --     4 O    1.548     5 C    1.152     2 O    1.018
     4   8 O    1.829 --     3 C    1.548     2 O    0.101
     5   6 C    3.918 --    24 C    1.277     3 C    1.152     6 N    1.136
                            25 O    0.122
     6   7 N    3.011 --     7 C    1.604     5 C    1.136
     7   6 C    3.942 --     6 N    1.604    21 N    1.166     8 C    0.965
     8   6 C    3.966 --     9 C    0.999    10 C    0.985     7 C    0.965
                            11 N    0.961
     9   6 C    3.997 --     8 C    0.999    29 H    0.988    30 H    0.985
                            31 H    0.985
    10   6 C    3.994 --    32 H    0.989    34 H    0.987     8 C    0.985
                            33 H    0.979
    11   7 N    3.060 --     8 C    0.961    12 C    0.959    35 H    0.936
    12   6 C    3.912 --    14 C    1.591    13 O    1.155    11 N    0.959
    13   8 O    1.767 --    12 C    1.155    42 H    0.290    14 C    0.110
    14   6 C    3.752 --    12 C    1.591    15 N    1.075    20 O    0.848
                            13 O    0.110
    15   7 N    2.756 --    16 N    1.173    14 C    1.075    18 C    0.308
    16   7 N    3.639 --    18 C    1.394    15 N    1.173    17 C    0.950
    17   6 C    3.953 --    36 H    0.985    37 H    0.982    38 H    0.980
                            16 N    0.950
    18   6 C    3.869 --    16 N    1.394    20 O    1.035    19 C    1.025
                            15 N    0.308
    19   6 C    3.993 --    18 C    1.025    39 H    0.983    41 H    0.973
                            40 H    0.970
    20   8 O    2.120 --    18 C    1.035    14 C    0.848
    21   7 N    3.394 --    22 C    1.237     7 C    1.166    42 H    0.607
                            23 O    0.138
    22   6 C    3.899 --    23 O    1.520    21 N    1.237    24 C    0.972
    23   8 O    1.798 --    22 C    1.520    21 N    0.138
    24   6 C    3.940 --    25 O    1.492     5 C    1.277    22 C    0.972
    25   8 O    1.790 --    24 C    1.492     5 C    0.122
    26   1 H    1.017 --     1 C    0.980
    27   1 H    1.018 --     1 C    0.987
    28   1 H    1.017 --     1 C    0.980
    29   1 H    1.009 --     9 C    0.988
    30   1 H    1.019 --     9 C    0.985
    31   1 H    1.014 --     9 C    0.985
    32   1 H    1.009 --    10 C    0.989
    33   1 H    1.027 --    10 C    0.979
    34   1 H    1.012 --    10 C    0.987
    35   1 H    0.979 --    11 N    0.936
    36   1 H    1.013 --    17 C    0.985
    37   1 H    1.002 --    17 C    0.982
    38   1 H    1.003 --    17 C    0.980
    39   1 H    1.002 --    19 C    0.983
    40   1 H    1.003 --    19 C    0.970
    41   1 H    1.003 --    19 C    0.973
    42   1 H    0.938 --    21 N    0.607    13 O    0.290
 ---------------------------------------------------------------------------

           -------------------------------------------------
          | TOTAL ENERGY              -83.591678015006 Eh   |
          | GRADIENT NORM               0.000749045888 Eh/α |
          | HOMO-LUMO GAP               0.817752253152 eV   |
           -------------------------------------------------

 * finished run on 2023/06/21 at 17:22:16.911
