   * xtb version 6.5.1 (579679a) compiled by 'ehlert@majestix' on 2022-07-11
          program call               : /lustre/hpc/kemi/ree/PhD/git/ReactivityQM/dep/xtb-6.5.1/bin/xtb --gfn 1 /lustre/hpc/kemi/ree/PhD/git/ReactivityQM/calculations/R02/reac01prodE10/conf16/R02_reac01prodE10_conf16_gfn1.xyz --opt --vfukui --chrg -1 --uhf 0 --alpb DMSO

   ID    Z sym.   atoms
    1    6 C      1, 3, 5, 7-10, 12, 14, 17-19, 22, 24
    2    8 O      2, 4, 13, 20, 23, 25
    3    7 N      6, 11, 15, 16, 21
    4    1 H      26-43

      * Solvation model:               ALPB
        Solvent                        DMSO
        Solvent mass                       7.8130E+01 g/mol
          :  Hamiltonian                  GFN1-xTB          :
 * total energy  :   -83.8122037 Eh     change        0.1165290E-09 Eh
 * total energy  :   -83.8242830 Eh     change       -0.1207933E-01 Eh
 * total energy  :   -83.8288189 Eh     change       -0.4535828E-02 Eh
 * total energy  :   -83.8293934 Eh     change       -0.5745042E-03 Eh
 * total energy  :   -83.8299619 Eh     change       -0.5685679E-03 Eh
 * total energy  :   -83.8301343 Eh     change       -0.1724030E-03 Eh
 * total energy  :   -83.8302749 Eh     change       -0.1405422E-03 Eh
 * total energy  :   -83.8303266 Eh     change       -0.5167887E-04 Eh
 * total energy  :   -83.8303572 Eh     change       -0.3060654E-04 Eh
 * total energy  :   -83.8303743 Eh     change       -0.1711585E-04 Eh
 * total energy  :   -83.8304057 Eh     change       -0.5860694E-05 Eh
 * total energy  :   -83.8304132 Eh     change       -0.7472820E-05 Eh
 * total energy  :   -83.8304220 Eh     change       -0.8811495E-05 Eh
 * total energy  :   -83.8304308 Eh     change       -0.8739278E-05 Eh
 * total energy  :   -83.8304404 Eh     change       -0.9691121E-05 Eh
 * total energy  :   -83.8304520 Eh     change       -0.1155307E-04 Eh
 * total energy  :   -83.8304629 Eh     change       -0.1086379E-04 Eh
 * total energy  :   -83.8304700 Eh     change       -0.7176821E-05 Eh
 * total energy  :   -83.8304725 Eh     change       -0.2507524E-05 Eh
   *** GEOMETRY OPTIMIZATION CONVERGED AFTER 22 ITERATIONS ***

 final structure:
================
43
 xtb: 6.5.1 (579679a)
C            6.10127083764975       -2.32714124362102       -0.35490392234739
O            4.88278150068488       -1.59801303296253       -0.34250953857549
C            4.84560496705815       -0.53091911591238        0.51264831648538
O            5.83126198272256       -0.25781588166214        1.22241974767232
C            3.61747921706924        0.20567617707562        0.50097989176477
N            2.60469235637805       -0.21967302474340       -0.34526667333760
C            1.49987210499717        0.43957446097293       -0.37341628210928
C            0.39941238328408        0.04233174853278       -1.34270127842276
C            0.49388764822388       -1.45979031805624       -1.64765549860769
C            0.61871248138307        0.87298183109349       -2.61952311192817
N           -0.87684087198083        0.38876449793987       -0.71373199031495
C           -2.09400458484902        0.04940629074635       -1.38440788258518
O           -2.15233524694158       -0.12203633432473       -2.63036720244985
C           -3.19590262519600       -0.00284942057817       -0.53145699933222
N           -4.51475744564319       -0.24482062775961       -0.84926991654134
N           -5.14208765299951       -0.19863552458170        0.32401638259865
C           -6.56981713586999       -0.41013681353287        0.36981688330223
C           -4.33893448048496        0.04060209394198        1.33654352727107
C           -4.68276684449650        0.16901811499630        2.77155486363738
O           -3.07573324227754        0.18245593978827        0.88234826486242
N            1.28679719249982        1.56110199527085        0.37880154491756
C            2.22669148260578        2.08764595027038        1.28364102490376
O            1.93288445867011        3.10394372908143        1.93208209452565
C            3.44006545429978        1.34333774363446        1.31610258287719
O            4.42541307361000        1.77085694930353        2.15714041939180
H            5.97285585446132       -3.15187683457816       -1.05545376497241
H            6.33003879645714       -2.72018728284075        0.64098912433779
H            6.93094346917665       -1.69126961645380       -0.68118531343615
H            0.30482683842304       -2.03616371803446       -0.74250963763662
H            1.49447410969773       -1.69620528097602       -2.00928726133812
H           -0.23583311188728       -1.73697651596162       -2.40687852992729
H           -0.09113351580436        0.58812418734699       -3.39368180706288
H            1.63055759093289        0.70597946354848       -2.98912065896879
H            0.49465900411406        1.93240091642472       -2.39703014203016
H           -0.90788652663711        0.08572143606189        0.25299467548343
H           -6.95251369411353       -0.34756089869481       -0.64613923001317
H           -6.78302410569926       -1.39387410750419        0.78635442474630
H           -7.02985926818935        0.35361471115293        0.99345388115394
H           -5.39667600396102        0.97939340714551        2.92706464984710
H           -5.13460148857695       -0.75025765658040        3.14654852229181
H           -3.77705957757859        0.37780799641793        3.33717583571465
H            0.39285692173192        2.02640271548859        0.32638825305278
H            5.19372969705778        1.15569889312430        2.05743473109963

          :  Hamiltonian                  GFN1-xTB          :
         :: total energy             -83.830472546099 Eh    ::
         :: gradient norm              0.000359870916 Eh/a0 ::
         :: HOMO-LUMO gap              0.036415348054 eV    ::
         :: SCC energy               -84.583032210642 Eh    ::
         :: -> Gsolv                  -0.124986902704 Eh    ::
         :: repulsion energy           0.778075476368 Eh    ::

    * Orbital Energies and Occupations

         #    Occupation            Energy/Eh            Energy/eV
      -------------------------------------------------------------
         1        2.0000           -0.8397227             -22.8500
       ...           ...                  ...                  ...
        56        2.0000           -0.4717079             -12.8358
        57        2.0000           -0.4648715             -12.6498
        58        2.0000           -0.4632754             -12.6064
        59        2.0000           -0.4474527             -12.1758
        60        2.0000           -0.4398748             -11.9696
        61        2.0000           -0.4360420             -11.8653
        62        2.0000           -0.4198182             -11.4238
        63        2.0000           -0.4134370             -11.2502
        64        2.0000           -0.4061545             -11.0520
        65        2.0000           -0.4024301             -10.9507
        66        2.0000           -0.3898299             -10.6078
        67        2.0000           -0.3819721             -10.3940
        68        1.3383           -0.2908010              -7.9131 (HOMO)
        69        0.6617           -0.2894628              -7.8767 (LUMO)
        70                         -0.2610834              -7.1044
        71                         -0.2360842              -6.4242
        72                         -0.1942004              -5.2845
        73                         -0.1533834              -4.1738
        74                         -0.1475836              -4.0160
        75                         -0.1387289              -3.7750
        76                         -0.1201319              -3.2690
        77                         -0.1105833              -3.0091
        78                         -0.1023758              -2.7858
        79                         -0.0991463              -2.6979
       ...                                ...                  ...
       136                          0.7066939              19.2301
      -------------------------------------------------------------
                  HL-Gap            0.0013382 Eh            0.0364 eV

Wiberg/Mayer (AO) data.
largest (>0.10) Wiberg bond orders for each atom

     #   Z sym  total        # sym  WBO       # sym  WBO       # sym  WBO
 ---------------------------------------------------------------------------
     1   6 C    3.898 --    26 H    0.987    28 H    0.980    27 H    0.980
                             2 O    0.927
     2   8 O    2.108 --     3 C    1.021     1 C    0.927
     3   6 C    3.726 --     4 O    1.470     5 C    1.166     2 O    1.021
     4   8 O    1.785 --     3 C    1.470
     5   6 C    3.824 --    24 C    1.298     3 C    1.166     6 N    1.135
     6   7 N    2.995 --     7 C    1.610     5 C    1.135
     7   6 C    3.912 --     6 N    1.610    21 N    1.154     8 C    0.976
     8   6 C    3.957 --     9 C    0.988    10 C    0.980     7 C    0.976
                            11 N    0.956
     9   6 C    3.993 --     8 C    0.988    29 H    0.987    30 H    0.984
                            31 H    0.984
    10   6 C    3.991 --    33 H    0.988    34 H    0.987     8 C    0.980
                            32 H    0.977
    11   7 N    3.093 --    12 C    1.009     8 C    0.956    35 H    0.926
    12   6 C    3.804 --    13 O    1.395    14 C    1.302    11 N    1.009
    13   8 O    1.653 --    12 C    1.395
    14   6 C    3.563 --    12 C    1.302    15 N    1.200    20 O    0.880
    15   7 N    2.689 --    14 C    1.200    16 N    1.171    18 C    0.200
    16   7 N    3.638 --    18 C    1.398    15 N    1.171    17 C    0.940
    17   6 C    3.936 --    36 H    0.983    38 H    0.981    37 H    0.976
                            16 N    0.940
    18   6 C    3.772 --    16 N    1.398    20 O    1.067    19 C    1.029
                            15 N    0.200
    19   6 C    3.987 --    18 C    1.029    41 H    0.980    40 H    0.967
                            39 H    0.966
    20   8 O    2.115 --    18 C    1.067    14 C    0.880
    21   7 N    3.330 --     7 C    1.154    22 C    1.037    42 H    0.895
    22   6 C    3.825 --    23 O    1.486    24 C    1.196    21 N    1.037
    23   8 O    1.739 --    22 C    1.486
    24   6 C    3.726 --     5 C    1.298    22 C    1.196    25 O    1.052
    25   8 O    1.979 --    24 C    1.052    43 H    0.788
    26   1 H    1.016 --     1 C    0.987
    27   1 H    1.013 --     1 C    0.980
    28   1 H    1.012 --     1 C    0.980
    29   1 H    1.007 --     9 C    0.987
    30   1 H    1.018 --     9 C    0.984
    31   1 H    1.015 --     9 C    0.984
    32   1 H    1.024 --    10 C    0.977
    33   1 H    1.008 --    10 C    0.988
    34   1 H    1.008 --    10 C    0.987
    35   1 H    0.966 --    11 N    0.926
    36   1 H    1.006 --    17 C    0.983
    37   1 H    0.999 --    17 C    0.976
    38   1 H    0.999 --    17 C    0.981
    39   1 H    0.996 --    19 C    0.966
    40   1 H    0.996 --    19 C    0.967
    41   1 H    0.997 --    19 C    0.980
    42   1 H    0.956 --    21 N    0.895
    43   1 H    0.879 --    25 O    0.788
 ---------------------------------------------------------------------------

           -------------------------------------------------
          | TOTAL ENERGY              -83.830472546099 Eh   |
          | GRADIENT NORM               0.000359870916 Eh/α |
          | HOMO-LUMO GAP               0.036415348054 eV   |
           -------------------------------------------------

 * finished run on 2023/06/20 at 15:10:39.166
