   * xtb version 6.5.1 (579679a) compiled by 'ehlert@majestix' on 2022-07-11
          program call               : /lustre/hpc/kemi/ree/PhD/git/ReactivityQM/dep/xtb-6.5.1/bin/xtb --gfn 1 /lustre/hpc/kemi/ree/PhD/git/ReactivityQM/calculations/RaltegravirCLI/reac02prodN14/conf07/RaltegravirCLI_reac02prodN14_conf07_gfn1.xyz --opt --vfukui --chrg 1 --uhf 0 --alpb DMSO

   ID    Z sym.   atoms
    1    6 C      1-3, 5, 7, 8, 11-15, 17-19, 21, 24, 25
    2    7 N      4, 6, 10, 23
    3    8 O      9, 20, 22
    4    9 F      16
    5    1 H      26-47

      * Solvation model:               ALPB
        Solvent                        DMSO
        Solvent mass                       7.8130E+01 g/mol
          :  Hamiltonian                  GFN1-xTB          :
 * total energy  :   -79.4666644 Eh     change       -0.7494805E-10 Eh
 * total energy  :   -79.4779911 Eh     change       -0.1132667E-01 Eh
 * total energy  :   -79.4814234 Eh     change       -0.3432325E-02 Eh
 * total energy  :   -79.4819505 Eh     change       -0.5270364E-03 Eh
 * total energy  :   -79.4822070 Eh     change       -0.2565505E-03 Eh
 * total energy  :   -79.4823063 Eh     change       -0.9924711E-04 Eh
 * total energy  :   -79.4823888 Eh     change       -0.8249125E-04 Eh
 * total energy  :   -79.4824522 Eh     change       -0.6344336E-04 Eh
 * total energy  :   -79.4824907 Eh     change       -0.3852197E-04 Eh
 * total energy  :   -79.4825112 Eh     change       -0.2047662E-04 Eh
 * total energy  :   -79.4825642 Eh     change       -0.9728011E-05 Eh
 * total energy  :   -79.4825720 Eh     change       -0.7850165E-05 Eh
 * total energy  :   -79.4825776 Eh     change       -0.5556020E-05 Eh
 * total energy  :   -79.4825827 Eh     change       -0.5122142E-05 Eh
 * total energy  :   -79.4825877 Eh     change       -0.5028940E-05 Eh
 * total energy  :   -79.4825943 Eh     change       -0.6511019E-05 Eh
 * total energy  :   -79.4826021 Eh     change       -0.7886373E-05 Eh
 * total energy  :   -79.4826103 Eh     change       -0.8162922E-05 Eh
 * total energy  :   -79.4826129 Eh     change       -0.2644489E-05 Eh
   *** GEOMETRY OPTIMIZATION CONVERGED AFTER 22 ITERATIONS ***

 final structure:
================
47
 xtb: 6.5.1 (579679a)
C           -2.45361251811895        2.30098753822298       -1.05755531995059
C           -3.18370975861152        0.96070713246006       -0.86017591762067
C           -3.64033593086105        0.41516494676903       -2.22447032264981
N           -4.34545293373041        1.14408592047773       -0.00410292518795
C           -2.18402857327828       -0.03191507081891       -0.29071752348859
N           -1.01625484709860       -0.02757552577752       -0.77024477051718
C            0.01216085800393       -0.87778422784621       -0.41894539179599
C            1.30574019076801       -0.53705363569210       -1.12033044976224
O            1.34709649991436        0.37197846258782       -1.93251373696254
N            2.36961053997405       -1.28646058618599       -0.78776490413544
C            3.67931037472484       -0.98609646260280       -1.34843647738467
C            4.42339282053660        0.06160628455383       -0.54552001374179
C            5.53537806531945        0.67959115855210       -1.11585966117249
C            6.24885891108907        1.63873456075764       -0.41222790949828
C            5.82817672533002        1.96457224639859        0.86516709078434
F            6.50982567566141        2.89557407295453        1.55041957441709
C            4.73261561145139        1.36862194690697        1.46162374992301
C            4.03160896765150        0.40921354981444        0.74353652576088
C           -0.22960087017163       -1.88336620161399        0.46546989101051
O            0.68538677056566       -2.79180158982204        0.82594324952164
C           -1.53189834778126       -2.04841807241143        1.08232489120493
O           -1.81959743480909       -2.92435382860594        1.84711410007641
N           -2.57306275105464       -1.00006942130376        0.78314924229874
C           -3.83493282391380       -1.72536313523894        0.44514138029186
C           -2.72934754953531       -0.25748692340593        2.07592640227983
H           -1.61036738607837        2.17563058686853       -1.73605568613585
H           -3.14912775820590        3.02612471940082       -1.47529342030086
H           -2.08663117919965        2.66918669064724       -0.10114217992831
H           -4.22154397325369       -0.49569329031029       -2.09671129843851
H           -4.26141191852828        1.16236840515121       -2.71603922556653
H           -2.77560602574585        0.20074390202160       -2.85122501649950
H           -5.17269449377890        1.28834923428079       -0.56649131221805
H           -4.22734570622081        1.96368296508557        0.57656338823960
H            2.30666090558129       -2.01018528979688       -0.09388017894906
H            4.25440630907929       -1.91594495738023       -1.37200135557507
H            3.53949389955332       -0.63515882595945       -2.37658755340723
H            5.84738986492028        0.40955647893600       -2.11819939580812
H            7.11295926124248        2.12617673341812       -0.84493180693117
H            4.43301415581944        1.64679544076905        2.46343105142379
H            3.17031798047394       -0.06686259252265        1.19495538633501
H            0.33115675978725       -3.42271171522189        1.47563689195537
H           -3.69009384369853       -2.24226425781180       -0.49969680651055
H           -4.03152536682062       -2.43603576435180        1.24442685398843
H           -4.63468650797206       -0.99422277061412        0.37638490446454
H           -2.90009850361864       -0.99133800786859        2.86018610863012
H           -1.81822171955622        0.30470474450929        2.26348310667219
H           -3.58337442580616        0.40400543160600        1.98069677085036

          :  Hamiltonian                  GFN1-xTB          :
         :: total energy             -79.482612945284 Eh    ::
         :: gradient norm              0.000364329576 Eh/a0 ::
         :: HOMO-LUMO gap              1.282073646721 eV    ::
         :: SCC energy               -80.381917926206 Eh    ::
         :: -> Gsolv                  -0.115562182588 Eh    ::
         :: repulsion energy           0.930838303674 Eh    ::

    * Orbital Energies and Occupations

         #    Occupation            Energy/Eh            Energy/eV
      -------------------------------------------------------------
         1        2.0000           -0.8925363             -24.2871
       ...           ...                  ...                  ...
        55        2.0000           -0.5237553             -14.2521
        56        2.0000           -0.5150516             -14.0153
        57        2.0000           -0.5104968             -13.8913
        58        2.0000           -0.5072852             -13.8039
        59        2.0000           -0.5070768             -13.7983
        60        2.0000           -0.4870608             -13.2536
        61        2.0000           -0.4800068             -13.0616
        62        2.0000           -0.4756297             -12.9425
        63        2.0000           -0.4698931             -12.7864
        64        2.0000           -0.4571201             -12.4389
        65        2.0000           -0.4556032             -12.3976
        66        2.0000           -0.4405131             -11.9870
        67        2.0000           -0.4376707             -11.9096 (HOMO)
        68                         -0.3905553             -10.6276 (LUMO)
        69                         -0.3192258              -8.6866
        70                         -0.2789652              -7.5910
        71                         -0.2781911              -7.5700
        72                         -0.2704303              -7.3588
        73                         -0.1999561              -5.4411
        74                         -0.1630080              -4.4357
        75                         -0.1578805              -4.2961
        76                         -0.1496153              -4.0712
        77                         -0.1389948              -3.7822
        78                         -0.1346392              -3.6637
       ...                                ...                  ...
       144                          0.7114855              19.3605
      -------------------------------------------------------------
                  HL-Gap            0.0471153 Eh            1.2821 eV

Wiberg/Mayer (AO) data.
largest (>0.10) Wiberg bond orders for each atom

     #   Z sym  total        # sym  WBO       # sym  WBO       # sym  WBO
 ---------------------------------------------------------------------------
     1   6 C    3.988 --    28 H    0.985    27 H    0.983    26 H    0.981
                             2 C    0.975
     2   6 C    3.958 --     4 N    0.993     5 C    0.983     1 C    0.975
                             3 C    0.966
     3   6 C    3.986 --    31 H    0.984    29 H    0.983    30 H    0.978
                             2 C    0.966
     4   7 N    2.996 --     2 C    0.993    33 H    0.930    32 H    0.928
     5   6 C    3.888 --     6 N    1.776     2 C    0.983    23 N    0.869
     6   7 N    3.088 --     5 C    1.776     7 C    1.117
     7   6 C    3.954 --    19 C    1.532     6 N    1.117     8 C    0.976
     8   6 C    3.918 --     9 O    1.591    10 N    1.277     7 C    0.976
     9   8 O    1.894 --     8 C    1.591    10 N    0.186
    10   7 N    3.379 --     8 C    1.277    11 C    0.944    34 H    0.884
                             9 O    0.186
    11   6 C    3.938 --    12 C    0.993    36 H    0.965    35 H    0.965
                            10 N    0.944
    12   6 C    3.987 --    18 C    1.422    13 C    1.411    11 C    0.993
    13   6 C    3.994 --    14 C    1.449    12 C    1.411    37 H    0.971
                            17 C    0.111
    14   6 C    3.991 --    13 C    1.449    15 C    1.397    38 H    0.969
                            18 C    0.110
    15   6 C    3.862 --    17 C    1.404    14 C    1.397    16 F    0.927
    16   9 F    1.055 --    15 C    0.927
    17   6 C    3.992 --    18 C    1.439    15 C    1.404    39 H    0.969
                            13 C    0.111
    18   6 C    3.994 --    17 C    1.439    12 C    1.422    40 H    0.970
                            14 C    0.110
    19   6 C    3.925 --     7 C    1.532    20 O    1.096    21 C    1.075
    20   8 O    2.090 --    19 C    1.096    41 H    0.789
    21   6 C    3.870 --    22 O    1.754    19 C    1.075    23 N    0.861
    22   8 O    2.048 --    21 C    1.754
    23   7 N    3.622 --    24 C    0.879     5 C    0.869    25 C    0.869
                            21 C    0.861
    24   6 C    3.876 --    42 H    0.983    43 H    0.976    44 H    0.969
                            23 N    0.879
    25   6 C    3.876 --    46 H    0.982    45 H    0.977    47 H    0.970
                            23 N    0.869
    26   1 H    1.009 --     1 C    0.981
    27   1 H    1.000 --     1 C    0.983
    28   1 H    1.001 --     1 C    0.985
    29   1 H    1.000 --     3 C    0.983
    30   1 H    0.997 --     3 C    0.978
    31   1 H    1.002 --     3 C    0.984
    32   1 H    0.943 --     4 N    0.928
    33   1 H    0.948 --     4 N    0.930
    34   1 H    0.938 --    10 N    0.884
    35   1 H    1.002 --    11 C    0.965
    36   1 H    1.008 --    11 C    0.965
    37   1 H    0.998 --    13 C    0.971
    38   1 H    0.997 --    14 C    0.969
    39   1 H    0.997 --    17 C    0.969
    40   1 H    1.003 --    18 C    0.970
    41   1 H    0.818 --    20 O    0.789
    42   1 H    0.995 --    24 C    0.983
    43   1 H    0.997 --    24 C    0.976
    44   1 H    1.016 --    24 C    0.969
    45   1 H    0.994 --    25 C    0.977
    46   1 H    0.992 --    25 C    0.982
    47   1 H    1.008 --    25 C    0.970
 ---------------------------------------------------------------------------

           -------------------------------------------------
          | TOTAL ENERGY              -79.482612945284 Eh   |
          | GRADIENT NORM               0.000364329576 Eh/α |
          | HOMO-LUMO GAP               1.282073646721 eV   |
           -------------------------------------------------

 * finished run on 2023/06/20 at 15:35:54.154
