   * xtb version 6.5.1 (579679a) compiled by 'ehlert@majestix' on 2022-07-11
          program call               : /lustre/hpc/kemi/ree/PhD/git/ReactivityQM/dep/xtb-6.5.1/bin/xtb --gfn 1 /lustre/hpc/kemi/ree/PhD/git/ReactivityQM/calculations/RaltegravirCLI/reac02prodN13/conf07/RaltegravirCLI_reac02prodN13_conf07_gfn1.xyz --opt --vfukui --chrg 1 --uhf 0 --alpb DMSO

   ID    Z sym.   atoms
    1    6 C      1, 3-6, 9, 10, 13-17, 19-21, 23, 24
    2    7 N      2, 7, 8, 12
    3    8 O      11, 22, 25
    4    9 F      18
    5    1 H      26-47

      * Solvation model:               ALPB
        Solvent                        DMSO
        Solvent mass                       7.8130E+01 g/mol
          :  Hamiltonian                  GFN1-xTB          :
 * total energy  :   -79.4015093 Eh     change       -0.2271321E-09 Eh
 * total energy  :   -79.4220846 Eh     change       -0.2057529E-01 Eh
 * total energy  :   -79.4341467 Eh     change       -0.1206216E-01 Eh
 * total energy  :   -79.4379178 Eh     change       -0.3771092E-02 Eh
 * total energy  :   -79.4411304 Eh     change       -0.3212555E-02 Eh
 * total energy  :   -79.4426586 Eh     change       -0.1528221E-02 Eh
 * total energy  :   -79.4435704 Eh     change       -0.9117860E-03 Eh
 * total energy  :   -79.4441598 Eh     change       -0.5893681E-03 Eh
 * total energy  :   -79.4446437 Eh     change       -0.4838982E-03 Eh
 * total energy  :   -79.4451114 Eh     change       -0.4677632E-03 Eh
 * total energy  :   -79.4522000 Eh     change       -0.1135604E-04 Eh
 * total energy  :   -79.4522085 Eh     change       -0.8489237E-05 Eh
 * total energy  :   -79.4522154 Eh     change       -0.6864220E-05 Eh
 * total energy  :   -79.4522216 Eh     change       -0.6285228E-05 Eh
 * total energy  :   -79.4522278 Eh     change       -0.6193142E-05 Eh
 * total energy  :   -79.4522340 Eh     change       -0.6178783E-05 Eh
 * total energy  :   -79.4522401 Eh     change       -0.6064153E-05 Eh
 * total energy  :   -79.4522458 Eh     change       -0.5723535E-05 Eh
 * total energy  :   -79.4522489 Eh     change       -0.3059306E-05 Eh
   *** GEOMETRY OPTIMIZATION CONVERGED AFTER 68 ITERATIONS ***

 final structure:
================
47
 xtb: 6.5.1 (579679a)
C           -3.69194238371497       -1.07874860182222        1.63344967873844
N           -2.58468282604494       -1.13930149288716        0.69084137735628
C           -2.04372989059176       -0.08122526614483        0.08304818268588
C           -2.76462330450786        1.24383680743373       -0.11300072873360
C           -4.00510030230569        0.98490231956984       -0.98076986259925
C           -1.83326677290941        2.23691846541976       -0.82126386079172
N           -3.18257191178651        1.78192741368988        1.17725291608715
N           -0.79250121122754       -0.14509436945402       -0.35516649715520
C           -0.07827422069531       -1.26173388112651       -0.33872103192484
C            1.35284677267940       -1.13630451159114       -0.55499089793085
O            2.14983193807042       -2.16036727187745       -0.46444045329952
N            1.82599392023507        0.01070655422062       -0.96302892059755
C            3.21289567667219        0.22207366282097       -1.38483453989063
C            4.03586802110668        0.75836522338711       -0.23375766703931
C            4.27028004093643        2.12608999617578       -0.11905360183923
C            5.03229903413289        2.62155874202650        0.92961367414094
C            5.54285581108738        1.72452473179647        1.85113054022336
F            6.28131261616775        2.19377603746205        2.86351434376479
C            5.32083849057117        0.36063262128603        1.76832541228167
C            4.55801086362417       -0.11938296384430        0.71418053811438
C           -0.58139162800134       -2.54132781635483        0.07507803667136
O            0.04454837611808       -3.57856748740193        0.04488313344117
C           -2.10203938490568       -2.52620694275388        0.51080384918627
C           -2.54766829308811       -2.87704200635807       -0.99572345640279
O           -2.48467562865366       -3.35006296000135        1.37295483588255
H           -3.32984459169323       -1.45647873120006        2.59208539236901
H           -4.04785473851687       -0.05855632196616        1.73597390986768
H           -4.48067638170757       -1.74368779969808        1.27787905063360
H           -3.71134870406814        0.51752967920510       -1.91959631296598
H           -4.70875791651208        0.33373252068195       -0.46567744623582
H           -4.49619998463696        1.93213449612805       -1.19763212151128
H           -1.53479326631632        1.84990561081288       -1.79391469504776
H           -2.35440040680346        3.18280791870249       -0.95820775049058
H           -0.94129106333882        2.40917251370422       -0.22212206019523
H           -2.36409310178161        2.06770131324826        1.69735769626083
H           -3.74956673517491        2.60336012628771        1.01460577228425
H            1.17966554214773        0.78809889506587       -1.00716793569780
H            3.60281655498326       -0.73688173575673       -1.73277887037475
H            3.18657861324818        0.93266644455640       -2.21236110565511
H            3.86090913581013        2.80846769464063       -0.85358750512843
H            5.22495447492184        3.68163569322017        1.03064419549581
H            5.73681602597188       -0.30814205303057        2.51084158788255
H            4.37033607949461       -1.18238883463680        0.62467318767231
H            1.63820427930240       -2.99568693905116       -0.27299455575767
H           -2.19901605728031       -3.88214815699135       -1.21537583082950
H           -3.63390359684831       -2.85164857066861       -0.95661545443915
H           -2.18364796417065       -2.16154476692494       -1.72436614850348

          :  Hamiltonian                  GFN1-xTB          :
         :: total energy             -79.452248858860 Eh    ::
         :: gradient norm              0.000192958491 Eh/a0 ::
         :: HOMO-LUMO gap              0.447617292840 eV    ::
         :: SCC energy               -80.340459537506 Eh    ::
         :: -> Gsolv                  -0.109854401835 Eh    ::
         :: repulsion energy           0.919310614224 Eh    ::

    * Orbital Energies and Occupations

         #    Occupation            Energy/Eh            Energy/eV
      -------------------------------------------------------------
         1        2.0000           -0.8798506             -23.9420
       ...           ...                  ...                  ...
        55        2.0000           -0.5258154             -14.3082
        56        2.0000           -0.5177308             -14.0882
        57        2.0000           -0.5158949             -14.0382
        58        2.0000           -0.5085200             -13.8375
        59        2.0000           -0.5014227             -13.6444
        60        2.0000           -0.4927721             -13.4090
        61        2.0000           -0.4882573             -13.2862
        62        2.0000           -0.4874240             -13.2635
        63        2.0000           -0.4703607             -12.7992
        64        2.0000           -0.4667159             -12.7000
        65        2.0000           -0.4546977             -12.3730
        66        2.0000           -0.4462794             -12.1439
        67        1.9997           -0.4301042             -11.7037 (HOMO)
        68        0.0003           -0.4136545             -11.2561 (LUMO)
        69                         -0.3358230              -9.1382
        70                         -0.3200827              -8.7099
        71                         -0.2885066              -7.8507
        72                         -0.2848008              -7.7498
        73                         -0.2282435              -6.2108
        74                         -0.1628642              -4.4318
        75                         -0.1547506              -4.2110
        76                         -0.1508326              -4.1044
        77                         -0.1465632              -3.9882
        78                         -0.1416986              -3.8558
       ...                                ...                  ...
       144                          0.6716266              18.2759
      -------------------------------------------------------------
                  HL-Gap            0.0164496 Eh            0.4476 eV

Wiberg/Mayer (AO) data.
largest (>0.10) Wiberg bond orders for each atom

     #   Z sym  total        # sym  WBO       # sym  WBO       # sym  WBO
 ---------------------------------------------------------------------------
     1   6 C    3.900 --    27 H    0.965    28 H    0.957    26 H    0.954
                             2 N    0.933
     2   7 N    3.561 --     3 C    1.339     1 C    0.933    23 C    0.909
                            25 O    0.150
     3   6 C    3.902 --     8 N    1.356     2 N    1.339     4 C    0.972
     4   6 C    3.961 --     6 C    0.992     7 N    0.982     5 C    0.978
                             3 C    0.972
     5   6 C    3.990 --    29 H    0.985    30 H    0.983    31 H    0.980
                             4 C    0.978
     6   6 C    3.992 --     4 C    0.992    34 H    0.983    32 H    0.982
                            33 H    0.982
     7   7 N    2.992 --     4 C    0.982    35 H    0.937    36 H    0.933
     8   7 N    3.102 --     9 C    1.372     3 C    1.356
     9   6 C    3.944 --     8 N    1.372    21 C    1.139    10 C    1.093
    10   6 C    3.887 --    12 N    1.457    11 O    1.208     9 C    1.093
    11   8 O    2.156 --    10 C    1.208    44 H    0.728    12 N    0.106
    12   7 N    3.478 --    10 C    1.457    13 C    0.909    37 H    0.877
                            11 O    0.106
    13   6 C    3.908 --    14 C    0.984    39 H    0.970    38 H    0.968
                            12 N    0.909
    14   6 C    3.978 --    15 C    1.420    20 C    1.415    13 C    0.984
    15   6 C    3.992 --    16 C    1.443    14 C    1.420    40 H    0.970
                            19 C    0.109
    16   6 C    3.990 --    15 C    1.443    17 C    1.399    41 H    0.968
                            20 C    0.110
    17   6 C    3.863 --    16 C    1.399    19 C    1.396    18 F    0.936
    18   9 F    1.067 --    17 C    0.936
    19   6 C    3.991 --    20 C    1.448    17 C    1.396    42 H    0.968
                            15 C    0.109
    20   6 C    3.992 --    19 C    1.448    14 C    1.415    43 H    0.970
                            16 C    0.110
    21   6 C    3.865 --    22 O    1.666     9 C    1.139    23 C    0.759
    22   8 O    2.087 --    21 C    1.666
    23   6 C    3.921 --    25 O    1.371     2 N    0.909    21 C    0.759
                            24 C    0.727
    24   6 C    3.953 --    47 H    0.985    45 H    0.977    46 H    0.963
                            23 C    0.727
    25   8 O    1.837 --    23 C    1.371     2 N    0.150
    26   1 H    1.003 --     1 C    0.954
    27   1 H    1.024 --     1 C    0.965
    28   1 H    0.998 --     1 C    0.957
    29   1 H    1.001 --     5 C    0.985
    30   1 H    1.001 --     5 C    0.983
    31   1 H    0.997 --     5 C    0.980
    32   1 H    1.004 --     6 C    0.982
    33   1 H    1.000 --     6 C    0.982
    34   1 H    1.008 --     6 C    0.983
    35   1 H    0.951 --     7 N    0.937
    36   1 H    0.947 --     7 N    0.933
    37   1 H    0.937 --    12 N    0.877
    38   1 H    0.998 --    13 C    0.968
    39   1 H    0.996 --    13 C    0.970
    40   1 H    0.997 --    15 C    0.970
    41   1 H    0.996 --    16 C    0.968
    42   1 H    0.996 --    19 C    0.968
    43   1 H    1.002 --    20 C    0.970
    44   1 H    0.818 --    11 O    0.728
    45   1 H    0.998 --    24 C    0.977
    46   1 H    0.995 --    24 C    0.963
    47   1 H    0.996 --    24 C    0.985
 ---------------------------------------------------------------------------

           -------------------------------------------------
          | TOTAL ENERGY              -79.452248858860 Eh   |
          | GRADIENT NORM               0.000192958491 Eh/α |
          | HOMO-LUMO GAP               0.447617292840 eV   |
           -------------------------------------------------

 * finished run on 2023/06/20 at 15:34:59.511
