   * xtb version 6.5.1 (579679a) compiled by 'ehlert@majestix' on 2022-07-11
          program call               : /lustre/hpc/kemi/ree/PhD/git/ReactivityQM/dep/xtb-6.5.1/bin/xtb --gfn 1 /lustre/hpc/kemi/ree/PhD/git/ReactivityQM/calculations/R01/reac02prodE02/conf11/R01_reac02prodE02_conf11_gfn1.xyz --opt --vfukui --chrg -1 --uhf 0 --alpb DMSO

   ID    Z sym.   atoms
    1    6 C      1, 3, 5, 6, 8-11, 14, 16
    2    8 O      2, 4, 15, 17
    3    7 N      7, 12, 13
    4    1 H      18-33

      * Solvation model:               ALPB
        Solvent                        DMSO
        Solvent mass                       7.8130E+01 g/mol
          :  Hamiltonian                  GFN1-xTB          :
 * total energy  :   -58.4916292 Eh     change       -0.9592327E-12 Eh
 * total energy  :   -58.5054142 Eh     change       -0.1378498E-01 Eh
 * total energy  :   -58.5104709 Eh     change       -0.5056663E-02 Eh
 * total energy  :   -58.5117096 Eh     change       -0.1238744E-02 Eh
 * total energy  :   -58.5128076 Eh     change       -0.1097934E-02 Eh
 * total energy  :   -58.5134733 Eh     change       -0.6656927E-03 Eh
 * total energy  :   -58.5141011 Eh     change       -0.6278640E-03 Eh
 * total energy  :   -58.5146043 Eh     change       -0.5031811E-03 Eh
 * total energy  :   -58.5149679 Eh     change       -0.3635971E-03 Eh
 * total energy  :   -58.5151218 Eh     change       -0.1538582E-03 Eh
 * total energy  :   -58.5197693 Eh     change        0.2275784E-05 Eh
 * total energy  :   -58.5197873 Eh     change       -0.1794781E-04 Eh
 * total energy  :   -58.5198010 Eh     change       -0.1369275E-04 Eh
 * total energy  :   -58.5198147 Eh     change       -0.1370093E-04 Eh
 * total energy  :   -58.5198362 Eh     change       -0.2150057E-04 Eh
 * total energy  :   -58.5198512 Eh     change       -0.1508282E-04 Eh
 * total energy  :   -58.5198675 Eh     change       -0.1625411E-04 Eh
 * total energy  :   -58.5198752 Eh     change       -0.7728362E-05 Eh
 * total energy  :   -58.5198785 Eh     change       -0.3262994E-05 Eh
   *** GEOMETRY OPTIMIZATION CONVERGED AFTER 49 ITERATIONS ***

 final structure:
================
33
 xtb: 6.5.1 (579679a)
C            4.26006577589371       -0.84859812559223        1.00181321026174
O            3.44751206317960       -0.64206420780531       -0.14892437617627
C            2.19731494620260       -0.06439053581934        0.11652444032341
O            2.26974213612548        1.23248988444162        0.63616399164618
C            2.14895729815045        2.28100788333418       -0.31845962041379
C            1.00767521958350       -0.67373666226713       -0.16731085377996
N           -0.13801136973523        0.11572046908981        0.05729415225965
C           -1.30116351203686       -0.37152650619545       -0.19517289842237
C           -2.52591651360060        0.51264157052843        0.02632208323640
C           -2.23567798427019        1.51221141980577        1.15286449731405
C           -2.82916512806186        1.26057772303148       -1.27900964823333
N           -3.70793742452629       -0.26294341309396        0.39562287509404
N           -1.50153789781387       -1.61644131615302       -0.68480199605812
C           -0.42810355750211       -2.53444260365572       -0.94839630763447
O           -0.75135741228957       -3.66891311781967       -1.38156958539668
C            0.82322485041128       -2.00668770837763       -0.67240309051195
O            1.93861063704936       -2.84929156878267       -0.86657631897528
H            3.79866689779284       -1.57117309943611        1.68759136486153
H            5.21856239395951       -1.23885408450122        0.65762171290763
H            4.42758423115227        0.09412488995695        1.53594239212005
H            2.92197702733453        2.20887103890717       -1.09365618551623
H            1.15988485546910        2.26081330084784       -0.79459272489064
H            2.26795677997065        3.22397935704666        0.21887518769478
H           -1.36534452937070        2.11777954382371        0.90005551320449
H           -2.03171401887145        0.97991331655833        2.08209892969349
H           -3.09712304042361        2.16212088672171        1.30173234621651
H           -3.01296232204060        0.55070014292873       -2.08511207405973
H           -1.98346244358041        1.89100160781631       -1.55343769424181
H           -3.71297098740592        1.88592149822130       -1.15534515281345
H           -4.08611520876815       -0.74737816223700       -0.40560250908043
H           -3.47989122583896       -0.94515893572932        1.10690510961280
H           -2.43212531777989       -1.94861827875759       -0.86684638028261
H            2.73284778163917       -2.29965920683836       -0.95034538996071

          :  Hamiltonian                  GFN1-xTB          :
         :: total energy             -58.519878481461 Eh    ::
         :: gradient norm              0.000422024663 Eh/a0 ::
         :: HOMO-LUMO gap              2.186737664972 eV    ::
         :: SCC energy               -59.059666546208 Eh    ::
         :: -> Gsolv                  -0.107705631645 Eh    ::
         :: repulsion energy           0.558572758584 Eh    ::

    * Orbital Energies and Occupations

         #    Occupation            Energy/Eh            Energy/eV
      -------------------------------------------------------------
         1        2.0000           -0.7624026             -20.7460
       ...           ...                  ...                  ...
        36        2.0000           -0.4725932             -12.8599
        37        2.0000           -0.4705886             -12.8054
        38        2.0000           -0.4679822             -12.7344
        39        2.0000           -0.4635279             -12.6132
        40        2.0000           -0.4544785             -12.3670
        41        2.0000           -0.4345288             -11.8241
        42        2.0000           -0.4302364             -11.7073
        43        2.0000           -0.4164545             -11.3323
        44        2.0000           -0.3986118             -10.8468
        45        2.0000           -0.3796974             -10.3321
        46        2.0000           -0.3790174             -10.3136
        47        2.0000           -0.3627934              -9.8721
        48        2.0000           -0.2972347              -8.0882 (HOMO)
        49                         -0.2168736              -5.9014 (LUMO)
        50                         -0.1847302              -5.0268
        51                         -0.1163249              -3.1654
        52                         -0.1126939              -3.0666
        53                         -0.1099441              -2.9917
        54                         -0.1062415              -2.8910
        55                         -0.0937009              -2.5497
        56                         -0.0824069              -2.2424
        57                         -0.0657682              -1.7896
        58                         -0.0550237              -1.4973
        59                         -0.0532169              -1.4481
       ...                                ...                  ...
       100                          0.7264632              19.7681
      -------------------------------------------------------------
                  HL-Gap            0.0803611 Eh            2.1867 eV

Wiberg/Mayer (AO) data.
largest (>0.10) Wiberg bond orders for each atom

     #   Z sym  total        # sym  WBO       # sym  WBO       # sym  WBO
 ---------------------------------------------------------------------------
     1   6 C    3.915 --    19 H    0.986    20 H    0.983    18 H    0.983
                             2 O    0.935
     2   8 O    2.039 --     1 C    0.935     3 C    0.928
     3   6 C    3.743 --     6 C    1.532     4 O    0.937     2 O    0.928
     4   8 O    2.009 --     3 C    0.937     5 C    0.937
     5   6 C    3.920 --    23 H    0.986    21 H    0.983    22 H    0.981
                             4 O    0.937
     6   6 C    3.956 --     3 C    1.532    16 C    1.169     7 N    1.072
     7   7 N    3.000 --     8 C    1.613     6 C    1.072    13 N    0.132
     8   6 C    3.944 --     7 N    1.613    13 N    1.200     9 C    0.963
     9   6 C    3.966 --    10 C    0.996    11 C    0.987    12 N    0.982
                             8 C    0.963
    10   6 C    3.997 --     9 C    0.996    26 H    0.988    25 H    0.986
                            24 H    0.984
    11   6 C    3.995 --     9 C    0.987    28 H    0.986    29 H    0.986
                            27 H    0.986
    12   7 N    2.952 --     9 C    0.982    31 H    0.946    30 H    0.945
    13   7 N    3.363 --     8 C    1.200    14 C    0.952    32 H    0.907
                             7 N    0.132
    14   6 C    3.908 --    15 O    1.404    16 C    1.392    13 N    0.952
    15   8 O    1.713 --    14 C    1.404    16 C    0.140
    16   6 C    3.842 --    14 C    1.392     6 C    1.169    17 O    0.955
                            15 O    0.140
    17   8 O    1.923 --    16 C    0.955    33 H    0.854
    18   1 H    1.018 --     1 C    0.983
    19   1 H    1.019 --     1 C    0.986
    20   1 H    1.021 --     1 C    0.983
    21   1 H    1.016 --     5 C    0.983
    22   1 H    1.031 --     5 C    0.981
    23   1 H    1.020 --     5 C    0.986
    24   1 H    1.022 --    10 C    0.984
    25   1 H    1.009 --    10 C    0.986
    26   1 H    1.010 --    10 C    0.988
    27   1 H    1.004 --    11 C    0.986
    28   1 H    1.008 --    11 C    0.986
    29   1 H    1.005 --    11 C    0.986
    30   1 H    0.962 --    12 N    0.945
    31   1 H    0.963 --    12 N    0.946
    32   1 H    0.959 --    13 N    0.907
    33   1 H    0.903 --    17 O    0.854
 ---------------------------------------------------------------------------

           -------------------------------------------------
          | TOTAL ENERGY              -58.519878481461 Eh   |
          | GRADIENT NORM               0.000422024663 Eh/α |
          | HOMO-LUMO GAP               2.186737664972 eV   |
           -------------------------------------------------

 * finished run on 2023/06/20 at 14:57:28.008
