   * xtb version 6.5.1 (579679a) compiled by 'ehlert@majestix' on 2022-07-11
          program call               : /lustre/hpc/kemi/ree/PhD/git/ReactivityQM/dep/xtb-6.5.1/bin/xtb --gfn 1 /lustre/hpc/kemi/ree/PhD/git/ReactivityQM/calculations/R02oxygendeprot/reac01prodE03/conf20/R02oxygendeprot_reac01prodE03_conf20_gfn1.xyz --opt --vfukui --chrg -2 --uhf 0 --alpb DMSO

   ID    Z sym.   atoms
    1    6 C      1, 3, 5, 6, 8-11, 13, 15, 18, 19, 22, 24
    2    8 O      2, 4, 14, 20, 23, 25
    3    7 N      7, 12, 16, 17, 21
    4    1 H      26-42

      * Solvation model:               ALPB
        Solvent                        DMSO
        Solvent mass                       7.8130E+01 g/mol
          :  Hamiltonian                  GFN1-xTB          :
 * total energy  :   -83.5531921 Eh     change       -0.1295831E-08 Eh
 * total energy  :   -83.5685814 Eh     change       -0.1538934E-01 Eh
 * total energy  :   -83.5743708 Eh     change       -0.5789352E-02 Eh
 * total energy  :   -83.5757221 Eh     change       -0.1351335E-02 Eh
 * total energy  :   -83.5764084 Eh     change       -0.6862540E-03 Eh
 * total energy  :   -83.5766898 Eh     change       -0.2814055E-03 Eh
 * total energy  :   -83.5769185 Eh     change       -0.2287447E-03 Eh
 * total energy  :   -83.5771232 Eh     change       -0.2046330E-03 Eh
 * total energy  :   -83.5773069 Eh     change       -0.1837137E-03 Eh
 * total energy  :   -83.5774544 Eh     change       -0.1475258E-03 Eh
 * total energy  :   -83.5814956 Eh     change       -0.2219202E-04 Eh
 * total energy  :   -83.5815106 Eh     change       -0.1501717E-04 Eh
 * total energy  :   -83.5815166 Eh     change       -0.5926214E-05 Eh
 * total energy  :   -83.5815305 Eh     change       -0.1393870E-04 Eh
 * total energy  :   -83.5815430 Eh     change       -0.1248915E-04 Eh
 * total energy  :   -83.5815541 Eh     change       -0.1112762E-04 Eh
 * total energy  :   -83.5815614 Eh     change       -0.7317833E-05 Eh
 * total energy  :   -83.5815729 Eh     change       -0.1146484E-04 Eh
 * total energy  :   -83.5815776 Eh     change       -0.4742233E-05 Eh
   *** GEOMETRY OPTIMIZATION CONVERGED AFTER 65 ITERATIONS ***

 final structure:
================
42
 xtb: 6.5.1 (579679a)
C           -3.83579188940292        1.36631892211553        1.66643155408196
O           -3.76271113853302        1.73783500170362        0.29687565702241
C           -3.76167938219848        0.69793887266350       -0.63625658961099
O           -4.84899909016604        0.72197198664123       -1.49397851597096
C           -6.12511309033131        0.83103248834423       -0.89090013543640
C           -2.71367671033524       -0.19205818012678       -0.76160218006757
N           -1.65015257769599        0.02566365681162        0.12203600833896
C           -0.60898969111202       -0.73571066705523        0.06995398243211
C            0.54504811050452       -0.54090419111625        1.04032265350593
C            0.43927075679355        0.83471282548199        1.71308346720605
C            0.48602585165160       -1.66056721962463        2.09195108580567
N            1.77963613188419       -0.65425781263789        0.25502642034610
C            3.02288627599259       -0.35874245667791        0.84665649827233
O            3.24253979735757       -0.48248077047583        2.07184901408746
C            3.98001598167687        0.03423864401264       -0.13332442935562
N            3.74732349840084        0.19488179215974       -1.44332540760473
N            4.92679596267173        0.61244684525229       -1.99775260505590
C            5.79649100440651        0.68826283108419       -1.04504496084276
C            7.21671940714739        1.10385564054649       -1.16397323057568
O            5.29481570406325        0.34284216342791        0.16615308316074
N           -0.49274539764649       -1.75676361212369       -0.82050752303331
C           -1.48994588436418       -2.10654705403226       -1.74532756982732
O           -1.25638564543300       -3.08822462670367       -2.49907226075839
C           -2.68402341914275       -1.28807970784000       -1.72985559698261
O           -3.65334370898432       -1.52790162882381       -2.52332807595115
H           -4.67675099074861        0.68739914195495        1.85491714719654
H           -3.98327096605970        2.28337275694726        2.24012787848432
H           -2.90668588598402        0.88116355726651        1.99347162733756
H           -6.23430044685883        1.78218266806507       -0.35527570246012
H           -6.31063912948453        0.00709625749148       -0.18811715843541
H           -6.86528588558687        0.79088842400674       -1.69218484338433
H            0.50122954916623        1.62465928716182        0.96431859050709
H           -0.51930223345800        0.91493784695064        2.22471168465236
H            1.23885122762599        0.96592367093144        2.44026207905635
H            1.27018111134306       -1.53317188911968        2.83605551702009
H            0.61174258447803       -2.63010745230440        1.61062141051834
H           -0.48173951307499       -1.63774288948100        2.59234805577113
H            1.69718246339277       -0.23740294787360       -0.66895403266880
H            7.40137087549564        2.00232282624059       -0.57431741591301
H            7.87625816342473        0.31857476340953       -0.79436168057267
H            7.44873977622589        1.30696794562351       -2.20676816005364
H            0.33840944289484       -2.32682771028167       -0.81643034024206

          :  Hamiltonian                  GFN1-xTB          :
         :: total energy             -83.581577630865 Eh    ::
         :: gradient norm              0.000841174858 Eh/a0 ::
         :: HOMO-LUMO gap              0.037358661673 eV    ::
         :: SCC energy               -84.302712755852 Eh    ::
         :: -> Gsolv                  -0.271980522909 Eh    ::
         :: repulsion energy           0.746915114722 Eh    ::

    * Orbital Energies and Occupations

         #    Occupation            Energy/Eh            Energy/eV
      -------------------------------------------------------------
         1        2.0000           -0.7986371             -21.7320
       ...           ...                  ...                  ...
        56        2.0000           -0.4452781             -12.1166
        57        2.0000           -0.4296839             -11.6923
        58        2.0000           -0.4276382             -11.6366
        59        2.0000           -0.4065677             -11.0633
        60        2.0000           -0.4055401             -11.0353
        61        2.0000           -0.4034490             -10.9784
        62        2.0000           -0.4023229             -10.9478
        63        2.0000           -0.3955911             -10.7646
        64        2.0000           -0.3866431             -10.5211
        65        2.0000           -0.3783502             -10.2954
        66        2.0000           -0.3463371              -9.4243
        67        2.0000           -0.3417213              -9.2987
        68        1.3463           -0.2671641              -7.2699 (HOMO)
        69        0.6537           -0.2657912              -7.2325 (LUMO)
        70                         -0.2084596              -5.6725
        71                         -0.2068597              -5.6289
        72                         -0.1801924              -4.9033
        73                         -0.1383726              -3.7653
        74                         -0.1237206              -3.3666
        75                         -0.1167765              -3.1777
        76                         -0.1113003              -3.0286
        77                         -0.0965925              -2.6284
        78                         -0.0921546              -2.5077
        79                         -0.0761829              -2.0730
       ...                                ...                  ...
       134                          0.7289606              19.8360
      -------------------------------------------------------------
                  HL-Gap            0.0013729 Eh            0.0374 eV

Wiberg/Mayer (AO) data.
largest (>0.10) Wiberg bond orders for each atom

     #   Z sym  total        # sym  WBO       # sym  WBO       # sym  WBO
 ---------------------------------------------------------------------------
     1   6 C    3.908 --    27 H    0.986    26 H    0.982    28 H    0.975
                             2 O    0.934
     2   8 O    2.012 --     3 C    0.942     1 C    0.934
     3   6 C    3.544 --     6 C    1.465     4 O    0.965     2 O    0.942
     4   8 O    2.036 --     3 C    0.965     5 C    0.940
     5   6 C    3.913 --    31 H    0.985    29 H    0.982    30 H    0.980
                             4 O    0.940
     6   6 C    3.940 --     3 C    1.465    24 C    1.115     7 N    1.104
     7   7 N    2.979 --     8 C    1.573     6 C    1.104    21 N    0.111
     8   6 C    3.912 --     7 N    1.573    21 N    1.163     9 C    0.975
     9   6 C    3.951 --    10 C    0.991    11 C    0.985     8 C    0.975
                            12 N    0.940
    10   6 C    3.993 --     9 C    0.991    32 H    0.986    34 H    0.984
                            33 H    0.983
    11   6 C    3.991 --    37 H    0.988    36 H    0.986     9 C    0.985
                            35 H    0.980
    12   7 N    3.130 --    13 C    1.065     9 C    0.940    38 H    0.920
                            14 O    0.103
    13   6 C    3.742 --    14 O    1.443    15 C    1.166    12 N    1.065
    14   8 O    1.682 --    13 C    1.443    12 N    0.103
    15   6 C    3.690 --    16 N    1.380    13 C    1.166    20 O    0.973
    16   7 N    2.733 --    15 C    1.380    17 N    1.184
    17   7 N    2.980 --    18 C    1.629    16 N    1.184
    18   6 C    3.818 --    17 N    1.629    20 O    1.048    19 C    1.023
    19   6 C    3.994 --    18 C    1.023    41 H    0.986    40 H    0.972
                            39 H    0.971
    20   8 O    2.178 --    18 C    1.048    15 C    0.973
    21   7 N    3.388 --     8 C    1.163    22 C    1.040    42 H    0.907
                             7 N    0.111
    22   6 C    3.769 --    23 O    1.423    24 C    1.140    21 N    1.040
    23   8 O    1.645 --    22 C    1.423
    24   6 C    3.810 --    25 O    1.391    22 C    1.140     6 C    1.115
    25   8 O    1.585 --    24 C    1.391
    26   1 H    1.015 --     1 C    0.982
    27   1 H    1.019 --     1 C    0.986
    28   1 H    1.043 --     1 C    0.975
    29   1 H    1.019 --     5 C    0.982
    30   1 H    1.012 --     5 C    0.980
    31   1 H    1.019 --     5 C    0.985
    32   1 H    1.011 --    10 C    0.986
    33   1 H    1.021 --    10 C    0.983
    34   1 H    1.014 --    10 C    0.984
    35   1 H    1.023 --    11 C    0.980
    36   1 H    1.010 --    11 C    0.986
    37   1 H    1.008 --    11 C    0.988
    38   1 H    0.983 --    12 N    0.920
    39   1 H    1.001 --    19 C    0.971
    40   1 H    1.001 --    19 C    0.972
    41   1 H    1.005 --    19 C    0.986
    42   1 H    0.966 --    21 N    0.907
 ---------------------------------------------------------------------------

           -------------------------------------------------
          | TOTAL ENERGY              -83.581577630865 Eh   |
          | GRADIENT NORM               0.000841174858 Eh/α |
          | HOMO-LUMO GAP               0.037358661673 eV   |
           -------------------------------------------------

 * finished run on 2023/06/21 at 17:03:05.204
