   * xtb version 6.5.1 (579679a) compiled by 'ehlert@majestix' on 2022-07-11
          program call               : /lustre/hpc/kemi/ree/PhD/git/ReactivityQM/dep/xtb-6.5.1/bin/xtb --gfn 1 /lustre/hpc/kemi/ree/PhD/git/ReactivityQM/calculations/R01/reac02prodN06/conf07/R01_reac02prodN06_conf07_gfn1.xyz --opt --vfukui --chrg 1 --uhf 0 --alpb DMSO

   ID    Z sym.   atoms
    1    6 C      1, 3, 5, 6, 8-11, 14, 16
    2    8 O      2, 4, 15, 17
    3    7 N      7, 12, 13
    4    1 H      18-33

      * Solvation model:               ALPB
        Solvent                        DMSO
        Solvent mass                       7.8130E+01 g/mol
          :  Hamiltonian                  GFN1-xTB          :
 * total energy  :   -57.7968488 Eh     change       -0.3730349E-11 Eh
 * total energy  :   -57.8119378 Eh     change       -0.1508894E-01 Eh
 * total energy  :   -57.8179125 Eh     change       -0.5974745E-02 Eh
 * total energy  :   -57.8192586 Eh     change       -0.1346057E-02 Eh
 * total energy  :   -57.8200963 Eh     change       -0.8377197E-03 Eh
 * total energy  :   -57.8203580 Eh     change       -0.2617636E-03 Eh
 * total energy  :   -57.8205779 Eh     change       -0.2198216E-03 Eh
 * total energy  :   -57.8206893 Eh     change       -0.1114686E-03 Eh
 * total energy  :   -57.8207754 Eh     change       -0.8607343E-04 Eh
 * total energy  :   -57.8208622 Eh     change       -0.8675536E-04 Eh
 * total energy  :   -57.8212690 Eh     change       -0.9081120E-05 Eh
 * total energy  :   -57.8212802 Eh     change       -0.1121782E-04 Eh
 * total energy  :   -57.8212942 Eh     change       -0.1405601E-04 Eh
 * total energy  :   -57.8213100 Eh     change       -0.1571069E-04 Eh
 * total energy  :   -57.8213237 Eh     change       -0.1376840E-04 Eh
 * total energy  :   -57.8213338 Eh     change       -0.1002612E-04 Eh
 * total energy  :   -57.8213421 Eh     change       -0.8389393E-05 Eh
 * total energy  :   -57.8213502 Eh     change       -0.8095748E-05 Eh
 * total energy  :   -57.8213521 Eh     change       -0.1898262E-05 Eh
   *** GEOMETRY OPTIMIZATION CONVERGED AFTER 44 ITERATIONS ***

 final structure:
================
33
 xtb: 6.5.1 (579679a)
C            2.27667023707285        2.25693810909948        1.44663625237739
O            1.65622514063714        1.07352662597547        0.88631292176244
C            2.28291683415810        0.46231225699785       -0.06585721494791
O            3.33665692151356        0.70624913504778       -0.55585337278374
C            1.41046857419264       -0.79798428970684       -0.60652111399791
C            2.09759367285810       -1.31110412304236       -1.87325867214562
N            0.13089501424565       -0.23480083922360       -0.88904589110029
C           -0.82839725750407       -0.33882538036622       -0.05031984164970
C           -2.16710992197964        0.31841716050001       -0.30577194910045
C           -2.03253359279474        1.79259667774527        0.10219004353943
C           -2.54102107890801        0.19264059597332       -1.78752428201483
N           -3.14290261657371       -0.32811532493114        0.56035359321365
N           -0.72701670862320       -0.99983337895971        1.15579943915373
C            0.35029916676362       -1.71524171873212        1.54531582583051
O            0.46261605791580       -2.36246187580275        2.56350523386697
C            1.45715490693947       -1.68664001167475        0.54090616889331
O            2.47063432510892       -2.43051291051263        0.76585724978211
H            3.18831066479003        1.96744431004848        1.97001574300880
H            1.54684272448273        2.67367778064071        2.13555405780178
H            2.50652746281592        2.95978869790536        0.64569383706179
H            2.12771455514031       -0.51005310638350       -2.60833849071975
H            1.52531396417117       -2.14635440901267       -2.26989695670652
H            3.10925870037287       -1.63553192562937       -1.63984116341108
H           -2.96264398593500        2.31654416949416       -0.11141040863796
H           -1.81909398343694        1.86512685708702        1.16732145519028
H           -1.22275484819583        2.26028517215329       -0.45604195051817
H           -1.77967629029648        0.67085892198492       -2.40267744706470
H           -3.50128832693752        0.67378491579854       -1.96267456684592
H           -2.61300889245290       -0.85701617210977       -2.06724753410071
H           -3.47935002128830       -1.17821643250526        0.12942988664978
H           -3.93320606837037        0.28249561118860        0.71210433802887
H           -1.58281366340926       -1.00855164819445        1.71466263114763
H            2.39671833352780       -2.93144145085497        1.61062317843576

          :  Hamiltonian                  GFN1-xTB          :
         :: total energy             -57.821352134145 Eh    ::
         :: gradient norm              0.000199269571 Eh/a0 ::
         :: HOMO-LUMO gap              0.380414257336 eV    ::
         :: SCC energy               -58.400144767569 Eh    ::
         :: -> Gsolv                  -0.094437583325 Eh    ::
         :: repulsion energy           0.598804646535 Eh    ::

    * Orbital Energies and Occupations

         #    Occupation            Energy/Eh            Energy/eV
      -------------------------------------------------------------
         1        2.0000           -0.9149006             -24.8957
       ...           ...                  ...                  ...
        35        2.0000           -0.5509158             -14.9912
        36        2.0000           -0.5482477             -14.9186
        37        2.0000           -0.5403518             -14.7037
        38        2.0000           -0.5355959             -14.5743
        39        2.0000           -0.5309446             -14.4477
        40        2.0000           -0.5277497             -14.3608
        41        2.0000           -0.5229589             -14.2304
        42        2.0000           -0.5184104             -14.1067
        43        2.0000           -0.5055903             -13.7578
        44        2.0000           -0.5027084             -13.6794
        45        2.0000           -0.4902693             -13.3409
        46        2.0000           -0.4859114             -13.2223
        47        1.9987           -0.4361209             -11.8675 (HOMO)
        48        0.0013           -0.4221409             -11.4870 (LUMO)
        49                         -0.3320336              -9.0351
        50                         -0.3052656              -8.3067
        51                         -0.2620746              -7.1314
        52                         -0.1658470              -4.5129
        53                         -0.1539647              -4.1896
        54                         -0.1495358              -4.0691
        55                         -0.1365639              -3.7161
        56                         -0.1328814              -3.6159
        57                         -0.1192747              -3.2456
        58                         -0.1071558              -2.9159
       ...                                ...                  ...
       100                          0.7422251              20.1970
      -------------------------------------------------------------
                  HL-Gap            0.0139800 Eh            0.3804 eV

Wiberg/Mayer (AO) data.
largest (>0.10) Wiberg bond orders for each atom

     #   Z sym  total        # sym  WBO       # sym  WBO       # sym  WBO
 ---------------------------------------------------------------------------
     1   6 C    3.820 --    19 H    0.982    20 H    0.979    18 H    0.977
                             2 O    0.840
     2   8 O    2.248 --     3 C    1.212     1 C    0.840     4 O    0.147
     3   6 C    3.855 --     4 O    1.748     2 O    1.212     5 C    0.713
     4   8 O    2.086 --     3 C    1.748     2 O    0.147
     5   6 C    3.958 --    16 C    1.102     7 N    1.017     6 C    0.955
                             3 C    0.713
     6   6 C    3.968 --    23 H    0.981    21 H    0.980    22 H    0.978
                             5 C    0.955
     7   7 N    3.021 --     8 C    1.674     5 C    1.017
     8   6 C    3.903 --     7 N    1.674    13 N    1.110     9 C    0.975
     9   6 C    3.960 --    12 N    0.992    11 C    0.983     8 C    0.975
                            10 C    0.971
    10   6 C    3.990 --    25 H    0.985    26 H    0.985    24 H    0.980
                             9 C    0.971
    11   6 C    3.991 --    29 H    0.984    28 H    0.984     9 C    0.983
                            27 H    0.982
    12   7 N    2.996 --     9 C    0.992    30 H    0.934    31 H    0.928
    13   7 N    3.494 --    14 C    1.210     8 C    1.110    32 H    0.839
                            15 O    0.168
    14   6 C    3.924 --    15 O    1.625    13 N    1.210    16 C    0.975
    15   8 O    1.965 --    14 C    1.625    13 N    0.168
    16   6 C    3.802 --    17 O    1.356     5 C    1.102    14 C    0.975
    17   8 O    2.276 --    16 C    1.356    33 H    0.745
    18   1 H    0.998 --     1 C    0.977
    19   1 H    1.003 --     1 C    0.982
    20   1 H    0.997 --     1 C    0.979
    21   1 H    0.998 --     6 C    0.980
    22   1 H    0.995 --     6 C    0.978
    23   1 H    0.999 --     6 C    0.981
    24   1 H    0.997 --    10 C    0.980
    25   1 H    1.000 --    10 C    0.985
    26   1 H    1.003 --    10 C    0.985
    27   1 H    1.005 --    11 C    0.982
    28   1 H    1.000 --    11 C    0.984
    29   1 H    1.001 --    11 C    0.984
    30   1 H    0.946 --    12 N    0.934
    31   1 H    0.942 --    12 N    0.928
    32   1 H    0.931 --    13 N    0.839
    33   1 H    0.789 --    17 O    0.745
 ---------------------------------------------------------------------------

           -------------------------------------------------
          | TOTAL ENERGY              -57.821352134145 Eh   |
          | GRADIENT NORM               0.000199269571 Eh/α |
          | HOMO-LUMO GAP               0.380414257336 eV   |
           -------------------------------------------------

 * finished run on 2023/06/20 at 15:06:59.101
