   * xtb version 6.5.1 (579679a) compiled by 'ehlert@majestix' on 2022-07-11
          program call               : /lustre/hpc/kemi/ree/PhD/git/ReactivityQM/dep/xtb-6.5.1/bin/xtb --gfn 1 /lustre/hpc/kemi/ree/PhD/git/ReactivityQM/calculations/R01/reac01prodE03/conf05/R01_reac01prodE03_conf05_gfn1.xyz --opt --vfukui --chrg -1 --uhf 0 --alpb DMSO

   ID    Z sym.   atoms
    1    6 C      1, 3, 5, 6, 9, 10
    2    8 O      2, 4, 11
    3    7 N      7, 8
    4    1 H      12-20

      * Solvation model:               ALPB
        Solvent                        DMSO
        Solvent mass                       7.8130E+01 g/mol
          :  Hamiltonian                  GFN1-xTB          :
 * total energy  :   -38.3103098 Eh     change       -0.2602718E-10 Eh
 * total energy  :   -38.3216940 Eh     change       -0.1138417E-01 Eh
 * total energy  :   -38.3252421 Eh     change       -0.3548077E-02 Eh
 * total energy  :   -38.3258079 Eh     change       -0.5658644E-03 Eh
 * total energy  :   -38.3263765 Eh     change       -0.5685834E-03 Eh
 * total energy  :   -38.3267382 Eh     change       -0.3616772E-03 Eh
 * total energy  :   -38.3273179 Eh     change       -0.5797042E-03 Eh
 * total energy  :   -38.3278216 Eh     change       -0.5036997E-03 Eh
 * total energy  :   -38.3281872 Eh     change       -0.3656310E-03 Eh
 * total energy  :   -38.3278566 Eh     change        0.3306167E-03 Eh
 * total energy  :   -38.3290358 Eh     change       -0.9772484E-05 Eh
 * total energy  :   -38.3290457 Eh     change       -0.9831786E-05 Eh
 * total energy  :   -38.3290568 Eh     change       -0.1116842E-04 Eh
 * total energy  :   -38.3290675 Eh     change       -0.1070125E-04 Eh
 * total energy  :   -38.3290839 Eh     change       -0.1633148E-04 Eh
 * total energy  :   -38.3290986 Eh     change       -0.1471381E-04 Eh
 * total energy  :   -38.3291076 Eh     change       -0.9063448E-05 Eh
 * total energy  :   -38.3291134 Eh     change       -0.5755453E-05 Eh
 * total energy  :   -38.3291181 Eh     change       -0.4720918E-05 Eh
   *** GEOMETRY OPTIMIZATION CONVERGED AFTER 27 ITERATIONS ***

 final structure:
================
20
 xtb: 6.5.1 (579679a)
C           -2.90632865859968        0.86308000794058       -0.29708466386016
O           -1.54923669249845        0.49688421013439       -0.50502859839670
C           -1.19926483427851       -0.74820568314028       -0.08393709889912
O           -2.02755329571931       -1.51724283856510        0.39917043518656
C            0.30781110832387       -0.97016246606084       -0.02309125549193
C            0.69702521309185       -2.44204127835996       -0.17189604319620
N            0.47697868823840       -0.44367898971654        1.33104466328065
N            1.18766370768124        0.71948612088050        1.17325117359942
C            1.50155527157161        0.88493728897938       -0.05471902857480
C            2.30967133862386        1.98298642026092       -0.65072706915934
O            1.03926666198681       -0.13375865112288       -0.90170274050522
H           -3.18580740172073        0.75061635254589        0.75621057959532
H           -3.57069236688793        0.24066388857747       -0.90556448497406
H           -3.00781329468988        1.90582020469608       -0.59657806609602
H            1.73968989373826       -2.56795886267738        0.11260383900501
H            0.06929648504875       -3.04638762673857        0.48041814776482
H            0.56564508451297       -2.76446413645272       -1.20341177597197
H            1.72979061213637        2.54560181261422       -1.38548390461939
H            2.63176625963377        2.66069036325092        0.13820915066238
H            3.19053721980630        1.58313186295352       -1.15711325934902

          :  Hamiltonian                  GFN1-xTB          :
         :: total energy             -38.329118123066 Eh    ::
         :: gradient norm              0.000731206305 Eh/a0 ::
         :: HOMO-LUMO gap              2.068086202429 eV    ::
         :: SCC energy               -38.635676740951 Eh    ::
         :: -> Gsolv                  -0.104093182266 Eh    ::
         :: repulsion energy           0.315436641444 Eh    ::

    * Orbital Energies and Occupations

         #    Occupation            Energy/Eh            Energy/eV
      -------------------------------------------------------------
         1        2.0000           -0.7919428             -21.5499
       ...           ...                  ...                  ...
        19        2.0000           -0.5037099             -13.7066
        20        2.0000           -0.4985059             -13.5650
        21        2.0000           -0.4935566             -13.4304
        22        2.0000           -0.4882606             -13.2862
        23        2.0000           -0.4756064             -12.9419
        24        2.0000           -0.4682917             -12.7429
        25        2.0000           -0.4605942             -12.5334
        26        2.0000           -0.4578828             -12.4596
        27        2.0000           -0.4195916             -11.4177
        28        2.0000           -0.4135721             -11.2539
        29        2.0000           -0.3891884             -10.5904
        30        2.0000           -0.3627826              -9.8718
        31        2.0000           -0.2896175              -7.8809 (HOMO)
        32                         -0.2136168              -5.8128 (LUMO)
        33                         -0.1708583              -4.6493
        34                         -0.1206022              -3.2818
        35                         -0.1132205              -3.0809
        36                         -0.0979897              -2.6664
        37                         -0.0587337              -1.5982
        38                         -0.0567362              -1.5439
        39                         -0.0469939              -1.2788
        40                         -0.0455274              -1.2389
        41                         -0.0393464              -1.0707
        42                         -0.0342720              -0.9326
       ...                                ...                  ...
        62                          0.6687265              18.1970
      -------------------------------------------------------------
                  HL-Gap            0.0760008 Eh            2.0681 eV

Wiberg/Mayer (AO) data.
largest (>0.10) Wiberg bond orders for each atom

     #   Z sym  total        # sym  WBO       # sym  WBO       # sym  WBO
 ---------------------------------------------------------------------------
     1   6 C    3.903 --    14 H    0.987    13 H    0.981    12 H    0.981
                             2 O    0.926
     2   8 O    2.151 --     3 C    1.043     1 C    0.926     4 O    0.104
     3   6 C    3.815 --     4 O    1.569     2 O    1.043     5 C    0.922
                             7 N    0.179
     4   8 O    1.854 --     3 C    1.569     2 O    0.104
     5   6 C    3.901 --     6 C    0.980     7 N    0.967    11 O    0.928
                             3 C    0.922
     6   6 C    3.996 --    17 H    0.987    15 H    0.986    16 H    0.986
                             5 C    0.980
     7   7 N    2.659 --     8 N    1.161     5 C    0.967     3 C    0.179
                             9 C    0.162
     8   7 N    3.014 --     9 C    1.688     7 N    1.161
     9   6 C    3.879 --     8 N    1.688    10 C    1.018    11 O    0.938
                             7 N    0.162
    10   6 C    3.996 --     9 C    1.018    19 H    0.987    20 H    0.976
                            18 H    0.976
    11   8 O    2.066 --     9 C    0.938     5 C    0.928
    12   1 H    1.015 --     1 C    0.981
    13   1 H    1.015 --     1 C    0.981
    14   1 H    1.017 --     1 C    0.987
    15   1 H    1.018 --     6 C    0.986
    16   1 H    1.017 --     6 C    0.986
    17   1 H    1.009 --     6 C    0.987
    18   1 H    1.008 --    10 C    0.976
    19   1 H    1.009 --    10 C    0.987
    20   1 H    1.007 --    10 C    0.976
 ---------------------------------------------------------------------------

           -------------------------------------------------
          | TOTAL ENERGY              -38.329118123066 Eh   |
          | GRADIENT NORM               0.000731206305 Eh/α |
          | HOMO-LUMO GAP               2.068086202429 eV   |
           -------------------------------------------------

 * finished run on 2023/06/20 at 14:53:21.018
