                         Program Version 5.0.1 -  RELEASE  -
|  1> # ORCA input file
|  2> ! SP r2SCAN-3c CPCM
|  3>
|  4> %maxcore 1875.0
|  5> %pal nprocs 4 end
|  6> %cpcm smd true SMDsolvent "DMSO" end
|  7>
|  8> *xyz 0 1
|  9> C      -6.640265   -0.843907    0.747637
| 10> O      -5.280591   -0.477575    0.516965
| 11> C      -5.077157    0.598475   -0.250942
| 12> O      -6.005918    1.237027   -0.726483
| 13> C      -3.659196    0.923326   -0.465707
| 14> N      -2.729415    0.124991    0.146728
| 15> C      -1.471255    0.426518   -0.072184
| 16> C      -0.449632   -0.467203    0.621847
| 17> C      -0.560065   -0.293762    2.141018
| 18> C      -0.674628   -1.927625    0.217492
| 19> N       0.866195   -0.013522    0.163401
| 20> C       2.022078   -0.557036    0.497793
| 21> O       2.217818   -1.505586    1.244123
| 22> C       3.167158    0.144888   -0.175036
| 23> N       3.161379    1.175383   -0.930872
| 24> N       4.447101    1.451745   -1.313507
| 25> C       5.230307    0.590024   -0.791424
| 26> C       6.691191    0.463003   -0.908720
| 27> O       4.479176   -0.311280   -0.025986
| 28> C       4.919895   -1.457935    0.766143
| 29> N      -0.989720    1.413759   -0.818103
| 30> C      -1.844889    2.262984   -1.464147
| 31> O      -1.437966    3.195869   -2.169885
| 32> C      -3.276097    1.982733   -1.258240
| 33> O      -4.152438    2.799814   -1.879516
| 34> H      -7.147986   -1.034109   -0.201602
| 35> H      -6.623230   -1.748538    1.352603
| 36> H      -7.162910   -0.044593    1.279525
| 37> H       0.131956   -0.959497    2.653373
| 38> H      -1.579220   -0.529440    2.445843
| 39> H      -0.334777    0.735490    2.417995
| 40> H      -0.006370   -2.587928    0.766577
| 41> H      -1.707447   -2.193979    0.440762
| 42> H      -0.498582   -2.051281   -0.850325
| 43> H       0.819347    0.793422   -0.469486
| 44> H       7.158945    0.501665    0.074833
| 45> H       6.954744   -0.486546   -1.375336
| 46> H       7.063199    1.282616   -1.520819
| 47> H       4.679431   -1.249352    1.806497
| 48> H       5.989291   -1.553009    0.610227
| 49> H       4.381507   -2.330880    0.403141
| 50> H      -5.070963    2.520849   -1.679597
| 51> **                         ****END OF INPUT****

CARTESIAN COORDINATES (ANGSTROEM)
---------------------------------
  C     -6.640265   -0.843907    0.747637
  O     -5.280591   -0.477575    0.516965
  C     -5.077157    0.598475   -0.250942
  O     -6.005918    1.237027   -0.726483
  C     -3.659196    0.923326   -0.465707
  N     -2.729415    0.124991    0.146728
  C     -1.471255    0.426518   -0.072184
  C     -0.449632   -0.467203    0.621847
  C     -0.560065   -0.293762    2.141018
  C     -0.674628   -1.927625    0.217492
  N      0.866195   -0.013522    0.163401
  C      2.022078   -0.557036    0.497793
  O      2.217818   -1.505586    1.244123
  C      3.167158    0.144888   -0.175036
  N      3.161379    1.175383   -0.930872
  N      4.447101    1.451745   -1.313507
  C      5.230307    0.590024   -0.791424
  C      6.691191    0.463003   -0.908720
  O      4.479176   -0.311280   -0.025986
  C      4.919895   -1.457935    0.766143
  N     -0.989720    1.413759   -0.818103
  C     -1.844889    2.262984   -1.464147
  O     -1.437966    3.195869   -2.169885
  C     -3.276097    1.982733   -1.258240
  O     -4.152438    2.799814   -1.879516
  H     -7.147986   -1.034109   -0.201602
  H     -6.623230   -1.748538    1.352603
  H     -7.162910   -0.044593    1.279525
  H      0.131956   -0.959497    2.653373
  H     -1.579220   -0.529440    2.445843
  H     -0.334777    0.735490    2.417995
  H     -0.006370   -2.587928    0.766577
  H     -1.707447   -2.193979    0.440762
  H     -0.498582   -2.051281   -0.850325
  H      0.819347    0.793422   -0.469486
  H      7.158945    0.501665    0.074833
  H      6.954744   -0.486546   -1.375336
  H      7.063199    1.282616   -1.520819
  H      4.679431   -1.249352    1.806497
  H      5.989291   -1.553009    0.610227
  H      4.381507   -2.330880    0.403141
  H     -5.070963    2.520849   -1.679597

 Total Charge           Charge          ....    0
 Multiplicity           Mult            ....    1
 Number of Electrons    NEL             ....  184
 Basis Dimension        Dim             ....  615

ORBITAL ENERGIES
----------------

  NO   OCC          E(Eh)            E(eV)
   0   2.0000     -19.180297      -521.9224
   1   2.0000     -18.999142      -516.9929
   2   2.0000     -18.974635      -516.3261
   3   2.0000     -18.945405      -515.5307
   4   2.0000     -18.943697      -515.4842
   5   2.0000     -18.888620      -513.9855
   6   2.0000     -14.245491      -387.6395
   7   2.0000     -14.237948      -387.4343
   8   2.0000     -14.198543      -386.3620
   9   2.0000     -14.133685      -384.5971
  10   2.0000     -14.132908      -384.5760
  11   2.0000     -10.197451      -277.4867
  12   2.0000     -10.192030      -277.3392
  13   2.0000     -10.171543      -276.7817
  14   2.0000     -10.161289      -276.5027
  15   2.0000     -10.134139      -275.7639
  16   2.0000     -10.103062      -274.9183
  17   2.0000     -10.094284      -274.6794
  18   2.0000     -10.088387      -274.5190
  19   2.0000     -10.083750      -274.3928
  20   2.0000     -10.074955      -274.1535
  21   2.0000     -10.067743      -273.9572
  22   2.0000     -10.067224      -273.9431
  23   2.0000     -10.016712      -272.5686
  24   2.0000     -10.015153      -272.5262
  25   2.0000      -1.229667       -33.4610
  26   2.0000      -1.075853       -29.2754
  27   2.0000      -1.039925       -28.2978
  28   2.0000      -1.034746       -28.1569
  29   2.0000      -1.023907       -27.8619
  30   2.0000      -0.984491       -26.7894
  31   2.0000      -0.965976       -26.2855
  32   2.0000      -0.931397       -25.3446
  33   2.0000      -0.908707       -24.7272
  34   2.0000      -0.878651       -23.9093
  35   2.0000      -0.822742       -22.3879
  36   2.0000      -0.785488       -21.3742
  37   2.0000      -0.773975       -21.0609
  38   2.0000      -0.745211       -20.2782
  39   2.0000      -0.724035       -19.7020
  40   2.0000      -0.707720       -19.2580
  41   2.0000      -0.693396       -18.8683
  42   2.0000      -0.655260       -17.8305
  43   2.0000      -0.649321       -17.6689
  44   2.0000      -0.623641       -16.9701
  45   2.0000      -0.619603       -16.8602
  46   2.0000      -0.593889       -16.1605
  47   2.0000      -0.565514       -15.3884
  48   2.0000      -0.559652       -15.2289
  49   2.0000      -0.542735       -14.7686
  50   2.0000      -0.537395       -14.6233
  51   2.0000      -0.529959       -14.4209
  52   2.0000      -0.507219       -13.8021
  53   2.0000      -0.493603       -13.4316
  54   2.0000      -0.465540       -12.6680
  55   2.0000      -0.459242       -12.4966
  56   2.0000      -0.451452       -12.2846
  57   2.0000      -0.445647       -12.1267
  58   2.0000      -0.444063       -12.0836
  59   2.0000      -0.434875       -11.8335
  60   2.0000      -0.434288       -11.8176
  61   2.0000      -0.426024       -11.5927
  62   2.0000      -0.420488       -11.4420
  63   2.0000      -0.414524       -11.2798
  64   2.0000      -0.405584       -11.0365
  65   2.0000      -0.403963       -10.9924
  66   2.0000      -0.400885       -10.9086
  67   2.0000      -0.387314       -10.5393
  68   2.0000      -0.385389       -10.4870
  69   2.0000      -0.372160       -10.1270
  70   2.0000      -0.370043       -10.0694
  71   2.0000      -0.364866        -9.9285
  72   2.0000      -0.362958        -9.8766
  73   2.0000      -0.352974        -9.6049
  74   2.0000      -0.349398        -9.5076
  75   2.0000      -0.340538        -9.2665
  76   2.0000      -0.333151        -9.0655
  77   2.0000      -0.326406        -8.8820
  78   2.0000      -0.320293        -8.7156
  79   2.0000      -0.320130        -8.7112
  80   2.0000      -0.308866        -8.4047
  81   2.0000      -0.300888        -8.1876
  82   2.0000      -0.298485        -8.1222
  83   2.0000      -0.276886        -7.5344
  84   2.0000      -0.269689        -7.3386
  85   2.0000      -0.261467        -7.1149
  86   2.0000      -0.255349        -6.9484
  87   2.0000      -0.249452        -6.7879
  88   2.0000      -0.241789        -6.5794
  89   2.0000      -0.208876        -5.6838
  90   2.0000      -0.199633        -5.4323
  91   2.0000      -0.178016        -4.8441
  92   0.0000      -0.120739        -3.2855
  93   0.0000      -0.071311        -1.9405
  94   0.0000      -0.054538        -1.4841
  95   0.0000      -0.017144        -0.4665
  96   0.0000      -0.010244        -0.2788

MULLIKEN ATOMIC CHARGES
-----------------------
   0 C :   -0.318419
   1 O :   -0.184305
   2 C :    0.207726
   3 O :   -0.481231
   4 C :    0.066682
   5 N :   -0.258183
   6 C :    0.529067
   7 C :   -0.223237
   8 C :   -0.636748
   9 C :   -0.632757
  10 N :    0.090282
  11 C :   -0.041957
  12 O :   -0.484491
  13 C :    0.389091
  14 N :   -0.069950
  15 N :   -0.247921
  16 C :    0.476512
  17 C :   -0.672166
  18 O :    0.108353
  19 C :   -0.239333
  20 N :   -0.248770
  21 C :   -0.085934
  22 O :   -0.408316
  23 C :    0.037487
  24 O :   -0.367079
  25 H :    0.174991
  26 H :    0.175373
  27 H :    0.175496
  28 H :    0.190390
  29 H :    0.189061
  30 H :    0.183671
  31 H :    0.191403
  32 H :    0.189413
  33 H :    0.180940
  34 H :    0.321199
  35 H :    0.228396
  36 H :    0.230796
  37 H :    0.226190
  38 H :    0.229303
  39 H :    0.221668
  40 H :    0.229031
  41 H :    0.358274
Sum of atomic charges:   -0.0000000

LOEWDIN ATOMIC CHARGES
----------------------
   0 C :   -0.039042
   1 O :   -0.571645
   2 C :    0.406643
   3 O :   -0.479136
   4 C :    0.166714
   5 N :   -0.622186
   6 C :    0.309435
   7 C :    0.108592
   8 C :   -0.347801
   9 C :   -0.349031
  10 N :   -0.569216
  11 C :    0.382457
  12 O :   -0.476025
  13 C :    0.486957
  14 N :   -0.284058
  15 N :   -0.289370
  16 C :    0.441125
  17 C :   -0.299744
  18 O :   -0.546972
  19 C :    0.078782
  20 N :   -0.587137
  21 C :    0.312891
  22 O :   -0.514994
  23 C :    0.260708
  24 O :   -0.471651
  25 H :    0.181511
  26 H :    0.185251
  27 H :    0.181017
  28 H :    0.172248
  29 H :    0.174259
  30 H :    0.171717
  31 H :    0.172686
  32 H :    0.176377
  33 H :    0.171843
  34 H :    0.320030
  35 H :    0.205476
  36 H :    0.206376
  37 H :    0.209260
  38 H :    0.220644
  39 H :    0.217729
  40 H :    0.222720
  41 H :    0.304562

  Mayer bond orders larger than 0.100000
B(  0-C ,  1-O ) :   0.8327 B(  0-C , 25-H ) :   0.9576 B(  0-C , 26-H ) :   0.9629
B(  0-C , 27-H ) :   0.9567 B(  1-O ,  2-C ) :   1.1684 B(  2-C ,  3-O ) :   1.7269
B(  2-C ,  4-C ) :   1.0967 B(  4-C ,  5-N ) :   1.0911 B(  4-C , 23-C ) :   1.2663
B(  5-N ,  6-C ) :   1.3711 B(  6-C ,  7-C ) :   0.7260 B(  6-C , 10-N ) :  -0.1339
B(  6-C , 20-N ) :   1.3083 B(  7-C ,  8-C ) :   0.9145 B(  7-C ,  9-C ) :   0.9079
B(  7-C , 10-N ) :   0.9287 B(  7-C , 20-N ) :   0.1327 B(  8-C , 28-H ) :   0.9625
B(  8-C , 29-H ) :   0.9643 B(  8-C , 30-H ) :   0.9702 B(  9-C , 31-H ) :   0.9652
B(  9-C , 32-H ) :   0.9612 B(  9-C , 33-H ) :   0.9715 B( 10-N , 11-C ) :   1.2703
B( 10-N , 12-O ) :   0.1196 B( 10-N , 34-H ) :   0.8091 B( 11-C , 12-O ) :   1.6990
B( 11-C , 13-C ) :   0.8829 B( 13-C , 14-N ) :   1.7579 B( 13-C , 18-O ) :   0.9912
B( 14-N , 15-N ) :   1.0598 B( 15-N , 16-C ) :   1.6867 B( 16-C , 17-C ) :   0.8393
B( 16-C , 18-O ) :   0.9002 B( 17-C , 35-H ) :   0.9303 B( 17-C , 36-H ) :   0.9281
B( 17-C , 37-H ) :   0.9443 B( 18-O , 19-C ) :   0.7978 B( 19-C , 38-H ) :   0.9148
B( 19-C , 39-H ) :   0.9167 B( 19-C , 40-H ) :   0.9143 B( 20-N , 21-C ) :   1.1918
B( 21-C , 22-O ) :   2.0794 B( 21-C , 23-C ) :   0.9411 B( 23-C , 24-O ) :   1.1417
B( 24-O , 41-H ) :   0.7847

Dispersion correction           -0.018566045
FINAL SINGLE POINT ENERGY     -1268.543136142679

DIPOLE MOMENT
-------------
                                X             Y             Z
Electronic contribution:     -0.73817      11.67580      -8.55528
Nuclear contribution   :     11.45497     -16.94473      11.41836
                        -----------------------------------------
Total Dipole Moment    :     10.71680      -5.26893       2.86307
                        -----------------------------------------
Magnitude (a.u.)       :     12.28042
Magnitude (Debye)      :     31.21434

Rotational constants in cm-1:     0.017450     0.003189     0.002753
Rotational constants in MHz :   523.150063    95.599595    82.520739

                             ****ORCA TERMINATED NORMALLY****
TOTAL RUN TIME: 0 days 0 hours 2 minutes 19 seconds 472 msec
