   * xtb version 6.5.1 (579679a) compiled by 'ehlert@majestix' on 2022-07-11
          program call               : /lustre/hpc/kemi/ree/PhD/git/ReactivityQM/dep/xtb-6.5.1/bin/xtb --gfn 1 /lustre/hpc/kemi/ree/PhD/git/ReactivityQM/calculations/R02deprot/reac01prodN01/conf08/R02deprot_reac01prodN01_conf08_gfn1.xyz --opt --vfukui --chrg 0 --uhf 0 --alpb DMSO

   ID    Z sym.   atoms
    1    6 C      1, 3, 5, 7-10, 12, 14, 17, 18, 20, 22, 24
    2    8 O      2, 4, 13, 19, 23, 25
    3    7 N      6, 11, 15, 16, 21
    4    1 H      26-42

      * Solvation model:               ALPB
        Solvent                        DMSO
        Solvent mass                       7.8130E+01 g/mol
          :  Hamiltonian                  GFN1-xTB          :
 * total energy  :   -82.8777098 Eh     change       -0.3733476E-09 Eh
 * total energy  :   -82.8949686 Eh     change       -0.1725878E-01 Eh
 * total energy  :   -82.9031230 Eh     change       -0.8154399E-02 Eh
 * total energy  :   -82.9058499 Eh     change       -0.2726867E-02 Eh
 * total energy  :   -82.9079138 Eh     change       -0.2063946E-02 Eh
 * total energy  :   -82.9089046 Eh     change       -0.9907634E-03 Eh
 * total energy  :   -82.9095358 Eh     change       -0.6311878E-03 Eh
 * total energy  :   -82.9099824 Eh     change       -0.4466268E-03 Eh
 * total energy  :   -82.9102975 Eh     change       -0.3151519E-03 Eh
 * total energy  :   -82.9105435 Eh     change       -0.2459248E-03 Eh
 * total energy  :   -82.9123653 Eh     change       -0.2821933E-04 Eh
 * total energy  :   -82.9124030 Eh     change       -0.3762694E-04 Eh
 * total energy  :   -82.9124211 Eh     change       -0.1809203E-04 Eh
 * total energy  :   -82.9124342 Eh     change       -0.1317045E-04 Eh
 * total energy  :   -82.9124265 Eh     change        0.7718885E-05 Eh
 * total energy  :   -82.9124381 Eh     change       -0.1163194E-04 Eh
 * total energy  :   -82.9124409 Eh     change       -0.2732939E-05 Eh
 * total energy  :   -82.9124481 Eh     change       -0.7181985E-05 Eh
 * total energy  :   -82.9124519 Eh     change       -0.3791796E-05 Eh
   *** GEOMETRY OPTIMIZATION CONVERGED AFTER 44 ITERATIONS ***

 final structure:
================
42
 xtb: 6.5.1 (579679a)
C           -6.64026515451013       -0.84390719325227        0.74763703389582
O           -5.28059075649015       -0.47757530292789        0.51696464212916
C           -5.07715665423824        0.59847517238506       -0.25094162832064
O           -6.00591795315378        1.23702669052486       -0.72648293148233
C           -3.65919597048162        0.92332607914807       -0.46570717748096
N           -2.72941464783803        0.12499126575718        0.14672782818956
C           -1.47125451752184        0.42651752615012       -0.07218367919078
C           -0.44963217597292       -0.46720296859774        0.62184671378223
C           -0.56006452319983       -0.29376186231634        2.14101839138087
C           -0.67462840402020       -1.92762473361208        0.21749181800558
N            0.86619511048757       -0.01352154185115        0.16340109100027
C            2.02207765752997       -0.55703575488809        0.49779299380961
O            2.21781846973326       -1.50558611978563        1.24412257931858
C            3.16715790345894        0.14488755255871       -0.17503641700607
N            3.16137933887259        1.17538264750901       -0.93087178504011
N            4.44710123477367        1.45174491241780       -1.31350652145352
C            5.23030717186699        0.59002440901201       -0.79142367934731
C            6.69119066707533        0.46300297026732       -0.90871977181418
O            4.47917555160043       -0.31128032175545       -0.02598623600964
C            4.91989546790136       -1.45793527968488        0.76614338314570
N           -0.98971957660667        1.41375887050765       -0.81810300216878
C           -1.84488874796404        2.26298371351776       -1.46414739272310
O           -1.43796605743771        3.19586918228945       -2.16988463844096
C           -3.27609654987846        1.98273321630297       -1.25823994414279
O           -4.15243778077805        2.79981412923566       -1.87951622758790
H           -7.14798570949168       -1.03410856277808       -0.20160191903448
H           -6.62323030086946       -1.74853763440625        1.35260334517248
H           -7.16290959931920       -0.04459343443968        1.27952484392741
H            0.13195594983069       -0.95949697426027        2.65337347254551
H           -1.57922021220413       -0.52944040207090        2.44584279441954
H           -0.33477661270084        0.73548999505313        2.41799460759323
H           -0.00637049827485       -2.58792806925625        0.76657692758288
H           -1.70744685849094       -2.19397935346440        0.44076183031633
H           -0.49858196964054       -2.05128111264917       -0.85032483358598
H            0.81934685020587        0.79342157068784       -0.46948583717103
H            7.15894462418435        0.50166530387091        0.07483349214077
H            6.95474406637946       -0.48654607656150       -1.37533570870980
H            7.06319854955721        1.28261554816701       -1.52081866405920
H            4.67943062322379       -1.24935160350573        1.80649749746599
H            5.98929052917924       -1.55300853334068        0.61022718020211
H            4.38150720045297       -2.33087985222722        0.40314054299815
H           -5.07096273522625        2.52084893226572       -1.67959701425185

          :  Hamiltonian                  GFN1-xTB          :
         :: total energy             -82.912451850425 Eh    ::
         :: gradient norm              0.000297092414 Eh/a0 ::
         :: HOMO-LUMO gap              0.644300803700 eV    ::
         :: SCC energy               -83.687318458079 Eh    ::
         :: -> Gsolv                  -0.100669716747 Eh    ::
         :: repulsion energy           0.800442109399 Eh    ::

    * Orbital Energies and Occupations

         #    Occupation            Energy/Eh            Energy/eV
      -------------------------------------------------------------
         1        2.0000           -0.9618103             -26.1722
       ...           ...                  ...                  ...
        55        2.0000           -0.5017230             -13.6526
        56        2.0000           -0.4966591             -13.5148
        57        2.0000           -0.4901635             -13.3380
        58        2.0000           -0.4857672             -13.2184
        59        2.0000           -0.4817146             -13.1081
        60        2.0000           -0.4734288             -12.8827
        61        2.0000           -0.4582304             -12.4691
        62        2.0000           -0.4577118             -12.4550
        63        2.0000           -0.4435720             -12.0702
        64        2.0000           -0.4281791             -11.6513
        65        2.0000           -0.4099106             -11.1542
        66        2.0000           -0.3820398             -10.3958
        67        2.0000           -0.3775775             -10.2744 (HOMO)
        68        0.0000           -0.3538999              -9.6301 (LUMO)
        69                         -0.3072587              -8.3609
        70                         -0.2863189              -7.7911
        71                         -0.2361109              -6.4249
        72                         -0.2306335              -6.2759
        73                         -0.1982785              -5.3954
        74                         -0.1861761              -5.0661
        75                         -0.1728624              -4.7038
        76                         -0.1296256              -3.5273
        77                         -0.1184494              -3.2232
        78                         -0.1183016              -3.2192
       ...                                ...                  ...
       134                          0.7264583              19.7679
      -------------------------------------------------------------
                  HL-Gap            0.0236776 Eh            0.6443 eV

Wiberg/Mayer (AO) data.
largest (>0.10) Wiberg bond orders for each atom

     #   Z sym  total        # sym  WBO       # sym  WBO       # sym  WBO
 ---------------------------------------------------------------------------
     1   6 C    3.881 --    27 H    0.987    28 H    0.980    26 H    0.980
                             2 O    0.906
     2   8 O    2.195 --     3 C    1.103     1 C    0.906     4 O    0.120
     3   6 C    3.837 --     4 O    1.589     2 O    1.103     5 C    1.046
     4   8 O    1.922 --     3 C    1.589     2 O    0.120
     5   6 C    3.962 --    24 C    1.464     6 N    1.198     3 C    1.046
     6   7 N    2.994 --     7 C    1.466     5 C    1.198
     7   6 C    3.960 --     6 N    1.466    21 N    1.372     8 C    0.967
     8   6 C    3.912 --    10 C    0.985     9 C    0.982     7 C    0.967
                            11 N    0.906
     9   6 C    3.992 --    31 H    0.986    29 H    0.984    30 H    0.983
                             8 C    0.982
    10   6 C    3.992 --    34 H    0.986     8 C    0.985    32 H    0.983
                            33 H    0.982
    11   7 N    3.430 --    12 C    1.353     8 C    0.906    35 H    0.852
                            13 O    0.204
    12   6 C    3.933 --    13 O    1.546    11 N    1.353    14 C    0.960
    13   8 O    1.912 --    12 C    1.546    11 N    0.204
    14   6 C    3.791 --    15 N    1.710    12 C    0.960    19 O    0.880
    15   7 N    3.039 --    14 C    1.710    16 N    1.140
    16   7 N    3.024 --    17 C    1.705    15 N    1.140
    17   6 C    3.805 --    16 N    1.705    18 C    1.042    19 O    0.875
    18   6 C    3.971 --    17 C    1.042    38 H    0.970    36 H    0.953
                            37 H    0.951
    19   8 O    2.653 --    14 C    0.880    17 C    0.875    20 C    0.751
    20   6 C    3.729 --    40 H    0.975    39 H    0.968    41 H    0.968
                            19 O    0.751
    21   7 N    3.023 --     7 C    1.372    22 C    1.212    23 O    0.126
    22   6 C    3.927 --    23 O    1.514    21 N    1.212    24 C    1.066
    23   8 O    1.802 --    22 C    1.514    21 N    0.126
    24   6 C    3.906 --     5 C    1.464    25 O    1.083    22 C    1.066
    25   8 O    2.058 --    24 C    1.083    42 H    0.800
    26   1 H    1.010 --     1 C    0.980
    27   1 H    1.013 --     1 C    0.987
    28   1 H    1.009 --     1 C    0.980
    29   1 H    1.007 --     9 C    0.984
    30   1 H    1.011 --     9 C    0.983
    31   1 H    1.004 --     9 C    0.986
    32   1 H    1.008 --    10 C    0.983
    33   1 H    1.014 --    10 C    0.982
    34   1 H    1.004 --    10 C    0.986
    35   1 H    0.972 --    11 N    0.852
    36   1 H    0.989 --    18 C    0.953
    37   1 H    0.989 --    18 C    0.951
    38   1 H    0.990 --    18 C    0.970
    39   1 H    1.001 --    20 C    0.968
    40   1 H    0.991 --    20 C    0.975
    41   1 H    1.002 --    20 C    0.968
    42   1 H    0.872 --    25 O    0.800
 ---------------------------------------------------------------------------

           -------------------------------------------------
          | TOTAL ENERGY              -82.912451850425 Eh   |
          | GRADIENT NORM               0.000297092414 Eh/α |
          | HOMO-LUMO GAP               0.644300803700 eV   |
           -------------------------------------------------

 * finished run on 2023/06/20 at 18:04:32.491
