   * xtb version 6.5.1 (579679a) compiled by 'ehlert@majestix' on 2022-07-11
          program call               : /lustre/hpc/kemi/ree/PhD/git/ReactivityQM/dep/xtb-6.5.1/bin/xtb --gfn 1 /lustre/hpc/kemi/ree/PhD/git/ReactivityQM/calculations/RaltegravirCLI/reac01prodE05/conf10/RaltegravirCLI_reac01prodE05_conf10_gfn1.xyz --opt --vfukui --chrg -1 --uhf 0 --alpb DMSO

   ID    Z sym.   atoms
    1    6 C      1, 2, 5-7
    2    7 N      3, 4
    3    8 O      8, 10
    4   17 Cl     9
    5    1 H      11-16

      * Solvation model:               ALPB
        Solvent                        DMSO
        Solvent mass                       7.8130E+01 g/mol
          :  Hamiltonian                  GFN1-xTB          :
 * total energy  :   -34.1234493 Eh     change       -0.1513456E-11 Eh
 * total energy  :   -34.1330326 Eh     change       -0.9583333E-02 Eh
 * total energy  :   -34.1376035 Eh     change       -0.4570946E-02 Eh
 * total energy  :   -34.1390976 Eh     change       -0.1494024E-02 Eh
 * total energy  :   -34.1403479 Eh     change       -0.1250372E-02 Eh
 * total energy  :   -34.1412729 Eh     change       -0.9249599E-03 Eh
 * total energy  :   -34.1423290 Eh     change       -0.1056152E-02 Eh
 * total energy  :   -34.1452150 Eh     change       -0.2885974E-02 Eh
 * total energy  :   -34.1489160 Eh     change       -0.3700945E-02 Eh
 * total energy  :   -34.1389926 Eh     change        0.9923326E-02 Eh
 * total energy  :   -34.1545955 Eh     change       -0.1540317E-04 Eh
 * total energy  :   -34.1545017 Eh     change        0.9381854E-04 Eh
 * total energy  :   -34.1546295 Eh     change       -0.1278586E-03 Eh
 * total energy  :   -34.1546360 Eh     change       -0.6504256E-05 Eh
 * total energy  :   -34.1546522 Eh     change       -0.1613169E-04 Eh
 * total energy  :   -34.1546581 Eh     change       -0.5894410E-05 Eh
 * total energy  :   -34.1546654 Eh     change       -0.7330069E-05 Eh
 * total energy  :   -34.1546729 Eh     change       -0.7524634E-05 Eh
 * total energy  :   -34.1546753 Eh     change       -0.2344267E-05 Eh
   *** GEOMETRY OPTIMIZATION CONVERGED AFTER 44 ITERATIONS ***

 final structure:
================
16
 xtb: 6.5.1 (579679a)
C           -2.63622111853485       -0.01067320343418        0.56530086461706
C           -1.22554348080539       -0.04850800934796        0.09993091682782
N           -0.84321598611693       -0.33177537385782       -1.07843773951649
N            0.57737498366093       -0.24444290714227       -1.10836505660786
C            0.96016428650992        0.10757939021601        0.29921798659402
C            1.93841224131672        1.23836312638156        0.49862061810028
C            1.32853083393993       -1.21412045347278       -0.26866457738557
O            2.43979198488577       -1.65455251851003       -0.58181365604011
Cl           0.13485630904327       -2.63586220142115        0.45497078617923
O           -0.25520909938310        0.25904335329310        1.00312723492890
H           -2.79557777184979       -0.77037898694228        1.33006409354560
H           -2.85646407293045        0.96075874022606        1.00502120471940
H           -3.30602148331799       -0.19323836704154       -0.27114837189202
H            2.20184874987215        1.31751508391716        1.55186849028795
H            2.83699934274652        1.03838540221486       -0.08215611726387
H            1.50027328096323        2.18190792492109        0.17434332290564

          :  Hamiltonian                  GFN1-xTB          :
         :: total energy             -34.154675261528 Eh    ::
         :: gradient norm              0.000252076066 Eh/a0 ::
         :: HOMO-LUMO gap              3.363381755624 eV    ::
         :: SCC energy               -34.408939995413 Eh    ::
         :: -> Gsolv                  -0.097799232853 Eh    ::
         :: repulsion energy           0.262042630621 Eh    ::

    * Orbital Energies and Occupations

         #    Occupation            Energy/Eh            Energy/eV
      -------------------------------------------------------------
         1        2.0000           -0.8411937             -22.8900
       ...           ...                  ...                  ...
        16        2.0000           -0.5178814             -14.0923
        17        2.0000           -0.5131435             -13.9633
        18        2.0000           -0.5045203             -13.7287
        19        2.0000           -0.5001417             -13.6095
        20        2.0000           -0.4946027             -13.4588
        21        2.0000           -0.4721435             -12.8477
        22        2.0000           -0.4456000             -12.1254
        23        2.0000           -0.4403162             -11.9816
        24        2.0000           -0.4346588             -11.8277
        25        2.0000           -0.4292860             -11.6815
        26        2.0000           -0.4208300             -11.4514
        27        2.0000           -0.4068709             -11.0715
        28        2.0000           -0.3492486              -9.5035 (HOMO)
        29                         -0.2256466              -6.1402 (LUMO)
        30                         -0.1980248              -5.3885
        31                         -0.1266583              -3.4465
        32                         -0.1172011              -3.1892
        33                         -0.0829313              -2.2567
        34                         -0.0605382              -1.6473
        35                         -0.0587894              -1.5997
        36                         -0.0520503              -1.4164
        37                         -0.0487807              -1.3274
        38                          0.0049969               0.1360
        39                          0.0249792               0.6797
       ...                                ...                  ...
        57                          0.6556131              17.8401
      -------------------------------------------------------------
                  HL-Gap            0.1236020 Eh            3.3634 eV

Wiberg/Mayer (AO) data.
largest (>0.10) Wiberg bond orders for each atom

     #   Z sym  total        # sym  WBO       # sym  WBO       # sym  WBO
 ---------------------------------------------------------------------------
     1   6 C    3.993 --     2 C    1.020    13 H    0.986    12 H    0.972
                            11 H    0.968
     2   6 C    3.897 --     3 N    1.759    10 O    1.026     1 C    1.020
     3   7 N    2.973 --     2 C    1.759     4 N    1.003    10 O    0.112
     4   7 N    2.948 --     3 N    1.003     5 C    0.876     7 C    0.846
     5   6 C    3.812 --     6 C    0.996    10 O    0.914     7 C    0.895
                             4 N    0.876
     6   6 C    3.995 --     5 C    0.996    15 H    0.984    14 H    0.982
                            16 H    0.982
     7   6 C    3.870 --     8 O    1.478     5 C    0.895     4 N    0.846
                             9 Cl   0.569
     8   8 O    1.792 --     7 C    1.478     9 Cl   0.119
     9  17 Cl   0.756 --     7 C    0.569     8 O    0.119
    10   8 O    2.150 --     2 C    1.026     5 C    0.914     3 N    0.112
    11   1 H    1.003 --     1 C    0.968
    12   1 H    1.002 --     1 C    0.972
    13   1 H    1.004 --     1 C    0.986
    14   1 H    1.007 --     6 C    0.982
    15   1 H    1.008 --     6 C    0.984
    16   1 H    1.008 --     6 C    0.982
 ---------------------------------------------------------------------------

           -------------------------------------------------
          | TOTAL ENERGY              -34.154675261528 Eh   |
          | GRADIENT NORM               0.000252076066 Eh/α |
          | HOMO-LUMO GAP               3.363381755624 eV   |
           -------------------------------------------------

 * finished run on 2023/06/20 at 14:53:34.433
