                         Program Version 5.0.1 -  RELEASE  -
|  1> # ORCA input file
|  2> ! SP r2SCAN-3c CPCM
|  3>
|  4> %maxcore 1875.0
|  5> %pal nprocs 4 end
|  6> %cpcm smd true SMDsolvent "DMSO" end
|  7>
|  8> *xyz 0 1
|  9> C      -4.765931    2.318020    1.920961
| 10> O      -4.340171    1.359131    0.953758
| 11> C      -3.018512    1.198804    0.826624
| 12> O      -2.234340    1.842203    1.506994
| 13> C      -2.648014    0.167485   -0.150841
| 14> C      -3.573777   -0.843301   -0.531456
| 15> O      -4.770239   -0.879802   -0.239243
| 16> C      -3.000491   -1.978586   -1.341426
| 17> O      -3.637834   -2.898967   -1.810763
| 18> N      -1.623863   -1.951293   -1.502373
| 19> C      -0.790126   -0.941542   -1.166450
| 20> C       0.671842   -1.126965   -1.558922
| 21> C       0.958238   -0.453044   -2.906155
| 22> C       1.044275   -2.616128   -1.660305
| 23> N       1.525828   -0.537823   -0.530324
| 24> C       1.397478   -0.917528    0.765700
| 25> O       0.501102   -1.632351    1.179700
| 26> C       2.431064   -0.328061    1.643522
| 27> N       2.569806   -0.481515    2.923494
| 28> N       3.648016    0.262487    3.293245
| 29> C       4.101724    0.826629    2.217011
| 30> C       5.260061    1.735597    2.086731
| 31> O       3.374974    0.494307    1.136913
| 32> N      -1.302824    0.111526   -0.566401
| 33> C      -0.504017    1.330800   -0.398544
| 34> H      -5.853195    2.348601    1.873809
| 35> H      -4.438777    2.022219    2.921457
| 36> H      -4.351139    3.301258    1.685245
| 37> H      -1.251078   -2.734713   -2.014951
| 38> H       0.788280    0.620058   -2.868869
| 39> H       0.312237   -0.883760   -3.669170
| 40> H       1.995452   -0.631505   -3.182157
| 41> H       2.127577   -2.688956   -1.731073
| 42> H       0.617898   -3.066420   -2.554289
| 43> H       0.712202   -3.160285   -0.777444
| 44> H       2.357745   -0.058686   -0.828230
| 45> H       5.959700    1.339839    1.351215
| 46> H       4.926802    2.713813    1.739285
| 47> H       5.756325    1.839959    3.049043
| 48> H      -1.145049    2.192837   -0.564384
| 49> H       0.296114    1.348686   -1.126420
| 50> H      -0.085364    1.370188    0.605480
| 51> **                         ****END OF INPUT****

CARTESIAN COORDINATES (ANGSTROEM)
---------------------------------
  C     -4.765931    2.318020    1.920961
  O     -4.340171    1.359131    0.953758
  C     -3.018512    1.198804    0.826624
  O     -2.234340    1.842203    1.506994
  C     -2.648014    0.167485   -0.150841
  C     -3.573777   -0.843301   -0.531456
  O     -4.770239   -0.879802   -0.239243
  C     -3.000491   -1.978586   -1.341426
  O     -3.637834   -2.898967   -1.810763
  N     -1.623863   -1.951293   -1.502373
  C     -0.790126   -0.941542   -1.166450
  C      0.671842   -1.126965   -1.558922
  C      0.958238   -0.453044   -2.906155
  C      1.044275   -2.616128   -1.660305
  N      1.525828   -0.537823   -0.530324
  C      1.397478   -0.917528    0.765700
  O      0.501102   -1.632351    1.179700
  C      2.431064   -0.328061    1.643522
  N      2.569806   -0.481515    2.923494
  N      3.648016    0.262487    3.293245
  C      4.101724    0.826629    2.217011
  C      5.260061    1.735597    2.086731
  O      3.374974    0.494307    1.136913
  N     -1.302824    0.111526   -0.566401
  C     -0.504017    1.330800   -0.398544
  H     -5.853195    2.348601    1.873809
  H     -4.438777    2.022219    2.921457
  H     -4.351139    3.301258    1.685245
  H     -1.251078   -2.734713   -2.014951
  H      0.788280    0.620058   -2.868869
  H      0.312237   -0.883760   -3.669170
  H      1.995452   -0.631505   -3.182157
  H      2.127577   -2.688956   -1.731073
  H      0.617898   -3.066420   -2.554289
  H      0.712202   -3.160285   -0.777444
  H      2.357745   -0.058686   -0.828230
  H      5.959700    1.339839    1.351215
  H      4.926802    2.713813    1.739285
  H      5.756325    1.839959    3.049043
  H     -1.145049    2.192837   -0.564384
  H      0.296114    1.348686   -1.126420
  H     -0.085364    1.370188    0.605480

 Total Charge           Charge          ....    0
 Multiplicity           Mult            ....    1
 Number of Electrons    NEL             ....  184
 Basis Dimension        Dim             ....  615

ORBITAL ENERGIES
----------------

  NO   OCC          E(Eh)            E(eV)
   0   2.0000     -19.068624      -518.8836
   1   2.0000     -18.984729      -516.6007
   2   2.0000     -18.944438      -515.5044
   3   2.0000     -18.935308      -515.2559
   4   2.0000     -18.921767      -514.8874
   5   2.0000     -18.898767      -514.2616
   6   2.0000     -14.262027      -388.0895
   7   2.0000     -14.231262      -387.2523
   8   2.0000     -14.208347      -386.6288
   9   2.0000     -14.207994      -386.6192
  10   2.0000     -14.199752      -386.3949
  11   2.0000     -10.163561      -276.5646
  12   2.0000     -10.152866      -276.2735
  13   2.0000     -10.151185      -276.2278
  14   2.0000     -10.150058      -276.1971
  15   2.0000     -10.146519      -276.1008
  16   2.0000     -10.141523      -275.9649
  17   2.0000     -10.124281      -275.4957
  18   2.0000     -10.099030      -274.8086
  19   2.0000     -10.075282      -274.1624
  20   2.0000     -10.069821      -274.0138
  21   2.0000     -10.064735      -273.8754
  22   2.0000     -10.046532      -273.3800
  23   2.0000     -10.035258      -273.0733
  24   2.0000     -10.031979      -272.9840
  25   2.0000      -1.158364       -31.5207
  26   2.0000      -1.063497       -28.9392
  27   2.0000      -1.037492       -28.2316
  28   2.0000      -1.031203       -28.0605
  29   2.0000      -0.997148       -27.1338
  30   2.0000      -0.979014       -26.6403
  31   2.0000      -0.969291       -26.3757
  32   2.0000      -0.964926       -26.2570
  33   2.0000      -0.923190       -25.1213
  34   2.0000      -0.916011       -24.9259
  35   2.0000      -0.835434       -22.7333
  36   2.0000      -0.788880       -21.4665
  37   2.0000      -0.747614       -20.3436
  38   2.0000      -0.716040       -19.4844
  39   2.0000      -0.711908       -19.3720
  40   2.0000      -0.691732       -18.8230
  41   2.0000      -0.677196       -18.4274
  42   2.0000      -0.673121       -18.3166
  43   2.0000      -0.643894       -17.5213
  44   2.0000      -0.624238       -16.9864
  45   2.0000      -0.606105       -16.4929
  46   2.0000      -0.593715       -16.1558
  47   2.0000      -0.574753       -15.6398
  48   2.0000      -0.552572       -15.0363
  49   2.0000      -0.538077       -14.6418
  50   2.0000      -0.529025       -14.3955
  51   2.0000      -0.508462       -13.8359
  52   2.0000      -0.498040       -13.5524
  53   2.0000      -0.488783       -13.3005
  54   2.0000      -0.474022       -12.8988
  55   2.0000      -0.460778       -12.5384
  56   2.0000      -0.458282       -12.4705
  57   2.0000      -0.447645       -12.1810
  58   2.0000      -0.439500       -11.9594
  59   2.0000      -0.435160       -11.8413
  60   2.0000      -0.428514       -11.6605
  61   2.0000      -0.427298       -11.6274
  62   2.0000      -0.414953       -11.2915
  63   2.0000      -0.408714       -11.1217
  64   2.0000      -0.404246       -11.0001
  65   2.0000      -0.401183       -10.9167
  66   2.0000      -0.392973       -10.6933
  67   2.0000      -0.386426       -10.5152
  68   2.0000      -0.383428       -10.4336
  69   2.0000      -0.382193       -10.4000
  70   2.0000      -0.373858       -10.1732
  71   2.0000      -0.367826       -10.0091
  72   2.0000      -0.366858        -9.9827
  73   2.0000      -0.362805        -9.8724
  74   2.0000      -0.356071        -9.6892
  75   2.0000      -0.349490        -9.5101
  76   2.0000      -0.347436        -9.4542
  77   2.0000      -0.343858        -9.3568
  78   2.0000      -0.332528        -9.0485
  79   2.0000      -0.327746        -8.9184
  80   2.0000      -0.317431        -8.6377
  81   2.0000      -0.313177        -8.5220
  82   2.0000      -0.276866        -7.5339
  83   2.0000      -0.270801        -7.3689
  84   2.0000      -0.265762        -7.2318
  85   2.0000      -0.263977        -7.1832
  86   2.0000      -0.257269        -7.0007
  87   2.0000      -0.252527        -6.8716
  88   2.0000      -0.250715        -6.8223
  89   2.0000      -0.233687        -6.3590
  90   2.0000      -0.196444        -5.3455
  91   2.0000      -0.184343        -5.0162
  92   0.0000      -0.092843        -2.5264
  93   0.0000      -0.079504        -2.1634
  94   0.0000      -0.055423        -1.5081
  95   0.0000      -0.022969        -0.6250
  96   0.0000       0.017117         0.4658

MULLIKEN ATOMIC CHARGES
-----------------------
   0 C :   -0.330775
   1 O :   -0.135467
   2 C :    0.274828
   3 O :   -0.454969
   4 C :   -0.164850
   5 C :   -0.025409
   6 O :   -0.373759
   7 C :    0.071048
   8 O :   -0.369925
   9 N :    0.020263
  10 C :    0.086350
  11 C :   -0.040279
  12 C :   -0.474428
  13 C :   -0.624993
  14 N :   -0.154891
  15 C :   -0.116433
  16 O :   -0.418318
  17 C :    0.425133
  18 N :   -0.161302
  19 N :   -0.284776
  20 C :    0.397896
  21 C :   -0.632102
  22 O :   -0.057206
  23 N :    0.394480
  24 C :   -0.410555
  25 H :    0.170838
  26 H :    0.170201
  27 H :    0.169605
  28 H :    0.313827
  29 H :    0.187452
  30 H :    0.206415
  31 H :    0.197491
  32 H :    0.206187
  33 H :    0.190557
  34 H :    0.218403
  35 H :    0.325737
  36 H :    0.200773
  37 H :    0.203417
  38 H :    0.205837
  39 H :    0.189074
  40 H :    0.191147
  41 H :    0.213479
Sum of atomic charges:   -0.0000000

LOEWDIN ATOMIC CHARGES
----------------------
   0 C :   -0.044252
   1 O :   -0.582369
   2 C :    0.392413
   3 O :   -0.489837
   4 C :    0.164785
   5 C :    0.247703
   6 O :   -0.524908
   7 C :    0.378501
   8 O :   -0.418413
   9 N :   -0.449041
  10 C :    0.405103
  11 C :    0.110436
  12 C :   -0.333365
  13 C :   -0.333699
  14 N :   -0.597842
  15 C :    0.379707
  16 O :   -0.433078
  17 C :    0.411593
  18 N :   -0.329664
  19 N :   -0.356857
  20 C :    0.381672
  21 C :   -0.316405
  22 O :   -0.388544
  23 N :   -0.659959
  24 C :   -0.040764
  25 H :    0.182073
  26 H :    0.178128
  27 H :    0.178483
  28 H :    0.309975
  29 H :    0.173619
  30 H :    0.181803
  31 H :    0.179904
  32 H :    0.185284
  33 H :    0.173466
  34 H :    0.186015
  35 H :    0.303088
  36 H :    0.192084
  37 H :    0.193167
  38 H :    0.191768
  39 H :    0.209203
  40 H :    0.200723
  41 H :    0.208305

  Mayer bond orders larger than 0.100000
B(  0-C ,  1-O ) :   0.8364 B(  0-C , 25-H ) :   0.9661 B(  0-C , 26-H ) :   0.9576
B(  0-C , 27-H ) :   0.9581 B(  1-O ,  2-C ) :   1.1339 B(  2-C ,  3-O ) :   1.7611
B(  2-C ,  4-C ) :   1.0793 B(  4-C ,  5-C ) :   1.0615 B(  4-C , 23-N ) :   1.1101
B(  5-C ,  6-O ) :   1.8853 B(  5-C ,  7-C ) :   0.8852 B(  7-C ,  8-O ) :   2.0851
B(  7-C ,  9-N ) :   0.9241 B(  9-N , 10-C ) :   1.2628 B(  9-N , 28-H ) :   0.8826
B( 10-C , 11-C ) :   0.7250 B( 10-C , 16-O ) :   0.1002 B( 10-C , 23-N ) :   1.5307
B( 11-C , 12-C ) :   1.0081 B( 11-C , 13-C ) :   0.8681 B( 11-C , 14-N ) :   0.7954
B( 11-C , 24-C ) :   0.1034 B( 12-C , 29-H ) :   0.9292 B( 12-C , 30-H ) :   0.9586
B( 12-C , 31-H ) :   0.9565 B( 13-C , 32-H ) :   0.9616 B( 13-C , 33-H ) :   0.9557
B( 13-C , 34-H ) :   0.9595 B( 14-N , 15-C ) :   1.1548 B( 14-N , 35-H ) :   0.8945
B( 15-C , 16-O ) :   1.8636 B( 15-C , 17-C ) :   0.7853 B( 15-C , 19-N ) :   0.1047
B( 16-O , 17-C ) :  -0.1117 B( 17-C , 18-N ) :   1.7272 B( 17-C , 20-C ) :   0.1235
B( 17-C , 22-O ) :   1.0765 B( 18-N , 19-N ) :   1.2638 B( 19-N , 20-C ) :   1.6128
B( 20-C , 21-C ) :   0.8254 B( 20-C , 22-O ) :   1.0673 B( 21-C , 36-H ) :   0.9456
B( 21-C , 37-H ) :   0.9388 B( 21-C , 38-H ) :   0.9891 B( 23-N , 24-C ) :   0.8746
B( 24-C , 39-H ) :   0.9271 B( 24-C , 40-H ) :   0.9165 B( 24-C , 41-H ) :   0.9247

Dispersion correction           -0.020044275
FINAL SINGLE POINT ENERGY     -1268.635353404206

DIPOLE MOMENT
-------------
                                X             Y             Z
Electronic contribution:     -7.24363      -6.59139       5.63842
Nuclear contribution   :     14.02467       9.01196      -9.54708
                        -----------------------------------------
Total Dipole Moment    :      6.78104       2.42057      -3.90866
                        -----------------------------------------
Magnitude (a.u.)       :      8.19264
Magnitude (Debye)      :     20.82402

Rotational constants in cm-1:     0.011347     0.004804     0.003823
Rotational constants in MHz :   340.185020   144.031889   114.604978

                             ****ORCA TERMINATED NORMALLY****
TOTAL RUN TIME: 0 days 0 hours 2 minutes 23 seconds 817 msec
