   * xtb version 6.5.1 (579679a) compiled by 'ehlert@majestix' on 2022-07-11
          program call               : /lustre/hpc/kemi/ree/PhD/git/ReactivityQM/dep/xtb-6.5.1/bin/xtb --gfn 1 /lustre/hpc/kemi/ree/PhD/git/ReactivityQM/calculations/R02methylcation/reac01prodN05/conf16/R02methylcation_reac01prodN05_conf16_gfn1.xyz --opt --vfukui --chrg 0 --uhf 0 --alpb DMSO

   ID    Z sym.   atoms
    1    6 C      1, 3, 5, 6, 8, 11-14, 16, 18, 21, 22, 25
    2    8 O      2, 4, 7, 9, 17, 23
    3    7 N      10, 15, 19, 20, 24
    4    1 H      26-42

      * Solvation model:               ALPB
        Solvent                        DMSO
        Solvent mass                       7.8130E+01 g/mol
          :  Hamiltonian                  GFN1-xTB          :
 * total energy  :   -82.9810894 Eh     change       -0.4051515E-10 Eh
 * total energy  :   -82.9928156 Eh     change       -0.1172613E-01 Eh
 * total energy  :   -82.9979233 Eh     change       -0.5107689E-02 Eh
 * total energy  :   -82.9995424 Eh     change       -0.1619140E-02 Eh
 * total energy  :   -83.0008370 Eh     change       -0.1294593E-02 Eh
 * total energy  :   -83.0015280 Eh     change       -0.6910018E-03 Eh
 * total energy  :   -83.0019187 Eh     change       -0.3907058E-03 Eh
 * total energy  :   -83.0021455 Eh     change       -0.2267538E-03 Eh
 * total energy  :   -83.0022728 Eh     change       -0.1273220E-03 Eh
 * total energy  :   -83.0023572 Eh     change       -0.8447120E-04 Eh
 * total energy  :   -83.0027365 Eh     change       -0.1158991E-04 Eh
 * total energy  :   -83.0027480 Eh     change       -0.1150616E-04 Eh
 * total energy  :   -83.0027563 Eh     change       -0.8287811E-05 Eh
 * total energy  :   -83.0027526 Eh     change        0.3740645E-05 Eh
 * total energy  :   -83.0027754 Eh     change       -0.2285827E-04 Eh
 * total energy  :   -83.0027815 Eh     change       -0.6040656E-05 Eh
 * total energy  :   -83.0027905 Eh     change       -0.8993286E-05 Eh
 * total energy  :   -83.0027933 Eh     change       -0.2837397E-05 Eh
 * total energy  :   -83.0027966 Eh     change       -0.3318894E-05 Eh
   *** GEOMETRY OPTIMIZATION CONVERGED AFTER 34 ITERATIONS ***

 final structure:
================
42
 xtb: 6.5.1 (579679a)
C           -4.76593109645457        2.31802037482712        1.92096137365550
O           -4.34017129466629        1.35913099730248        0.95375764930135
C           -3.01851208910400        1.19880422035868        0.82662394015130
O           -2.23434040814309        1.84220258872098        1.50699400967248
C           -2.64801370412593        0.16748500834500       -0.15084076426262
C           -3.57377673201324       -0.84330064774613       -0.53145556512749
O           -4.77023936254409       -0.87980235909836       -0.23924304971411
C           -3.00049058367482       -1.97858626321372       -1.34142615196145
O           -3.63783436499541       -2.89896690636101       -1.81076282645865
N           -1.62386268492073       -1.95129349145901       -1.50237348202635
C           -0.79012569093046       -0.94154248005174       -1.16645010454326
C            0.67184173446103       -1.12696534281792       -1.55892199614187
C            0.95823784060647       -0.45304445059181       -2.90615467338528
C            1.04427533871147       -2.61612798621442       -1.66030507883071
N            1.52582760550332       -0.53782268297662       -0.53032369091596
C            1.39747817679936       -0.91752812515788        0.76570028756505
O            0.50110215180735       -1.63235117209556        1.17970040847100
C            2.43106401263835       -0.32806093832026        1.64352156703621
N            2.56980612159274       -0.48151490847070        2.92349420717413
N            3.64801599782478        0.26248728381605        3.29324511102687
C            4.10172363213147        0.82662923088257        2.21701090934035
C            5.26006074020849        1.73559711743981        2.08673126823640
O            3.37497375490963        0.49430660344583        1.13691301962862
N           -1.30282357445659        0.11152603057359       -0.56640101587016
C           -0.50401673544818        1.33080044279739       -0.39854373890555
H           -5.85319497437196        2.34860077256160        1.87380935501952
H           -4.43877690399608        2.02221862970536        2.92145742142974
H           -4.35113879943018        3.30125831333656        1.68524521775048
H           -1.25107763888759       -2.73471282045031       -2.01495101493326
H            0.78828028759288        0.62005819467928       -2.86886908323455
H            0.31223660844292       -0.88376005192764       -3.66917034560438
H            1.99545218229666       -0.63150478773179       -3.18215653841635
H            2.12757673967193       -2.68895563157339       -1.73107322942365
H            0.61789783852190       -3.06641996158587       -2.55428876122043
H            0.71220223631004       -3.16028532142943       -0.77744403548525
H            2.35774462682654       -0.05868568615233       -0.82823021092262
H            5.95969952087145        1.33983886370133        1.35121487427947
H            4.92680194204000        2.71381329205818        1.73928522053654
H            5.75632520784459        1.83995854025863        3.04904291060430
H           -1.14504931185040        2.19283724606098       -0.56438376678361
H            0.29611383648947        1.34868647258155       -1.12642001260835
H           -0.08536418410718        1.37018779197368        0.60548038589726

          :  Hamiltonian                  GFN1-xTB          :
         :: total energy             -83.002796608657 Eh    ::
         :: gradient norm              0.000767001122 Eh/a0 ::
         :: HOMO-LUMO gap              2.519623875437 eV    ::
         :: SCC energy               -83.784905241520 Eh    ::
         :: -> Gsolv                  -0.084226720357 Eh    ::
         :: repulsion energy           0.809895989581 Eh    ::

    * Orbital Energies and Occupations

         #    Occupation            Energy/Eh            Energy/eV
      -------------------------------------------------------------
         1        2.0000           -0.8697600             -23.6674
       ...           ...                  ...                  ...
        55        2.0000           -0.5099535             -13.8765
        56        2.0000           -0.5095697             -13.8661
        57        2.0000           -0.4932452             -13.4219
        58        2.0000           -0.4901627             -13.3380
        59        2.0000           -0.4885786             -13.2949
        60        2.0000           -0.4853504             -13.2071
        61        2.0000           -0.4757130             -12.9448
        62        2.0000           -0.4721378             -12.8475
        63        2.0000           -0.4666449             -12.6981
        64        2.0000           -0.4573890             -12.4462
        65        2.0000           -0.4552496             -12.3880
        66        2.0000           -0.4250171             -11.5653
        67        2.0000           -0.4136126             -11.2550 (HOMO)
        68                         -0.3210181              -8.7353 (LUMO)
        69                         -0.3191657              -8.6849
        70                         -0.3024335              -8.2296
        71                         -0.2603154              -7.0835
        72                         -0.2377782              -6.4703
        73                         -0.2059912              -5.6053
        74                         -0.1657511              -4.5103
        75                         -0.1473183              -4.0087
        76                         -0.1437293              -3.9111
        77                         -0.1428677              -3.8876
        78                         -0.1338897              -3.6433
       ...                                ...                  ...
       134                          0.7505493              20.4235
      -------------------------------------------------------------
                  HL-Gap            0.0925945 Eh            2.5196 eV

Wiberg/Mayer (AO) data.
largest (>0.10) Wiberg bond orders for each atom

     #   Z sym  total        # sym  WBO       # sym  WBO       # sym  WBO
 ---------------------------------------------------------------------------
     1   6 C    3.879 --    26 H    0.986    28 H    0.980    27 H    0.980
                             2 O    0.905
     2   8 O    2.198 --     3 C    1.101     1 C    0.905     4 O    0.120
     3   6 C    3.865 --     4 O    1.581     2 O    1.101     5 C    1.085
     4   8 O    1.894 --     3 C    1.581     2 O    0.120
     5   6 C    3.852 --     6 C    1.261     3 C    1.085    24 N    1.053
                             7 O    0.140
     6   6 C    3.945 --     7 O    1.568     5 C    1.261     8 C    0.954
     7   8 O    1.879 --     6 C    1.568     5 C    0.140
     8   6 C    3.868 --     9 O    1.657    10 N    1.092     6 C    0.954
     9   8 O    1.928 --     8 C    1.657    10 N    0.117
    10   7 N    3.455 --    11 C    1.206     8 C    1.092    29 H    0.879
                             9 O    0.117
    11   6 C    3.915 --    24 N    1.436    10 N    1.206    12 C    0.976
    12   6 C    3.938 --    14 C    0.985    13 C    0.981    11 C    0.976
                            15 N    0.937
    13   6 C    3.983 --    31 H    0.982    12 C    0.981    32 H    0.979
                            30 H    0.976
    14   6 C    3.986 --    12 C    0.985    35 H    0.980    33 H    0.980
                            34 H    0.979
    15   7 N    3.330 --    16 C    1.230    12 C    0.937    36 H    0.887
                            17 O    0.169
    16   6 C    3.913 --    17 O    1.594    15 N    1.230    18 C    1.001
    17   8 O    1.897 --    16 C    1.594    15 N    0.169
    18   6 C    3.876 --    19 N    1.617    23 O    1.047    16 C    1.001
    19   7 N    3.004 --    18 C    1.617    20 N    1.203
    20   7 N    2.982 --    21 C    1.605    19 N    1.203
    21   6 C    3.866 --    20 N    1.605    23 O    1.073    22 C    1.033
    22   6 C    3.985 --    21 C    1.033    39 H    0.982    37 H    0.963
                            38 H    0.960
    23   8 O    2.317 --    21 C    1.073    18 C    1.047
    24   7 N    3.593 --    11 C    1.436     5 C    1.053    25 C    0.921
    25   6 C    3.913 --    40 H    0.976    41 H    0.975    42 H    0.969
                            24 N    0.921
    26   1 H    1.012 --     1 C    0.986
    27   1 H    1.009 --     1 C    0.980
    28   1 H    1.010 --     1 C    0.980
    29   1 H    0.933 --    10 N    0.879
    30   1 H    0.999 --    13 C    0.976
    31   1 H    0.998 --    13 C    0.982
    32   1 H    0.993 --    13 C    0.979
    33   1 H    0.998 --    14 C    0.980
    34   1 H    0.997 --    14 C    0.979
    35   1 H    1.004 --    14 C    0.980
    36   1 H    0.928 --    15 N    0.887
    37   1 H    0.996 --    22 C    0.963
    38   1 H    0.996 --    22 C    0.960
    39   1 H    0.998 --    22 C    0.982
    40   1 H    1.005 --    25 C    0.976
    41   1 H    1.008 --    25 C    0.975
    42   1 H    1.014 --    25 C    0.969
 ---------------------------------------------------------------------------

           -------------------------------------------------
          | TOTAL ENERGY              -83.002796608657 Eh   |
          | GRADIENT NORM               0.000767001122 Eh/α |
          | HOMO-LUMO GAP               2.519623875437 eV   |
           -------------------------------------------------

 * finished run on 2023/06/21 at 17:35:07.958
