   * xtb version 6.5.1 (579679a) compiled by 'ehlert@majestix' on 2022-07-11
          program call               : /lustre/hpc/kemi/ree/PhD/git/ReactivityQM/dep/xtb-6.5.1/bin/xtb --gfn 1 /lustre/hpc/kemi/ree/PhD/git/ReactivityQM/calculations/R02/reac01prodE07/conf11/R02_reac01prodE07_conf11_gfn1.xyz --opt --vfukui --chrg -1 --uhf 0 --alpb DMSO

   ID    Z sym.   atoms
    1    6 C      1, 3, 5, 7-10, 12, 14, 15, 18, 19, 22, 24
    2    8 O      2, 4, 13, 20, 23, 25
    3    7 N      6, 11, 16, 17, 21
    4    1 H      26-43

      * Solvation model:               ALPB
        Solvent                        DMSO
        Solvent mass                       7.8130E+01 g/mol
          :  Hamiltonian                  GFN1-xTB          :
 * total energy  :   -83.8212860 Eh     change       -0.2657430E-11 Eh
 * total energy  :   -83.8338413 Eh     change       -0.1255536E-01 Eh
 * total energy  :   -83.8393411 Eh     change       -0.5499756E-02 Eh
 * total energy  :   -83.8402256 Eh     change       -0.8845367E-03 Eh
 * total energy  :   -83.8406700 Eh     change       -0.4443421E-03 Eh
 * total energy  :   -83.8408259 Eh     change       -0.1559723E-03 Eh
 * total energy  :   -83.8409404 Eh     change       -0.1144195E-03 Eh
 * total energy  :   -83.8410211 Eh     change       -0.8069115E-04 Eh
 * total energy  :   -83.8410942 Eh     change       -0.7318668E-04 Eh
 * total energy  :   -83.8411610 Eh     change       -0.6674631E-04 Eh
 * total energy  :   -83.8452332 Eh     change       -0.2013961E-04 Eh
 * total energy  :   -83.8452433 Eh     change       -0.1016534E-04 Eh
 * total energy  :   -83.8452544 Eh     change       -0.1103062E-04 Eh
 * total energy  :   -83.8452698 Eh     change       -0.1539251E-04 Eh
 * total energy  :   -83.8452758 Eh     change       -0.5988800E-05 Eh
 * total energy  :   -83.8452849 Eh     change       -0.9122506E-05 Eh
 * total energy  :   -83.8452873 Eh     change       -0.2404924E-05 Eh
 * total energy  :   -83.8452927 Eh     change       -0.5466139E-05 Eh
 * total energy  :   -83.8452967 Eh     change       -0.3987823E-05 Eh
   *** GEOMETRY OPTIMIZATION CONVERGED AFTER 88 ITERATIONS ***

 final structure:
================
43
 xtb: 6.5.1 (579679a)
C            5.51150358958423        0.99459261032703       -2.53196301397226
O            4.43887602921064        0.70103418267229       -1.64196878339223
C            4.70078161696727       -0.21813270164849       -0.68917174337693
O            5.80508397294073       -0.76088339891572       -0.60499946939728
C            3.58542822182685       -0.49920913395007        0.19804017170095
N            2.40526566530112        0.17882624651678       -0.02064628661819
C            1.40278693353877       -0.05565698180536        0.75586676928409
C            0.08976517265452        0.67379277898362        0.58071526025807
C           -0.06140827307187        1.14813269091767       -0.87127093818229
C            0.06401757719565        1.86333350935103        1.55020458895163
N           -0.97327481465555       -0.28942701180082        0.94985699974066
C           -2.31192787193597        0.19465531653379        0.78416830584140
O           -2.80659944694997        1.04330033722017        1.76186859339236
C           -3.76637386300380        0.48288181547710        2.65549575360866
C           -3.06174575318149       -0.33828377419217       -0.23329005023389
N           -2.58590692665319       -1.16303904687511       -1.18899948437678
N           -3.65717519568353       -1.45713237843851       -2.00111886292209
C           -4.68368618237036       -0.83286474034227       -1.53988988832851
C           -6.06529156655901       -0.83786193958383       -2.08524273691378
O           -4.40570740096390       -0.09601310721555       -0.42076394656961
N            1.46697675975260       -0.94587390778390        1.78939319882386
C            2.59159919055812       -1.70407919950879        2.10331772349422
O            2.55753111897028       -2.49951609653327        3.04337407397455
C            3.70549777312946       -1.43172472310018        1.22894376407075
O            4.84881040103225       -2.11689416202135        1.46145981412463
H            5.83104784971827        0.09007698878089       -3.05727014941841
H            5.13936512785529        1.72841102326582       -3.24509221300390
H            6.36276565328951        1.40569863535123       -1.98213169860952
H           -0.14239328512084        0.28899645850899       -1.53800072848276
H            0.80887554391853        1.73769633325500       -1.15716573531324
H           -0.95688425740448        1.75939999143179       -0.97471051894855
H           -0.83807113121106        2.45396147007496        1.40050462088436
H            0.93313745865000        2.49806211873057        1.38024322748598
H            0.07998344747042        1.50331566474624        2.57825760281751
H           -0.88029263093258       -1.09857161275520        0.33054541170369
H           -4.67448986364746        0.18431472006548        2.11874761889584
H           -4.01614469101430        1.25800141953183        3.38172079901294
H           -3.35787186228955       -0.38889818541705        3.18037361486597
H           -6.38503096130190        0.17689523924201       -2.32427267609237
H           -6.76383395722079       -1.24610894149052       -1.35400134474480
H           -6.09596333298868       -1.44564542759237       -2.98672495598321
H            0.63224444380436       -1.09880078944270        2.34016597645361
H            5.52873072076528       -1.84076229060517        0.80328633545011

          :  Hamiltonian                  GFN1-xTB          :
         :: total energy             -83.845296737701 Eh    ::
         :: gradient norm              0.000416314544 Eh/a0 ::
         :: HOMO-LUMO gap              0.093439438549 eV    ::
         :: SCC energy               -84.593140019254 Eh    ::
         :: -> Gsolv                  -0.101932834219 Eh    ::
         :: repulsion energy           0.774025691589 Eh    ::

    * Orbital Energies and Occupations

         #    Occupation            Energy/Eh            Energy/eV
      -------------------------------------------------------------
         1        2.0000           -0.8158233             -22.1997
       ...           ...                  ...                  ...
        56        2.0000           -0.4740144             -12.8986
        57        2.0000           -0.4606874             -12.5359
        58        2.0000           -0.4554872             -12.3944
        59        2.0000           -0.4426783             -12.0459
        60        2.0000           -0.4381200             -11.9219
        61        2.0000           -0.4299594             -11.6998
        62        2.0000           -0.4231606             -11.5148
        63        2.0000           -0.4187669             -11.3952
        64        2.0000           -0.4182431             -11.3810
        65        2.0000           -0.4004983             -10.8981
        66        2.0000           -0.3984577             -10.8426
        67        2.0000           -0.3941483             -10.7253
        68        1.7180           -0.3068844              -8.3508 (HOMO)
        69        0.2820           -0.3034506              -8.2573 (LUMO)
        70                         -0.2533046              -6.8928
        71                         -0.2138021              -5.8179
        72                         -0.2052366              -5.5848
        73                         -0.1623883              -4.4188
        74                         -0.1296951              -3.5292
        75                         -0.1283212              -3.4918
        76                         -0.1223740              -3.3300
        77                         -0.1135258              -3.0892
        78                         -0.1088361              -2.9616
        79                         -0.1058077              -2.8792
       ...                                ...                  ...
       136                          0.7099635              19.3191
      -------------------------------------------------------------
                  HL-Gap            0.0034338 Eh            0.0934 eV

Wiberg/Mayer (AO) data.
largest (>0.10) Wiberg bond orders for each atom

     #   Z sym  total        # sym  WBO       # sym  WBO       # sym  WBO
 ---------------------------------------------------------------------------
     1   6 C    3.886 --    27 H    0.987    28 H    0.980    26 H    0.980
                             2 O    0.913
     2   8 O    2.151 --     3 C    1.068     1 C    0.913     4 O    0.108
     3   6 C    3.764 --     4 O    1.530     5 C    1.097     2 O    1.068
     4   8 O    1.845 --     3 C    1.530     2 O    0.108
     5   6 C    3.874 --    24 C    1.374     6 N    1.161     3 C    1.097
     6   7 N    3.005 --     7 C    1.591     5 C    1.161
     7   6 C    3.914 --     6 N    1.591    21 N    1.160     8 C    0.983
     8   6 C    3.955 --     9 C    0.990     7 C    0.983    10 C    0.981
                            11 N    0.942
     9   6 C    3.993 --     8 C    0.990    31 H    0.985    29 H    0.984
                            30 H    0.984
    10   6 C    3.993 --    33 H    0.988    34 H    0.985     8 C    0.981
                            32 H    0.981
    11   7 N    3.038 --    12 C    0.991     8 C    0.942    35 H    0.934
    12   6 C    3.582 --    15 C    1.424    11 N    0.991    13 O    0.962
    13   8 O    2.018 --    12 C    0.962    14 C    0.925
    14   6 C    3.907 --    37 H    0.986    38 H    0.983    36 H    0.982
                            13 O    0.925
    15   6 C    3.864 --    12 C    1.424    16 N    1.309    20 O    0.977
    16   7 N    2.731 --    15 C    1.309    17 N    1.161
    17   7 N    2.981 --    18 C    1.660    16 N    1.161
    18   6 C    3.830 --    17 N    1.660    19 C    1.023    20 O    1.012
    19   6 C    3.994 --    18 C    1.023    41 H    0.986    39 H    0.973
                            40 H    0.972
    20   8 O    2.193 --    18 C    1.012    15 C    0.977
    21   7 N    3.393 --     7 C    1.160    22 C    1.081    42 H    0.887
                            23 O    0.115
    22   6 C    3.859 --    23 O    1.530    24 C    1.133    21 N    1.081
    23   8 O    1.801 --    22 C    1.530    21 N    0.115
    24   6 C    3.789 --     5 C    1.374    22 C    1.133    25 O    1.077
    25   8 O    2.018 --    24 C    1.077    43 H    0.787
    26   1 H    1.010 --     1 C    0.980
    27   1 H    1.014 --     1 C    0.987
    28   1 H    1.010 --     1 C    0.980
    29   1 H    1.014 --     9 C    0.984
    30   1 H    1.015 --     9 C    0.984
    31   1 H    1.009 --     9 C    0.985
    32   1 H    1.012 --    10 C    0.981
    33   1 H    1.005 --    10 C    0.988
    34   1 H    1.009 --    10 C    0.985
    35   1 H    0.986 --    11 N    0.934
    36   1 H    1.020 --    14 C    0.982
    37   1 H    1.018 --    14 C    0.986
    38   1 H    1.013 --    14 C    0.983
    39   1 H    1.002 --    19 C    0.973
    40   1 H    1.002 --    19 C    0.972
    41   1 H    1.005 --    19 C    0.986
    42   1 H    0.957 --    21 N    0.887
    43   1 H    0.869 --    25 O    0.787
 ---------------------------------------------------------------------------

           -------------------------------------------------
          | TOTAL ENERGY              -83.845296737701 Eh   |
          | GRADIENT NORM               0.000416314544 Eh/α |
          | HOMO-LUMO GAP               0.093439438549 eV   |
           -------------------------------------------------

 * finished run on 2023/06/20 at 15:03:39.625
