   * xtb version 6.5.1 (579679a) compiled by 'ehlert@majestix' on 2022-07-11
          program call               : /lustre/hpc/kemi/ree/PhD/git/ReactivityQM/dep/xtb-6.5.1/bin/xtb --gfn 1 /lustre/hpc/kemi/ree/PhD/git/ReactivityQM/calculations/R02methylcation/reac01/conf11/R02methylcation_reac01_conf11_gfn1.xyz --opt --vfukui --chrg -1 --uhf 0 --alpb DMSO

   ID    Z sym.   atoms
    1    6 C      1, 3, 5, 7-10, 12, 14, 17, 18, 21, 23
    2    8 O      2, 4, 13, 19, 22, 24
    3    7 N      6, 11, 15, 16, 20
    4    1 H      25-38

      * Solvation model:               ALPB
        Solvent                        DMSO
        Solvent mass                       7.8130E+01 g/mol
          :  Hamiltonian                  GFN1-xTB          :
 * total energy  :   -79.6023324 Eh     change       -0.3780087E-10 Eh
 * total energy  :   -79.6146504 Eh     change       -0.1231803E-01 Eh
 * total energy  :   -79.6189682 Eh     change       -0.4317824E-02 Eh
 * total energy  :   -79.6198527 Eh     change       -0.8844562E-03 Eh
 * total energy  :   -79.6205290 Eh     change       -0.6762996E-03 Eh
 * total energy  :   -79.6208265 Eh     change       -0.2975013E-03 Eh
 * total energy  :   -79.6210010 Eh     change       -0.1745542E-03 Eh
 * total energy  :   -79.6211025 Eh     change       -0.1015225E-03 Eh
 * total energy  :   -79.6211671 Eh     change       -0.6452698E-04 Eh
 * total energy  :   -79.6212211 Eh     change       -0.5399507E-04 Eh
 * total energy  :   -79.6216018 Eh     change       -0.1138901E-04 Eh
 * total energy  :   -79.6216104 Eh     change       -0.8525814E-05 Eh
 * total energy  :   -79.6216175 Eh     change       -0.7100077E-05 Eh
 * total energy  :   -79.6216261 Eh     change       -0.8600374E-05 Eh
 * total energy  :   -79.6216345 Eh     change       -0.8441942E-05 Eh
 * total energy  :   -79.6216419 Eh     change       -0.7399204E-05 Eh
 * total energy  :   -79.6216510 Eh     change       -0.9083157E-05 Eh
 * total energy  :   -79.6216577 Eh     change       -0.6703402E-05 Eh
 * total energy  :   -79.6216620 Eh     change       -0.4328170E-05 Eh
   *** GEOMETRY OPTIMIZATION CONVERGED AFTER 29 ITERATIONS ***

 final structure:
================
38
 xtb: 6.5.1 (579679a)
C           -5.39235657860950        2.32755528846679        1.23268728854852
O           -4.29673077817962        1.51711165274248        0.83195320307757
C           -4.43002648398663        0.90196329462910       -0.38374009071699
O           -5.44094919073398        1.06676977705653       -1.04840122322450
C           -3.27397543933890        0.09116915531215       -0.72737193738784
N           -2.25637336035448        0.08610179722586        0.20875475786767
C           -1.19215873752128       -0.59601616419668        0.00954407527635
C           -0.08104415434550       -0.62667022172490        1.03775203710458
C           -0.32724124658379        0.44592616637944        2.10259037393319
C           -0.00906375091011       -2.02387852348943        1.67090279863172
N            1.17482473544558       -0.33957871878484        0.32596344596978
C            2.38587424864742       -0.33124236598678        0.91196089114630
O            2.61849443170797       -0.58157834417457        2.08256827191627
C            3.44467101167245        0.02400110598024       -0.07276170816153
N            3.25666005592427        0.33544601052133       -1.31974768699903
N            4.48589511534387        0.58180826823825       -1.85409565646890
C            5.34601980562512        0.40308339456683       -0.89841078199225
C            6.81766205744125        0.53620054963393       -0.97159514950590
O            4.75075155479542        0.05136455165182        0.25076490213979
N           -1.01178916003128       -1.35585018535361       -1.13149007213054
C           -1.93339223732545       -1.43813407162640       -2.14546016554655
O           -1.69412618139903       -2.13255101925406       -3.12976074352582
C           -3.20254707295296       -0.63851347330565       -1.94462995775481
O           -4.07543476615169       -0.67465135108937       -2.82923934601859
H           -5.14158555843188        2.74329455964530        2.20767751066290
H           -5.55746277770165        3.13958066206234        0.51689399948716
H           -6.30840402552347        1.73259349106798        1.30960275946666
H           -1.29314654146302        0.26801058079671        2.57341909580536
H            0.45299878185973        0.41260065625510        2.86013603110144
H           -0.33927244418390        1.43266737366815        1.64144635018929
H           -0.97566235220098       -2.27022153427789        2.10814240452484
H            0.74852040562630       -2.05121086549001        2.45142637761208
H            0.23718377056137       -2.76670575722719        0.91406435427474
H            1.12223971808251       -0.06673651915046       -0.64500597633459
H            7.17778538773738        1.16348742609251       -0.15667319693887
H            7.09840231016173        0.97412576083080       -1.92657542920216
H            7.28495278729514       -0.44466094839165       -0.87417608771981
H           -0.17019433999496       -1.89666345930180       -1.24007171910783

          :  Hamiltonian                  GFN1-xTB          :
         :: total energy             -79.621662022356 Eh    ::
         :: gradient norm              0.000997328448 Eh/a0 ::
         :: HOMO-LUMO gap              1.685287598857 eV    ::
         :: SCC energy               -80.349027086209 Eh    ::
         :: -> Gsolv                  -0.123900819477 Eh    ::
         :: repulsion energy           0.750132771143 Eh    ::

    * Orbital Energies and Occupations

         #    Occupation            Energy/Eh            Energy/eV
      -------------------------------------------------------------
         1        2.0000           -0.8600906             -23.4043
       ...           ...                  ...                  ...
        52        2.0000           -0.4846677             -13.1885
        53        2.0000           -0.4784654             -13.0197
        54        2.0000           -0.4654672             -12.6660
        55        2.0000           -0.4597917             -12.5116
        56        2.0000           -0.4564687             -12.4211
        57        2.0000           -0.4557024             -12.4003
        58        2.0000           -0.4474475             -12.1757
        59        2.0000           -0.4409952             -12.0001
        60        2.0000           -0.4401909             -11.9782
        61        2.0000           -0.4375573             -11.9065
        62        2.0000           -0.4181109             -11.3774
        63        2.0000           -0.3786379             -10.3033
        64        2.0000           -0.3668444              -9.9823 (HOMO)
        65                         -0.3049112              -8.2971 (LUMO)
        66                         -0.2711280              -7.3778
        67                         -0.2536664              -6.9026
        68                         -0.2410102              -6.5582
        69                         -0.1973331              -5.3697
        70                         -0.1932481              -5.2585
        71                         -0.1407676              -3.8305
        72                         -0.1224021              -3.3307
        73                         -0.1181054              -3.2138
        74                         -0.1136440              -3.0924
        75                         -0.1090777              -2.9682
       ...                                ...                  ...
       124                          0.7661798              20.8488
      -------------------------------------------------------------
                  HL-Gap            0.0619332 Eh            1.6853 eV

Wiberg/Mayer (AO) data.
largest (>0.10) Wiberg bond orders for each atom

     #   Z sym  total        # sym  WBO       # sym  WBO       # sym  WBO
 ---------------------------------------------------------------------------
     1   6 C    3.899 --    25 H    0.987    26 H    0.980    27 H    0.980
                             2 O    0.927
     2   8 O    2.137 --     3 C    1.025     1 C    0.927     4 O    0.109
     3   6 C    3.850 --     4 O    1.594     5 C    1.118     2 O    1.025
     4   8 O    1.869 --     3 C    1.594     2 O    0.109
     5   6 C    3.915 --    23 C    1.266     6 N    1.154     3 C    1.118
                            24 O    0.130
     6   7 N    3.030 --     7 C    1.637     5 C    1.154
     7   6 C    3.933 --     6 N    1.637    20 N    1.088     8 C    0.978
     8   6 C    3.930 --     9 C    0.994    10 C    0.983     7 C    0.978
                            11 N    0.911
     9   6 C    3.992 --     8 C    0.994    30 H    0.985    28 H    0.984
                            29 H    0.984
    10   6 C    3.990 --    31 H    0.986    33 H    0.984     8 C    0.983
                            32 H    0.980
    11   7 N    3.353 --    12 C    1.267     8 C    0.911    34 H    0.896
                            13 O    0.181
    12   6 C    3.919 --    13 O    1.586    11 N    1.267    14 C    0.984
    13   8 O    1.904 --    12 C    1.586    11 N    0.181
    14   6 C    3.873 --    15 N    1.613    19 O    1.063    12 C    0.984
    15   7 N    3.016 --    14 C    1.613    16 N    1.197
    16   7 N    2.980 --    17 C    1.608    15 N    1.197
    17   6 C    3.872 --    16 N    1.608    19 O    1.082    18 C    1.031
    18   6 C    3.987 --    17 C    1.031    36 H    0.982    35 H    0.968
                            37 H    0.960
    19   8 O    2.329 --    17 C    1.082    14 C    1.063
    20   7 N    3.422 --    21 C    1.157     7 C    1.088    38 H    0.898
                            22 O    0.135
    21   6 C    3.876 --    22 O    1.581    20 N    1.157    23 C    0.966
    22   8 O    1.859 --    21 C    1.581    20 N    0.135
    23   6 C    3.942 --    24 O    1.527     5 C    1.266    21 C    0.966
    24   8 O    1.831 --    23 C    1.527     5 C    0.130
    25   1 H    1.016 --     1 C    0.987
    26   1 H    1.014 --     1 C    0.980
    27   1 H    1.014 --     1 C    0.980
    28   1 H    1.013 --     9 C    0.984
    29   1 H    1.009 --     9 C    0.984
    30   1 H    1.009 --     9 C    0.985
    31   1 H    1.004 --    10 C    0.986
    32   1 H    1.010 --    10 C    0.980
    33   1 H    1.003 --    10 C    0.984
    34   1 H    0.956 --    11 N    0.896
    35   1 H    0.997 --    18 C    0.968
    36   1 H    0.999 --    18 C    0.982
    37   1 H    0.997 --    18 C    0.960
    38   1 H    0.945 --    20 N    0.898
 ---------------------------------------------------------------------------

           -------------------------------------------------
          | TOTAL ENERGY              -79.621662022356 Eh   |
          | GRADIENT NORM               0.000997328448 Eh/α |
          | HOMO-LUMO GAP               1.685287598857 eV   |
           -------------------------------------------------

 * finished run on 2023/06/21 at 17:04:00.118
