   * xtb version 6.5.1 (579679a) compiled by 'ehlert@majestix' on 2022-07-11
          program call               : /lustre/hpc/kemi/ree/PhD/git/ReactivityQM/dep/xtb-6.5.1/bin/xtb --gfn 1 /lustre/hpc/kemi/ree/PhD/git/ReactivityQM/calculations/RaltegravirCLI/reac02prodE11/conf18/RaltegravirCLI_reac02prodE11_conf18_gfn1.xyz --opt --vfukui --chrg -1 --uhf 0 --alpb DMSO

   ID    Z sym.   atoms
    1    6 C      1, 3-6, 9, 10, 13-17, 19-21, 23, 24
    2    7 N      2, 7, 8, 12
    3    8 O      11, 22, 25
    4    9 F      18
    5    1 H      26-47

      * Solvation model:               ALPB
        Solvent                        DMSO
        Solvent mass                       7.8130E+01 g/mol
          :  Hamiltonian                  GFN1-xTB          :
 * total energy  :   -80.1938875 Eh     change       -0.1431033E-10 Eh
 * total energy  :   -80.2031612 Eh     change       -0.9273752E-02 Eh
 * total energy  :   -80.2061392 Eh     change       -0.2978018E-02 Eh
 * total energy  :   -80.2070364 Eh     change       -0.8972137E-03 Eh
 * total energy  :   -80.2082798 Eh     change       -0.1243399E-02 Eh
 * total energy  :   -80.2103291 Eh     change       -0.2049291E-02 Eh
 * total energy  :   -80.2064044 Eh     change        0.3924687E-02 Eh
 * total energy  :   -80.2136737 Eh     change       -0.7269274E-02 Eh
 * total energy  :   -80.2159455 Eh     change       -0.2271763E-02 Eh
 * total energy  :   -80.2201590 Eh     change       -0.4213478E-02 Eh
 * total energy  :   -80.2341359 Eh     change       -0.1558715E-04 Eh
 * total energy  :   -80.2341508 Eh     change       -0.1491205E-04 Eh
 * total energy  :   -80.2341602 Eh     change       -0.9373968E-05 Eh
 * total energy  :   -80.2341669 Eh     change       -0.6697225E-05 Eh
 * total energy  :   -80.2341734 Eh     change       -0.6583431E-05 Eh
 * total energy  :   -80.2341804 Eh     change       -0.6986201E-05 Eh
 * total energy  :   -80.2341862 Eh     change       -0.5806116E-05 Eh
 * total energy  :   -80.2341921 Eh     change       -0.5853524E-05 Eh
 * total energy  :   -80.2341948 Eh     change       -0.2662659E-05 Eh
   *** GEOMETRY OPTIMIZATION CONVERGED AFTER 44 ITERATIONS ***

 final structure:
================
47
 xtb: 6.5.1 (579679a)
C           -4.11593641140137       -0.78419375659982       -0.52635148487996
N           -2.70553592138819       -0.71073268983130       -0.15484669139806
C           -2.16689755136154        0.37017975382817        0.55297949630868
C           -3.04777580749641        1.44795850033809        1.18537387223557
C           -3.65418383580980        0.90847854482841        2.49057854417505
C           -2.17791648666860        2.67680692519002        1.50782192452954
N           -4.13467826821733        1.85430208816214        0.29114860695081
N           -0.91811512876550        0.43874146157230        0.83266563660649
C           -0.02297235575252       -0.58786831026928        0.45682672608670
C            1.27162110413057       -0.52937265565884        1.10553352538128
O            1.62258473820779        0.37324507193483        1.88330907850776
N            2.12026892109805       -1.59687025822196        0.86251512521958
C            3.52302041097218       -1.47529504230556        1.22471100783060
C            4.29884309233788       -0.71824803920144        0.16505997547510
C            4.28396904610575        0.67598820541711        0.14263650941394
C            4.97315554958692        1.37644651195359       -0.83687996734605
C            5.67204588401457        0.65639258110304       -1.78893181428535
F            6.34933252598479        1.32896723000292       -2.74026358839225
C            5.70893363014931       -0.72517400507650       -1.80064302726527
C            5.01158944417520       -1.40843985728716       -0.81270471184128
C           -0.41525303487632       -1.53160475026534       -0.47964347318345
O            0.19747629860473       -2.55709050861758       -0.88014946360871
C           -1.79105674414468       -1.27368586368894       -1.15218899845042
C           -1.60905888252115       -0.31425086276482       -2.35129170601832
O           -2.27636672962711       -2.51001919227012       -1.61010578835176
H           -4.37375171867495       -0.07685107960065       -1.32124035485013
H           -4.33060292334788       -1.79793598050062       -0.87103849390488
H           -4.74151922469670       -0.57721791825525        0.33964587844522
H           -4.22278408402142        1.69240190927026        2.99044970958286
H           -2.85915855841808        0.57383918256402        3.15756609019301
H           -4.32229388984715        0.07044628381671        2.29560521829439
H           -1.38328957729213        2.40952171673197        2.20494758130468
H           -1.72362408079533        3.06132830642092        0.59488580519437
H           -2.79444240302245        3.45795422061668        1.95034812058769
H           -3.75662219114364        2.40267812827064       -0.47154402547313
H           -4.77253135106588        2.45147602808298        0.79771061825113
H            1.93559729575871       -2.16156032941408        0.04012115113935
H            3.93723817086705       -2.48078095967295        1.34506698797363
H            3.58789416594501       -0.95135365169544        2.18489372130630
H            3.73102051915964        1.21932741908318        0.90192961770723
H            4.97673790095148        2.45848990963608       -0.86254377601512
H            6.27255615122079       -1.25110169894456       -2.55970802257480
H            5.03466484244270       -2.49219560638829       -0.80220821486785
H           -1.50656652612780       -3.11894965492957       -1.56216872567626
H           -1.28786496892971        0.66538774949735       -2.00182495437615
H           -0.85388901879960       -0.72619111177364       -3.01848295840427
H           -2.54386301748917       -0.21337094508796       -2.89956928753953

          :  Hamiltonian                  GFN1-xTB          :
         :: total energy             -80.234194751319 Eh    ::
         :: gradient norm              0.000272288406 Eh/a0 ::
         :: HOMO-LUMO gap              1.926724965603 eV    ::
         :: SCC energy               -81.087967670013 Eh    ::
         :: -> Gsolv                  -0.103604960047 Eh    ::
         :: repulsion energy           0.884816150063 Eh    ::

    * Orbital Energies and Occupations

         #    Occupation            Energy/Eh            Energy/eV
      -------------------------------------------------------------
         1        2.0000           -0.8533080             -23.2197
       ...           ...                  ...                  ...
        56        2.0000           -0.4599564             -12.5161
        57        2.0000           -0.4570917             -12.4381
        58        2.0000           -0.4443812             -12.0922
        59        2.0000           -0.4401382             -11.9768
        60        2.0000           -0.4383183             -11.9272
        61        2.0000           -0.4247468             -11.5579
        62        2.0000           -0.4089276             -11.1275
        63        2.0000           -0.4024120             -10.9502
        64        2.0000           -0.3943792             -10.7316
        65        2.0000           -0.3879484             -10.5566
        66        2.0000           -0.3786205             -10.3028
        67        2.0000           -0.3665975              -9.9756
        68        2.0000           -0.3311179              -9.0102 (HOMO)
        69                         -0.2603120              -7.0835 (LUMO)
        70                         -0.2526198              -6.8741
        71                         -0.2255999              -6.1389
        72                         -0.2072700              -5.6401
        73                         -0.1321760              -3.5967
        74                         -0.1148634              -3.1256
        75                         -0.1096732              -2.9844
        76                         -0.1061241              -2.8878
        77                         -0.1040234              -2.8306
        78                         -0.1023608              -2.7854
        79                         -0.0961121              -2.6153
       ...                                ...                  ...
       144                          0.7020938              19.1049
      -------------------------------------------------------------
                  HL-Gap            0.0708058 Eh            1.9267 eV

Wiberg/Mayer (AO) data.
largest (>0.10) Wiberg bond orders for each atom

     #   Z sym  total        # sym  WBO       # sym  WBO       # sym  WBO
 ---------------------------------------------------------------------------
     1   6 C    3.965 --    27 H    0.983    28 H    0.982    26 H    0.980
                             2 N    0.960
     2   7 N    3.239 --     3 C    1.088     1 C    0.960    23 C    0.929
                             8 N    0.138
     3   6 C    3.941 --     8 N    1.673     2 N    1.088     4 C    0.972
     4   6 C    3.964 --     6 C    0.990     5 C    0.987     7 N    0.977
                             3 C    0.972
     5   6 C    3.995 --     4 C    0.987    30 H    0.986    29 H    0.985
                            31 H    0.981
     6   6 C    3.996 --     4 C    0.990    34 H    0.987    33 H    0.985
                            32 H    0.982
     7   7 N    2.979 --     4 C    0.977    35 H    0.948    36 H    0.948
     8   7 N    3.016 --     3 C    1.673     9 C    1.058     2 N    0.138
     9   6 C    3.900 --    21 C    1.392    10 C    1.140     8 N    1.058
                            22 O    0.125
    10   6 C    3.900 --    11 O    1.502     9 C    1.140    12 N    1.137
    11   8 O    1.813 --    10 C    1.502    12 N    0.116
    12   7 N    3.230 --    10 C    1.137    13 C    0.962    37 H    0.893
                            11 O    0.116
    13   6 C    3.969 --    14 C    0.993    38 H    0.979    39 H    0.971
                            12 N    0.962
    14   6 C    3.987 --    20 C    1.421    15 C    1.413    13 C    0.993
    15   6 C    3.992 --    16 C    1.446    14 C    1.413    40 H    0.968
                            19 C    0.111
    16   6 C    3.992 --    15 C    1.446    17 C    1.400    41 H    0.971
                            20 C    0.109
    17   6 C    3.856 --    19 C    1.405    16 C    1.400    18 F    0.915
    18   9 F    1.040 --    17 C    0.915
    19   6 C    3.992 --    20 C    1.439    17 C    1.405    42 H    0.970
                            15 C    0.111
    20   6 C    3.994 --    19 C    1.439    14 C    1.421    43 H    0.972
                            16 C    0.109
    21   6 C    3.934 --    22 O    1.441     9 C    1.392    23 C    0.914
    22   8 O    1.848 --    21 C    1.441     9 C    0.125
    23   6 C    3.883 --    24 C    0.967    25 O    0.965     2 N    0.929
                            21 C    0.914
    24   6 C    3.995 --    45 H    0.987    46 H    0.986    47 H    0.984
                            23 C    0.967
    25   8 O    1.899 --    23 C    0.965    44 H    0.821
    26   1 H    1.023 --     1 C    0.980
    27   1 H    1.021 --     1 C    0.983
    28   1 H    1.030 --     1 C    0.982
    29   1 H    1.003 --     5 C    0.985
    30   1 H    1.009 --     5 C    0.986
    31   1 H    1.009 --     5 C    0.981
    32   1 H    1.025 --     6 C    0.982
    33   1 H    1.013 --     6 C    0.985
    34   1 H    1.006 --     6 C    0.987
    35   1 H    0.967 --     7 N    0.948
    36   1 H    0.963 --     7 N    0.948
    37   1 H    0.969 --    12 N    0.893
    38   1 H    1.010 --    13 C    0.979
    39   1 H    1.020 --    13 C    0.971
    40   1 H    1.018 --    15 C    0.968
    41   1 H    1.000 --    16 C    0.971
    42   1 H    0.999 --    19 C    0.970
    43   1 H    1.001 --    20 C    0.972
    44   1 H    0.890 --    25 O    0.821
    45   1 H    1.008 --    24 C    0.987
    46   1 H    1.009 --    24 C    0.986
    47   1 H    1.007 --    24 C    0.984
 ---------------------------------------------------------------------------

           -------------------------------------------------
          | TOTAL ENERGY              -80.234194751319 Eh   |
          | GRADIENT NORM               0.000272288406 Eh/α |
          | HOMO-LUMO GAP               1.926724965603 eV   |
           -------------------------------------------------

 * finished run on 2023/06/20 at 15:13:41.512
