   * xtb version 6.5.1 (579679a) compiled by 'ehlert@majestix' on 2022-07-11
          program call               : /lustre/hpc/kemi/ree/PhD/git/ReactivityQM/dep/xtb-6.5.1/bin/xtb --gfn 1 /lustre/hpc/kemi/ree/PhD/git/ReactivityQM/calculations/R01/reac02prodN11/conf12/R01_reac02prodN11_conf12_gfn1.xyz --opt --vfukui --chrg 1 --uhf 0 --alpb DMSO

   ID    Z sym.   atoms
    1    6 C      1, 3, 5, 6, 8, 11-15
    2    8 O      2, 4, 7, 9
    3    7 N      10, 16, 17
    4    1 H      18-33

      * Solvation model:               ALPB
        Solvent                        DMSO
        Solvent mass                       7.8130E+01 g/mol
          :  Hamiltonian                  GFN1-xTB          :
 * total energy  :   -57.7938087 Eh     change       -0.2106049E-10 Eh
 * total energy  :   -57.8060662 Eh     change       -0.1225760E-01 Eh
 * total energy  :   -57.8102728 Eh     change       -0.4206583E-02 Eh
 * total energy  :   -57.8108935 Eh     change       -0.6206908E-03 Eh
 * total energy  :   -57.8112148 Eh     change       -0.3213098E-03 Eh
 * total energy  :   -57.8113495 Eh     change       -0.1346201E-03 Eh
 * total energy  :   -57.8114815 Eh     change       -0.1320149E-03 Eh
 * total energy  :   -57.8115879 Eh     change       -0.1064529E-03 Eh
 * total energy  :   -57.8116594 Eh     change       -0.7152410E-04 Eh
 * total energy  :   -57.8117167 Eh     change       -0.5722459E-04 Eh
 * total energy  :   -57.8642954 Eh     change        0.2436114E-02 Eh
 * total energy  :   -57.8666525 Eh     change       -0.2357112E-02 Eh
 * total energy  :   -57.8668166 Eh     change       -0.1641553E-03 Eh
 * total energy  :   -57.8668474 Eh     change       -0.3079405E-04 Eh
 * total energy  :   -57.8668722 Eh     change       -0.2478931E-04 Eh
 * total energy  :   -57.8668874 Eh     change       -0.1518713E-04 Eh
 * total energy  :   -57.8668978 Eh     change       -0.1040822E-04 Eh
 * total energy  :   -57.8669024 Eh     change       -0.4591767E-05 Eh
 * total energy  :   -57.8669057 Eh     change       -0.3243448E-05 Eh
   *** GEOMETRY OPTIMIZATION CONVERGED AFTER 94 ITERATIONS ***

 final structure:
================
33
 xtb: 6.5.1 (579679a)
C            4.92633467621647        1.80702135681958       -0.31125906623485
O            3.89580296484112        0.81303130016068       -0.25552430695131
C            2.65234455387526        1.25536998238212       -0.11250845139061
O            2.36232981944121        2.42602523244725       -0.02504168061023
C            1.63732725398610        0.15815568001453       -0.07392486410667
C            1.87630406888305       -1.18600437725204       -0.13652113896625
O            3.08093993858619       -1.74448611894621       -0.24242896681154
C            0.75641291612472       -2.11674087468369       -0.08581935403849
O            0.91405225181665       -3.32882096426128       -0.13118218418280
N           -0.50888939532398       -1.55212229123795        0.01735954941317
C           -1.55661184227084       -2.57226978224664        0.07165648351740
C           -0.66493151498217       -0.18936591125926        0.07370192779055
C           -2.01435331580929        0.51926552090901        0.11685898783799
C           -2.87616500676742        0.23542306896638       -1.11301459041732
C           -1.79128349872204        2.02808050405843        0.25470057280763
N           -2.78416984839409        0.11688665514032        1.35882809194546
N            0.34929412181220        0.60780780267679        0.03013795845838
H            4.89427272635631        2.43003374635837        0.58555439074851
H            5.87196196890382        1.27168916166932       -0.36920425873962
H            4.78951426279699        2.43555644761336       -1.19440762140158
H            2.98127793810659       -2.71536827051310       -0.25922590794681
H           -2.20391937213804        0.19565228805130        2.18744971144837
H           -2.53574984283147       -2.13170090770037        0.18348597447924
H           -1.51749322839873       -3.15386665908018       -0.84997354115146
H           -1.34565632589243       -3.22908113507671        0.91564595756869
H           -3.14021228826757       -0.81452557624829       -1.19861894360974
H           -3.79248890004247        0.82097697246164       -1.06067391568112
H           -2.32135159734456        0.52911930890542       -2.00396656714341
H           -2.75116076740283        2.53644603136905        0.32118056193856
H           -1.20377408366169        2.24518314287876        1.14501256934737
H           -1.25292961726516        2.39627972168460       -0.61724871435453
H           -3.58147446869555        0.73449443035309        1.47111001933635
H           -3.14555654753378       -0.82814448641366        1.30786131710074

          :  Hamiltonian                  GFN1-xTB          :
         :: total energy             -57.866905659287 Eh    ::
         :: gradient norm              0.000295076437 Eh/a0 ::
         :: HOMO-LUMO gap              2.958525559353 eV    ::
         :: SCC energy               -58.446915444867 Eh    ::
         :: -> Gsolv                  -0.133357796491 Eh    ::
         :: repulsion energy           0.599223045702 Eh    ::

    * Orbital Energies and Occupations

         #    Occupation            Energy/Eh            Energy/eV
      -------------------------------------------------------------
         1        2.0000           -0.8965463             -24.3963
       ...           ...                  ...                  ...
        35        2.0000           -0.5519872             -15.0203
        36        2.0000           -0.5494145             -14.9503
        37        2.0000           -0.5455369             -14.8448
        38        2.0000           -0.5444195             -14.8144
        39        2.0000           -0.5337449             -14.5239
        40        2.0000           -0.5281319             -14.3712
        41        2.0000           -0.5197230             -14.1424
        42        2.0000           -0.5030136             -13.6877
        43        2.0000           -0.4960476             -13.4981
        44        2.0000           -0.4922353             -13.3944
        45        2.0000           -0.4767642             -12.9734
        46        2.0000           -0.4642081             -12.6317
        47        2.0000           -0.4463549             -12.1459 (HOMO)
        48                         -0.3376310              -9.1874 (LUMO)
        49                         -0.3072253              -8.3600
        50                         -0.2526133              -6.8740
        51                         -0.2086863              -5.6786
        52                         -0.1742924              -4.7427
        53                         -0.1719260              -4.6783
        54                         -0.1576895              -4.2910
        55                         -0.1455667              -3.9611
        56                         -0.1417276              -3.8566
        57                         -0.1357681              -3.6944
        58                         -0.1234553              -3.3594
       ...                                ...                  ...
       100                          0.7245860              19.7170
      -------------------------------------------------------------
                  HL-Gap            0.1087238 Eh            2.9585 eV

Wiberg/Mayer (AO) data.
largest (>0.10) Wiberg bond orders for each atom

     #   Z sym  total        # sym  WBO       # sym  WBO       # sym  WBO
 ---------------------------------------------------------------------------
     1   6 C    3.867 --    19 H    0.986    18 H    0.979    20 H    0.979
                             2 O    0.892
     2   8 O    2.210 --     3 C    1.125     1 C    0.892     4 O    0.137
     3   6 C    3.855 --     4 O    1.660     2 O    1.125     5 C    0.992
     4   8 O    1.923 --     3 C    1.660     2 O    0.137
     5   6 C    3.959 --     6 C    1.491    17 N    1.184     3 C    0.992
     6   6 C    3.922 --     5 C    1.491     7 O    1.122     8 C    1.069
     7   8 O    2.099 --     6 C    1.122    21 H    0.800
     8   6 C    3.911 --     9 O    1.575    10 N    1.118     6 C    1.069
     9   8 O    1.916 --     8 C    1.575    10 N    0.135
    10   7 N    3.502 --    12 C    1.166     8 C    1.118    11 C    0.926
                             9 O    0.135
    11   6 C    3.917 --    23 H    0.975    25 H    0.971    24 H    0.971
                            10 N    0.926
    12   6 C    3.940 --    17 N    1.583    10 N    1.166    13 C    0.977
    13   6 C    3.884 --    15 C    1.001    14 C    0.995    12 C    0.977
                            16 N    0.871
    14   6 C    3.981 --    13 C    0.995    27 H    0.979    28 H    0.976
                            26 H    0.976
    15   6 C    3.981 --    13 C    1.001    29 H    0.981    30 H    0.981
                            31 H    0.976
    16   7 N    3.563 --    22 H    0.885    32 H    0.884    33 H    0.883
                            13 C    0.871
    17   7 N    3.041 --    12 C    1.583     5 C    1.184
    18   1 H    1.007 --     1 C    0.979
    19   1 H    1.010 --     1 C    0.986
    20   1 H    1.006 --     1 C    0.979
    21   1 H    0.840 --     7 O    0.800
    22   1 H    0.904 --    16 N    0.885
    23   1 H    1.002 --    11 C    0.975
    24   1 H    0.999 --    11 C    0.971
    25   1 H    1.000 --    11 C    0.971
    26   1 H    0.997 --    14 C    0.976
    27   1 H    0.993 --    14 C    0.979
    28   1 H    0.995 --    14 C    0.976
    29   1 H    0.995 --    15 C    0.981
    30   1 H    1.004 --    15 C    0.981
    31   1 H    1.006 --    15 C    0.976
    32   1 H    0.904 --    16 N    0.884
    33   1 H    0.917 --    16 N    0.883
 ---------------------------------------------------------------------------

           -------------------------------------------------
          | TOTAL ENERGY              -57.866905659287 Eh   |
          | GRADIENT NORM               0.000295076437 Eh/α |
          | HOMO-LUMO GAP               2.958525559353 eV   |
           -------------------------------------------------

 * finished run on 2023/06/20 at 15:11:45.855
