   * xtb version 6.5.1 (579679a) compiled by 'ehlert@majestix' on 2022-07-11
          program call               : /lustre/hpc/kemi/ree/PhD/git/ReactivityQM/dep/xtb-6.5.1/bin/xtb --gfn 1 /lustre/hpc/kemi/ree/PhD/git/ReactivityQM/calculations/R02oxygendeprot/reac01prodN02/conf18/R02oxygendeprot_reac01prodN02_conf18_gfn1.xyz --opt --vfukui --chrg 0 --uhf 0 --alpb DMSO

   ID    Z sym.   atoms
    1    6 C      1, 3, 5, 7-10, 12, 14, 15, 18, 19, 22, 24
    2    8 O      2, 4, 13, 20, 23, 25
    3    7 N      6, 11, 16, 17, 21
    4    1 H      26-42

      * Solvation model:               ALPB
        Solvent                        DMSO
        Solvent mass                       7.8130E+01 g/mol
          :  Hamiltonian                  GFN1-xTB          :
 * total energy  :   -82.9443396 Eh     change       -0.3553282E-09 Eh
 * total energy  :   -82.9630275 Eh     change       -0.1868782E-01 Eh
 * total energy  :   -82.9710061 Eh     change       -0.7978668E-02 Eh
 * total energy  :   -82.9721991 Eh     change       -0.1192927E-02 Eh
 * total energy  :   -82.9729566 Eh     change       -0.7575145E-03 Eh
 * total energy  :   -82.9732533 Eh     change       -0.2967622E-03 Eh
 * total energy  :   -82.9735118 Eh     change       -0.2584471E-03 Eh
 * total energy  :   -82.9737798 Eh     change       -0.2680240E-03 Eh
 * total energy  :   -82.9740114 Eh     change       -0.2315486E-03 Eh
 * total energy  :   -82.9742302 Eh     change       -0.2188484E-03 Eh
 * total energy  :   -82.9760847 Eh     change       -0.1333447E-04 Eh
 * total energy  :   -82.9761159 Eh     change       -0.3115708E-04 Eh
 * total energy  :   -82.9761324 Eh     change       -0.1650279E-04 Eh
 * total energy  :   -82.9761540 Eh     change       -0.2156306E-04 Eh
 * total energy  :   -82.9761715 Eh     change       -0.1755590E-04 Eh
 * total energy  :   -82.9761789 Eh     change       -0.7423704E-05 Eh
 * total energy  :   -82.9761841 Eh     change       -0.5128424E-05 Eh
 * total energy  :   -82.9761894 Eh     change       -0.5292813E-05 Eh
 * total energy  :   -82.9761917 Eh     change       -0.2367674E-05 Eh
   *** GEOMETRY OPTIMIZATION CONVERGED AFTER 35 ITERATIONS ***

 final structure:
================
42
 xtb: 6.5.1 (579679a)
C            2.96399748289147        4.47687404235795       -1.04604970587036
O            3.23140761891625        3.28451206910087       -0.31752223874149
C            2.22283810571812        2.38731225519277       -0.26541869160058
O            1.15009818674434        2.60509945861067       -0.81663060164032
C            2.52132750357094        1.17407331837270        0.48243900853136
N            1.45356831367090        0.29846810033511        0.49824528066447
C            1.52659164623986       -0.82912133742831        1.10134014189351
C            0.32096081821311       -1.75203101600846        1.07071795328729
C           -0.21043002037910       -2.02286567603152        2.48199704079148
C            0.64487454761927       -3.05159807787190        0.32595798050919
N           -0.67317318234035       -0.98013866433563        0.31336894865855
C           -1.88361046104595       -1.31614113371120       -0.01162600695122
O           -2.34269100479470       -2.48644169928502        0.34047306803541
C           -3.66377982348806       -2.93506462265702        0.00625309327994
C           -2.66734485549995       -0.35408054453471       -0.75692515491284
N           -3.88563811395609       -0.44354300597430       -1.21609478287016
N           -4.15650370797753        0.72104388007722       -1.83721288992246
C           -3.09057573981722        1.46895186859769       -1.72829618878143
C           -2.89488258278385        2.83766511941586       -2.24247844124278
O           -2.12057138694128        0.84089334440478       -1.05704152108172
N            2.65847450162907       -1.23283786104826        1.76437825531338
C            3.79952556870835       -0.46206111176044        1.84056804472115
O            4.77024160888019       -0.88253285903545        2.45720198456070
C            3.74828055637197        0.87743327353898        1.13133519051114
O            4.75489468357722        1.60232721977067        1.16501197794074
H            2.13520397938429        5.02715832649545       -0.59110067070567
H            2.70515956430942        4.24360623094349       -2.08292530986147
H            3.87069501403585        5.08018240785129       -1.01631192253200
H           -1.08364272244745       -2.66945947042343        2.44151049371600
H           -0.48189393930562       -1.08502120665990        2.96398190277626
H            0.56240979246658       -2.51549897482698        3.06864336839433
H            1.45436860121929       -3.56560888839560        0.84050464820132
H           -0.22407177504995       -3.70450155643860        0.30151028124428
H            0.95439200582463       -2.82929447329047       -0.69398846970288
H           -0.29286121339615       -0.05671258959410        0.02540201897934
H           -3.74978663198832       -3.93121358012584        0.43567130617740
H           -3.78355711215772       -2.97127676449163       -1.07771778378632
H           -4.40860580160497       -2.26421612199386        0.43682773547905
H           -3.79403902005433        3.16714688163371       -2.75684802291093
H           -2.04830049444197        2.85820134944487       -2.92953174814604
H           -2.67391591765129        3.51460640164919       -1.41665776816119
H            2.68056640714938       -2.12429331192248        2.23016719569712

          :  Hamiltonian                  GFN1-xTB          :
         :: total energy             -82.976191731373 Eh    ::
         :: gradient norm              0.000529325393 Eh/a0 ::
         :: HOMO-LUMO gap              0.357580406445 eV    ::
         :: SCC energy               -83.751126805546 Eh    ::
         :: -> Gsolv                  -0.087531224052 Eh    ::
         :: repulsion energy           0.800869508365 Eh    ::

    * Orbital Energies and Occupations

         #    Occupation            Energy/Eh            Energy/eV
      -------------------------------------------------------------
         1        2.0000           -0.8950246             -24.3549
       ...           ...                  ...                  ...
        55        2.0000           -0.5055927             -13.7579
        56        2.0000           -0.5000880             -13.6081
        57        2.0000           -0.4984325             -13.5630
        58        2.0000           -0.4920944             -13.3906
        59        2.0000           -0.4817978             -13.1104
        60        2.0000           -0.4772392             -12.9863
        61        2.0000           -0.4701055             -12.7922
        62        2.0000           -0.4678007             -12.7295
        63        2.0000           -0.4539901             -12.3537
        64        2.0000           -0.4449293             -12.1071
        65        2.0000           -0.4349128             -11.8346
        66        2.0000           -0.3901800             -10.6173
        67        1.9980           -0.3770476             -10.2600 (HOMO)
        68        0.0020           -0.3639068              -9.9024 (LUMO)
        69                         -0.2820388              -7.6747
        70                         -0.2797342              -7.6120
        71                         -0.2554936              -6.9523
        72                         -0.2462324              -6.7003
        73                         -0.2061763              -5.6103
        74                         -0.1573856              -4.2827
        75                         -0.1504904              -4.0951
        76                         -0.1415470              -3.8517
        77                         -0.1336750              -3.6375
        78                         -0.1234203              -3.3584
       ...                                ...                  ...
       134                          0.7546953              20.5363
      -------------------------------------------------------------
                  HL-Gap            0.0131408 Eh            0.3576 eV

Wiberg/Mayer (AO) data.
largest (>0.10) Wiberg bond orders for each atom

     #   Z sym  total        # sym  WBO       # sym  WBO       # sym  WBO
 ---------------------------------------------------------------------------
     1   6 C    3.893 --    28 H    0.987    26 H    0.980    27 H    0.980
                             2 O    0.919
     2   8 O    2.169 --     3 C    1.062     1 C    0.919     4 O    0.112
     3   6 C    3.853 --     4 O    1.577     5 C    1.105     2 O    1.062
     4   8 O    1.855 --     3 C    1.577     2 O    0.112
     5   6 C    3.907 --    24 C    1.266     6 N    1.148     3 C    1.105
                            25 O    0.129
     6   7 N    3.094 --     7 C    1.615     5 C    1.148
     7   6 C    3.936 --     6 N    1.615    21 N    1.113     8 C    0.974
     8   6 C    3.904 --     9 C    0.980    10 C    0.979     7 C    0.974
                            11 N    0.900
     9   6 C    3.982 --    30 H    0.984    29 H    0.982    31 H    0.981
                             8 C    0.980
    10   6 C    3.982 --    34 H    0.984    33 H    0.982    32 H    0.981
                             8 C    0.979
    11   7 N    3.508 --    12 C    1.498     8 C    0.900    35 H    0.814
                            13 O    0.113
    12   6 C    3.899 --    11 N    1.498    13 O    1.177    15 C    1.077
    13   8 O    2.265 --    12 C    1.177    14 C    0.866    11 N    0.113
    14   6 C    3.834 --    36 H    0.980    37 H    0.975    38 H    0.975
                            13 O    0.866
    15   6 C    3.888 --    16 N    1.553    12 C    1.077    20 O    1.054
    16   7 N    3.028 --    15 C    1.553    17 N    1.246
    17   7 N    2.984 --    18 C    1.552    16 N    1.246
    18   6 C    3.853 --    17 N    1.552    20 O    1.092    19 C    1.039
    19   6 C    3.980 --    18 C    1.039    39 H    0.981    40 H    0.956
                            41 H    0.955
    20   8 O    2.342 --    18 C    1.092    15 C    1.054
    21   7 N    3.424 --    22 C    1.139     7 C    1.113    42 H    0.894
                            23 O    0.132
    22   6 C    3.873 --    23 O    1.600    21 N    1.139    24 C    0.962
    23   8 O    1.879 --    22 C    1.600    21 N    0.132
    24   6 C    3.943 --    25 O    1.535     5 C    1.266    22 C    0.962
    25   8 O    1.840 --    24 C    1.535     5 C    0.129
    26   1 H    1.012 --     1 C    0.980
    27   1 H    1.013 --     1 C    0.980
    28   1 H    1.014 --     1 C    0.987
    29   1 H    1.003 --     9 C    0.982
    30   1 H    1.000 --     9 C    0.984
    31   1 H    0.998 --     9 C    0.981
    32   1 H    0.998 --    10 C    0.981
    33   1 H    1.003 --    10 C    0.982
    34   1 H    1.000 --    10 C    0.984
    35   1 H    0.950 --    11 N    0.814
    36   1 H    1.003 --    14 C    0.980
    37   1 H    1.009 --    14 C    0.975
    38   1 H    1.010 --    14 C    0.975
    39   1 H    0.996 --    19 C    0.981
    40   1 H    0.993 --    19 C    0.956
    41   1 H    0.993 --    19 C    0.955
    42   1 H    0.940 --    21 N    0.894
 ---------------------------------------------------------------------------

           -------------------------------------------------
          | TOTAL ENERGY              -82.976191731373 Eh   |
          | GRADIENT NORM               0.000529325393 Eh/α |
          | HOMO-LUMO GAP               0.357580406445 eV   |
           -------------------------------------------------

 * finished run on 2023/06/21 at 17:18:01.507
