   * xtb version 6.5.1 (579679a) compiled by 'ehlert@majestix' on 2022-07-11
          program call               : /lustre/hpc/kemi/ree/PhD/git/ReactivityQM/dep/xtb-6.5.1/bin/xtb --gfn 1 /lustre/hpc/kemi/ree/PhD/git/ReactivityQM/calculations/RaltegravirCLI/reac01prodE06/conf11/RaltegravirCLI_reac01prodE06_conf11_gfn1.xyz --opt --vfukui --chrg -1 --uhf 0 --alpb DMSO

   ID    Z sym.   atoms
    1    6 C      1, 3, 5, 8, 9
    2    8 O      2, 10
    3   17 Cl     4
    4    7 N      6, 7
    5    1 H      11-16

      * Solvation model:               ALPB
        Solvent                        DMSO
        Solvent mass                       7.8130E+01 g/mol
          :  Hamiltonian                  GFN1-xTB          :
 * total energy  :   -34.1150103 Eh     change       -0.5542233E-12 Eh
 * total energy  :   -34.1205619 Eh     change       -0.5551552E-02 Eh
 * total energy  :   -34.1230032 Eh     change       -0.2441256E-02 Eh
 * total energy  :   -34.1238998 Eh     change       -0.8965936E-03 Eh
 * total energy  :   -34.1248795 Eh     change       -0.9797685E-03 Eh
 * total energy  :   -34.1257910 Eh     change       -0.9114404E-03 Eh
 * total energy  :   -34.1265957 Eh     change       -0.8046928E-03 Eh
 * total energy  :   -34.1269463 Eh     change       -0.3505991E-03 Eh
 * total energy  :   -34.1271367 Eh     change       -0.1904220E-03 Eh
 * total energy  :   -34.1271610 Eh     change       -0.2434308E-04 Eh
 * total energy  :   -34.1272185 Eh     change       -0.1444213E-04 Eh
 * total energy  :   -34.1272377 Eh     change       -0.1927513E-04 Eh
 * total energy  :   -34.1272489 Eh     change       -0.1112502E-04 Eh
 * total energy  :   -34.1272725 Eh     change       -0.2365598E-04 Eh
 * total energy  :   -34.1272896 Eh     change       -0.1709849E-04 Eh
 * total energy  :   -34.1273007 Eh     change       -0.1104253E-04 Eh
 * total energy  :   -34.1273044 Eh     change       -0.3694135E-05 Eh
 * total energy  :   -34.1273126 Eh     change       -0.8270945E-05 Eh
 * total energy  :   -34.1273149 Eh     change       -0.2314488E-05 Eh
   *** GEOMETRY OPTIMIZATION CONVERGED AFTER 20 ITERATIONS ***

 final structure:
================
16
 xtb: 6.5.1 (579679a)
C           -3.01960593952058        0.92291085344915        0.14817132806929
O           -2.06251160572092        0.44585534076673       -0.78346141647587
C           -1.46074349461804       -0.75848137939557       -0.41294615893190
Cl          -2.37627594888216       -2.20348350163504       -1.01296110239401
C           -0.07747815567829       -0.87576012041117       -0.49438716598534
N            0.65226815342750       -1.99605066986019       -0.47557980029976
N            1.96649213477891       -1.59716422851940       -0.29757998637227
C            1.97402404454346       -0.31562255274949       -0.21242868788940
C            3.14990477323916        0.57412567365907       -0.02071707921778
O            0.72734323127704        0.23306634452288       -0.32567571850759
H           -2.58966595183094        0.99143008370041        1.15532734298272
H           -3.89637559430323        0.26465362233262        0.18393976418378
H           -3.33063541050759        1.91587935350479       -0.18132714856908
H            4.03583732110102       -0.03190540766522        0.15623185716809
H            2.99360036982191        1.23849725874102        0.82942767487532
H            3.31382307287278        1.19205032955926       -0.90496670263624

          :  Hamiltonian                  GFN1-xTB          :
         :: total energy             -34.127314940413 Eh    ::
         :: gradient norm              0.000568137801 Eh/a0 ::
         :: HOMO-LUMO gap              2.917475154589 eV    ::
         :: SCC energy               -34.377535634443 Eh    ::
         :: -> Gsolv                  -0.095810867186 Eh    ::
         :: repulsion energy           0.257029676074 Eh    ::

    * Orbital Energies and Occupations

         #    Occupation            Energy/Eh            Energy/eV
      -------------------------------------------------------------
         1        2.0000           -0.8512216             -23.1629
       ...           ...                  ...                  ...
        16        2.0000           -0.5125960             -13.9484
        17        2.0000           -0.5083520             -13.8330
        18        2.0000           -0.4890204             -13.3069
        19        2.0000           -0.4825047             -13.1296
        20        2.0000           -0.4708211             -12.8117
        21        2.0000           -0.4523404             -12.3088
        22        2.0000           -0.4346454             -11.8273
        23        2.0000           -0.4299202             -11.6987
        24        2.0000           -0.4251104             -11.5678
        25        2.0000           -0.4066162             -11.0646
        26        2.0000           -0.3955103             -10.7624
        27        2.0000           -0.3817246             -10.3873
        28        2.0000           -0.3036186              -8.2619 (HOMO)
        29                         -0.1964033              -5.3444 (LUMO)
        30                         -0.1743530              -4.7444
        31                         -0.1371275              -3.7314
        32                         -0.1195252              -3.2524
        33                         -0.1068893              -2.9086
        34                         -0.0531900              -1.4474
        35                         -0.0521420              -1.4189
        36                         -0.0506139              -1.3773
        37                         -0.0497142              -1.3528
        38                          0.0113667               0.3093
        39                          0.0170684               0.4645
       ...                                ...                  ...
        57                          0.6400035              17.4154
      -------------------------------------------------------------
                  HL-Gap            0.1072152 Eh            2.9175 eV

Wiberg/Mayer (AO) data.
largest (>0.10) Wiberg bond orders for each atom

     #   Z sym  total        # sym  WBO       # sym  WBO       # sym  WBO
 ---------------------------------------------------------------------------
     1   6 C    3.929 --    13 H    0.986    12 H    0.982    11 H    0.982
                             2 O    0.949
     2   8 O    2.049 --     3 C    0.973     1 C    0.949
     3   6 C    3.485 --     5 C    1.379     2 O    0.973     4 Cl   0.837
                             6 N    0.149
     4  17 Cl   0.939 --     3 C    0.837
     5   6 C    3.865 --     3 C    1.379     6 N    1.376    10 O    0.980
     6   7 N    2.847 --     5 C    1.376     7 N    1.142     3 C    0.149
     7   7 N    2.983 --     8 C    1.679     6 N    1.142
     8   6 C    3.889 --     7 N    1.679     9 C    1.019    10 O    1.015
     9   6 C    3.995 --     8 C    1.019    14 H    0.986    15 H    0.976
                            16 H    0.973
    10   8 O    2.209 --     8 C    1.015     5 C    0.980
    11   1 H    1.028 --     1 C    0.982
    12   1 H    1.024 --     1 C    0.982
    13   1 H    1.022 --     1 C    0.986
    14   1 H    1.006 --     9 C    0.986
    15   1 H    1.005 --     9 C    0.976
    16   1 H    1.006 --     9 C    0.973
 ---------------------------------------------------------------------------

           -------------------------------------------------
          | TOTAL ENERGY              -34.127314940413 Eh   |
          | GRADIENT NORM               0.000568137801 Eh/α |
          | HOMO-LUMO GAP               2.917475154589 eV   |
           -------------------------------------------------

 * finished run on 2023/06/20 at 14:54:03.426
