   * xtb version 6.5.1 (579679a) compiled by 'ehlert@majestix' on 2022-07-11
          program call               : /lustre/hpc/kemi/ree/PhD/git/ReactivityQM/dep/xtb-6.5.1/bin/xtb --gfn 1 /lustre/hpc/kemi/ree/PhD/git/ReactivityQM/calculations/R02/reac01prodE08/conf08/R02_reac01prodE08_conf08_gfn1.xyz --opt --vfukui --chrg -1 --uhf 0 --alpb DMSO

   ID    Z sym.   atoms
    1    6 C      1, 3, 5, 7-10, 12, 14, 15, 18, 19, 22, 24
    2    8 O      2, 4, 13, 20, 23, 25
    3    7 N      6, 11, 16, 17, 21
    4    1 H      26-43

      * Solvation model:               ALPB
        Solvent                        DMSO
        Solvent mass                       7.8130E+01 g/mol
          :  Hamiltonian                  GFN1-xTB          :
 * total energy  :   -83.8507049 Eh     change       -0.2805223E-10 Eh
 * total energy  :   -83.8599990 Eh     change       -0.9294104E-02 Eh
 * total energy  :   -83.8634999 Eh     change       -0.3500851E-02 Eh
 * total energy  :   -83.8640351 Eh     change       -0.5351981E-03 Eh
 * total energy  :   -83.8644810 Eh     change       -0.4459422E-03 Eh
 * total energy  :   -83.8647027 Eh     change       -0.2217289E-03 Eh
 * total energy  :   -83.8648738 Eh     change       -0.1710420E-03 Eh
 * total energy  :   -83.8649745 Eh     change       -0.1006794E-03 Eh
 * total energy  :   -83.8650445 Eh     change       -0.7004960E-04 Eh
 * total energy  :   -83.8651136 Eh     change       -0.6910391E-04 Eh
 * total energy  :   -83.8665667 Eh     change       -0.7797547E-05 Eh
 * total energy  :   -83.8665794 Eh     change       -0.1274272E-04 Eh
 * total energy  :   -83.8665884 Eh     change       -0.9002130E-05 Eh
 * total energy  :   -83.8665976 Eh     change       -0.9176966E-05 Eh
 * total energy  :   -83.8666041 Eh     change       -0.6510605E-05 Eh
 * total energy  :   -83.8666098 Eh     change       -0.5685147E-05 Eh
 * total energy  :   -83.8666156 Eh     change       -0.5776919E-05 Eh
 * total energy  :   -83.8666206 Eh     change       -0.5008030E-05 Eh
 * total energy  :   -83.8666247 Eh     change       -0.4062611E-05 Eh
   *** GEOMETRY OPTIMIZATION CONVERGED AFTER 49 ITERATIONS ***

 final structure:
================
43
 xtb: 6.5.1 (579679a)
C           -4.86412501845966        3.38389425605222       -0.09697472395883
O           -3.90941451460673        2.32851722950388       -0.05785332812349
C           -4.07790165966810        1.34988835859984       -0.98375273779118
O           -4.99122718021137        1.38731680944262       -1.79251750617156
C           -3.06294715552133        0.30053002492509       -0.87853328864866
N           -2.11715369954420        0.45360364010209        0.11349079403680
C           -1.19611263327572       -0.43008890026521        0.27473235663195
C           -0.17550744557042       -0.26999565395086        1.38480131012117
C           -0.36083120043033       -1.40705507812660        2.40345887510175
C           -0.35885155369342        1.09511253559914        2.05671217734295
N            1.15269811078697       -0.35340755844701        0.77126836559772
C            2.30360640040517       -0.29282286271350        1.47445943368255
O            2.36386422541747       -0.07343503144530        2.67886950272083
C            3.58313081809549       -0.41722091911210        0.61505429257767
C            4.56974121597856       -1.37536471961456        1.29907030669755
N            4.14237055095990        0.92665366490610        0.48492780940929
N            4.15658700689282        1.20139540871119       -0.83856755353054
C            3.68334034946347        0.20731286817964       -1.50246673553775
C            3.53221207819078        0.09068990972045       -2.97554733626708
O            3.27853875520021       -0.85329092428816       -0.70363493728039
N           -1.09844809525139       -1.54710612600421       -0.51726339126695
C           -1.99729386876180       -1.81275708954809       -1.54157889107475
O           -1.90654403923321       -2.82950061613747       -2.23397689533898
C           -3.01501185976709       -0.81305202506404       -1.70812870879218
O           -3.90940569183085       -1.03437530420481       -2.70005696372734
H           -4.58987397712120        4.08931731832931        0.68581593623749
H           -4.84663815173661        3.88220418044299       -1.07095939826989
H           -5.87116552152015        2.99739718826186        0.08574345585746
H            0.33884466551359       -1.28714749850368        3.22886286079876
H           -1.37724083839981       -1.38614572826209        2.79345951168227
H           -0.18382860134706       -2.37005595203695        1.92860303072656
H           -0.19576822241316        1.89237705290995        1.33191727974235
H           -1.37500528034196        1.17377963659923        2.44021115850985
H            0.34202426091301        1.20765878408165        2.88168333575167
H            1.20640100743955       -0.68222793056166       -0.18159644214346
H            4.73704174883158       -1.04328652712854        2.32195034625371
H            4.16389812128812       -2.38477775831739        1.30519823829984
H            5.51211209517012       -1.36971232273710        0.75594792072835
H            4.05406264139210        0.91447278350197       -3.45906097302990
H            3.94701779523943       -0.85523251783277       -3.32575101457412
H            2.47956770392971        0.12134534072953       -3.26488603085842
H           -0.38943954630023       -2.24226820420233       -0.34914578669971
H           -3.67732279610298       -1.87313974209928       -3.13398765541499

          :  Hamiltonian                  GFN1-xTB          :
         :: total energy             -83.866624659623 Eh    ::
         :: gradient norm              0.000522104799 Eh/a0 ::
         :: HOMO-LUMO gap              0.083653475789 eV    ::
         :: SCC energy               -84.624606884304 Eh    ::
         :: -> Gsolv                  -0.111747985809 Eh    ::
         :: repulsion energy           0.784754618858 Eh    ::

    * Orbital Energies and Occupations

         #    Occupation            Energy/Eh            Energy/eV
      -------------------------------------------------------------
         1        2.0000           -0.8140786             -22.1522
       ...           ...                  ...                  ...
        56        2.0000           -0.4787557             -13.0276
        57        2.0000           -0.4756301             -12.9426
        58        2.0000           -0.4623182             -12.5803
        59        2.0000           -0.4592646             -12.4972
        60        2.0000           -0.4390834             -11.9481
        61        2.0000           -0.4364180             -11.8755
        62        2.0000           -0.4282258             -11.6526
        63        2.0000           -0.4264234             -11.6036
        64        2.0000           -0.4244770             -11.5506
        65        2.0000           -0.4123645             -11.2210
        66        2.0000           -0.4076337             -11.0923
        67        2.0000           -0.3838877             -10.4461
        68        1.6690           -0.3094694              -8.4211 (HOMO)
        69        0.3310           -0.3063952              -8.3374 (LUMO)
        70                         -0.2614576              -7.1146
        71                         -0.2293261              -6.2403
        72                         -0.2160467              -5.8789
        73                         -0.1936666              -5.2699
        74                         -0.1334702              -3.6319
        75                         -0.1297289              -3.5301
        76                         -0.1209967              -3.2925
        77                         -0.1192776              -3.2457
        78                         -0.1118525              -3.0437
        79                         -0.1018268              -2.7708
       ...                                ...                  ...
       136                          0.7266010              19.7718
      -------------------------------------------------------------
                  HL-Gap            0.0030742 Eh            0.0837 eV

Wiberg/Mayer (AO) data.
largest (>0.10) Wiberg bond orders for each atom

     #   Z sym  total        # sym  WBO       # sym  WBO       # sym  WBO
 ---------------------------------------------------------------------------
     1   6 C    3.890 --    26 H    0.987    28 H    0.980    27 H    0.980
                             2 O    0.917
     2   8 O    2.141 --     3 C    1.050     1 C    0.917     4 O    0.115
     3   6 C    3.782 --     4 O    1.595     5 C    1.070     2 O    1.050
     4   8 O    1.832 --     3 C    1.595     2 O    0.115
     5   6 C    3.859 --    24 C    1.389     6 N    1.159     3 C    1.070
     6   7 N    3.017 --     7 C    1.610     5 C    1.159
     7   6 C    3.906 --     6 N    1.610    21 N    1.141     8 C    0.979
     8   6 C    3.945 --    10 C    0.996     9 C    0.979     7 C    0.979
                            11 N    0.927
     9   6 C    3.990 --    30 H    0.986    31 H    0.984    29 H    0.980
                             8 C    0.979
    10   6 C    3.993 --     8 C    0.996    33 H    0.986    32 H    0.986
                            34 H    0.982
    11   7 N    3.317 --    12 C    1.252     8 C    0.927    35 H    0.896
                            13 O    0.155
    12   6 C    3.855 --    13 O    1.583    11 N    1.252    14 C    0.909
    13   8 O    1.881 --    12 C    1.583    11 N    0.155
    14   6 C    3.889 --    16 N    0.990    15 C    0.967    20 O    0.915
                            12 C    0.909
    15   6 C    3.970 --    37 H    0.987    38 H    0.986    36 H    0.985
                            14 C    0.967
    16   7 N    2.453 --    17 N    1.222    14 C    0.990    18 C    0.108
    17   7 N    3.001 --    18 C    1.622    16 N    1.222
    18   6 C    3.751 --    17 N    1.622    19 C    1.023    20 O    0.965
                            16 N    0.108
    19   6 C    3.994 --    18 C    1.023    39 H    0.985    40 H    0.975
                            41 H    0.970
    20   8 O    2.080 --    18 C    0.965    14 C    0.915
    21   7 N    3.372 --     7 C    1.141    22 C    1.086    42 H    0.891
                            23 O    0.113
    22   6 C    3.853 --    23 O    1.518    24 C    1.137    21 N    1.086
    23   8 O    1.817 --    22 C    1.518    21 N    0.113
    24   6 C    3.789 --     5 C    1.389    22 C    1.137    25 O    1.068
    25   8 O    2.026 --    24 C    1.068    43 H    0.822
    26   1 H    1.014 --     1 C    0.987
    27   1 H    1.011 --     1 C    0.980
    28   1 H    1.011 --     1 C    0.980
    29   1 H    1.012 --     9 C    0.980
    30   1 H    1.003 --     9 C    0.986
    31   1 H    1.003 --     9 C    0.984
    32   1 H    1.010 --    10 C    0.986
    33   1 H    1.013 --    10 C    0.986
    34   1 H    1.015 --    10 C    0.982
    35   1 H    0.955 --    11 N    0.896
    36   1 H    1.013 --    15 C    0.985
    37   1 H    1.006 --    15 C    0.987
    38   1 H    1.011 --    15 C    0.986
    39   1 H    1.006 --    19 C    0.985
    40   1 H    1.001 --    19 C    0.975
    41   1 H    1.000 --    19 C    0.970
    42   1 H    0.935 --    21 N    0.891
    43   1 H    0.862 --    25 O    0.822
 ---------------------------------------------------------------------------

           -------------------------------------------------
          | TOTAL ENERGY              -83.866624659623 Eh   |
          | GRADIENT NORM               0.000522104799 Eh/α |
          | HOMO-LUMO GAP               0.083653475789 eV   |
           -------------------------------------------------

 * finished run on 2023/06/20 at 15:06:38.034
