   * xtb version 6.5.1 (579679a) compiled by 'ehlert@majestix' on 2022-07-11
          program call               : /lustre/hpc/kemi/ree/PhD/git/ReactivityQM/dep/xtb-6.5.1/bin/xtb --gfn 1 /lustre/hpc/kemi/ree/PhD/git/ReactivityQM/calculations/R02/reac01prodE10/conf07/R02_reac01prodE10_conf07_gfn1.xyz --opt --vfukui --chrg -1 --uhf 0 --alpb DMSO

   ID    Z sym.   atoms
    1    6 C      1, 3, 5, 7-10, 12, 14, 17-19, 22, 24
    2    8 O      2, 4, 13, 20, 23, 25
    3    7 N      6, 11, 15, 16, 21
    4    1 H      26-43

      * Solvation model:               ALPB
        Solvent                        DMSO
        Solvent mass                       7.8130E+01 g/mol
          :  Hamiltonian                  GFN1-xTB          :
 * total energy  :   -83.8093816 Eh     change       -0.2344791E-11 Eh
 * total energy  :   -83.8212390 Eh     change       -0.1185738E-01 Eh
 * total energy  :   -83.8254702 Eh     change       -0.4231146E-02 Eh
 * total energy  :   -83.8259094 Eh     change       -0.4392323E-03 Eh
 * total energy  :   -83.8262168 Eh     change       -0.3073788E-03 Eh
 * total energy  :   -83.8263019 Eh     change       -0.8513071E-04 Eh
 * total energy  :   -83.8264184 Eh     change       -0.1165352E-03 Eh
 * total energy  :   -83.8264914 Eh     change       -0.7300981E-04 Eh
 * total energy  :   -83.8265504 Eh     change       -0.5894565E-04 Eh
 * total energy  :   -83.8266025 Eh     change       -0.5215798E-04 Eh
 * total energy  :   -83.8270496 Eh     change       -0.3308251E-04 Eh
 * total energy  :   -83.8270707 Eh     change       -0.2107474E-04 Eh
 * total energy  :   -83.8270865 Eh     change       -0.1582198E-04 Eh
 * total energy  :   -83.8270950 Eh     change       -0.8560166E-05 Eh
 * total energy  :   -83.8271062 Eh     change       -0.1112094E-04 Eh
 * total energy  :   -83.8271127 Eh     change       -0.6555843E-05 Eh
 * total energy  :   -83.8271203 Eh     change       -0.7612363E-05 Eh
 * total energy  :   -83.8271269 Eh     change       -0.6607837E-05 Eh
 * total energy  :   -83.8271312 Eh     change       -0.4233895E-05 Eh
   *** GEOMETRY OPTIMIZATION CONVERGED AFTER 27 ITERATIONS ***

 final structure:
================
43
 xtb: 6.5.1 (579679a)
C           -2.15125766428611        2.92625347427426       -2.30853063022757
O           -2.03600674992159        1.91520717772771       -1.31878616398741
C           -3.07129475896288        1.85178714036977       -0.42559780126245
O           -4.01978582271584        2.65575491394574       -0.50531001376944
C           -2.96321196206165        0.81191478790133        0.55011855825389
N           -1.84382628756914       -0.00543765771359        0.52321844285015
C           -1.73972988380328       -0.96338237019339        1.37719942864817
C           -0.53075186077739       -1.88597949217824        1.28664035650948
C           -0.86715882220200       -2.95331814178323        0.22352127958371
C           -0.20296753507717       -2.54870757517950        2.62971388314076
N            0.59031382242701       -1.04436489667912        0.87721683782430
C            1.79305271449049       -1.62775820912116        0.41749264290428
O            2.11068758791229       -2.81805346155460        0.68324624432048
C            2.61919742834375       -0.74036154431973       -0.28117268417596
N            3.85323535599014       -0.98672556072435       -0.83766378904868
N            4.19162162116670        0.17152483503498       -1.39832180767317
C            5.45639917375063        0.28438942617044       -2.08535351161881
C            3.28522357998050        1.11123262085799       -1.24082741315822
C            3.33135293073871        2.51278983932295       -1.71618932387542
O            2.24315717336566        0.61516237727968       -0.54032010218278
N           -2.70617716247841       -1.22196844163432        2.30948212837977
C           -3.88330358245176       -0.45502427749670        2.45344607521175
O           -4.68714914585434       -0.76772790897752        3.34713056544811
C           -3.97741473085206        0.60260243826082        1.51150543957981
O           -5.08219116233540        1.40337852717282        1.55923372324108
H           -3.05821211759557        2.78496071792277       -2.90576519015977
H           -1.27387422064046        2.84738277107399       -2.94941009660639
H           -2.18372469274058        3.91943977069288       -1.84874059387835
H           -1.76553471903589       -3.49202133977112        0.52197623916493
H           -0.04763472864928       -3.66278847065281        0.12231715915615
H           -1.04627972001518       -2.47184470953750       -0.73728723896660
H            0.72341939228768       -3.11441299354173        2.54047909362667
H           -0.07797596199568       -1.78984140290982        3.40147192350525
H           -0.99279447376514       -3.23721820833170        2.92543386623122
H            0.28669259808330       -0.24692602360619        0.32341831974561
H            5.29226601736704        0.67365901513038       -3.08857285845093
H            6.11176188841653        0.96101471673477       -1.53788875330282
H            5.90192200141244       -0.70631255870506       -2.13465070222368
H            4.26775852697610        2.98629792324932       -1.42055517439978
H            2.49772362076367        3.06455533894204       -1.28657389577862
H            3.26331677609233        2.55833277306796       -2.80470717093622
H           -2.61009370558779       -1.98784305017673        2.95463916148290
H           -5.00075273818478        2.07037570966361        0.83332254686524

          :  Hamiltonian                  GFN1-xTB          :
         :: total energy             -83.827131179774 Eh    ::
         :: gradient norm              0.000586039944 Eh/a0 ::
         :: HOMO-LUMO gap              0.028805400087 eV    ::
         :: SCC energy               -84.579229319069 Eh    ::
         :: -> Gsolv                  -0.124142765670 Eh    ::
         :: repulsion energy           0.777938237404 Eh    ::

    * Orbital Energies and Occupations

         #    Occupation            Energy/Eh            Energy/eV
      -------------------------------------------------------------
         1        2.0000           -0.8409640             -22.8838
       ...           ...                  ...                  ...
        56        2.0000           -0.4708875             -12.8135
        57        2.0000           -0.4649210             -12.6511
        58        2.0000           -0.4612579             -12.5515
        59        2.0000           -0.4491879             -12.2230
        60        2.0000           -0.4377874             -11.9128
        61        2.0000           -0.4355731             -11.8525
        62        2.0000           -0.4210201             -11.4565
        63        2.0000           -0.4133215             -11.2471
        64        2.0000           -0.4044906             -11.0067
        65        2.0000           -0.4009096             -10.9093
        66        2.0000           -0.3886137             -10.5747
        67        2.0000           -0.3805780             -10.3561
        68        1.2716           -0.2899762              -7.8907 (HOMO)
        69        0.7284           -0.2889177              -7.8618 (LUMO)
        70                         -0.2621244              -7.1328
        71                         -0.2358460              -6.4177
        72                         -0.1926345              -5.2419
        73                         -0.1543461              -4.2000
        74                         -0.1477080              -4.0193
        75                         -0.1397315              -3.8023
        76                         -0.1185855              -3.2269
        77                         -0.1142579              -3.1091
        78                         -0.1091908              -2.9712
        79                         -0.1023265              -2.7844
       ...                                ...                  ...
       136                          0.7058778              19.2079
      -------------------------------------------------------------
                  HL-Gap            0.0010586 Eh            0.0288 eV

Wiberg/Mayer (AO) data.
largest (>0.10) Wiberg bond orders for each atom

     #   Z sym  total        # sym  WBO       # sym  WBO       # sym  WBO
 ---------------------------------------------------------------------------
     1   6 C    3.899 --    27 H    0.987    28 H    0.980    26 H    0.980
                             2 O    0.928
     2   8 O    2.107 --     3 C    1.018     1 C    0.928
     3   6 C    3.726 --     4 O    1.465     5 C    1.174     2 O    1.018
     4   8 O    1.780 --     3 C    1.465
     5   6 C    3.815 --    24 C    1.285     3 C    1.174     6 N    1.133
     6   7 N    3.012 --     7 C    1.611     5 C    1.133
     7   6 C    3.909 --     6 N    1.611    21 N    1.152     8 C    0.974
     8   6 C    3.959 --    10 C    0.996     7 C    0.974     9 C    0.971
                            11 N    0.959
     9   6 C    3.989 --    29 H    0.987    31 H    0.986    30 H    0.980
                             8 C    0.971
    10   6 C    3.993 --     8 C    0.996    33 H    0.987    34 H    0.983
                            32 H    0.977
    11   7 N    3.106 --    12 C    1.044     8 C    0.959    35 H    0.909
    12   6 C    3.810 --    13 O    1.391    14 C    1.281    11 N    1.044
    13   8 O    1.654 --    12 C    1.391
    14   6 C    3.550 --    12 C    1.281    15 N    1.211    20 O    0.883
    15   7 N    2.697 --    14 C    1.211    16 N    1.173    18 C    0.197
    16   7 N    3.637 --    18 C    1.393    15 N    1.173    17 C    0.940
    17   6 C    3.936 --    38 H    0.983    36 H    0.980    37 H    0.977
                            16 N    0.940
    18   6 C    3.764 --    16 N    1.393    20 O    1.067    19 C    1.030
                            15 N    0.197
    19   6 C    3.987 --    18 C    1.030    40 H    0.980    39 H    0.970
                            41 H    0.963
    20   8 O    2.111 --    18 C    1.067    14 C    0.883
    21   7 N    3.314 --     7 C    1.152    22 C    1.024    42 H    0.900
    22   6 C    3.819 --    23 O    1.480    24 C    1.210    21 N    1.024
    23   8 O    1.732 --    22 C    1.480
    24   6 C    3.722 --     5 C    1.285    22 C    1.210    25 O    1.049
    25   8 O    1.975 --    24 C    1.049    43 H    0.788
    26   1 H    1.013 --     1 C    0.980
    27   1 H    1.016 --     1 C    0.987
    28   1 H    1.013 --     1 C    0.980
    29   1 H    1.005 --     9 C    0.987
    30   1 H    1.018 --     9 C    0.980
    31   1 H    1.009 --     9 C    0.986
    32   1 H    1.022 --    10 C    0.977
    33   1 H    1.007 --    10 C    0.987
    34   1 H    1.003 --    10 C    0.983
    35   1 H    0.983 --    11 N    0.909
    36   1 H    0.999 --    17 C    0.980
    37   1 H    0.999 --    17 C    0.977
    38   1 H    1.006 --    17 C    0.983
    39   1 H    0.996 --    19 C    0.970
    40   1 H    0.997 --    19 C    0.980
    41   1 H    0.995 --    19 C    0.963
    42   1 H    0.952 --    21 N    0.900
    43   1 H    0.880 --    25 O    0.788
 ---------------------------------------------------------------------------

           -------------------------------------------------
          | TOTAL ENERGY              -83.827131179774 Eh   |
          | GRADIENT NORM               0.000586039944 Eh/α |
          | HOMO-LUMO GAP               0.028805400087 eV   |
           -------------------------------------------------

 * finished run on 2023/06/20 at 15:10:33.820
