                         Program Version 5.0.1 -  RELEASE  -
|  1> # ORCA input file
|  2> ! SP r2SCAN-3c CPCM
|  3>
|  4> %maxcore 1875.0
|  5> %pal nprocs 4 end
|  6> %cpcm smd true SMDsolvent "DMSO" end
|  7>
|  8> *xyz -1 1
|  9> C       3.607469   -2.207018    1.104986
| 10> O       2.363866   -1.607419    0.793877
| 11> C       2.431197   -0.257326    0.453641
| 12> O       3.545032    0.314375    0.460108
| 13> C       1.206311    0.337732    0.142704
| 14> N       0.049679   -0.398260    0.183052
| 15> C      -1.087387    0.139547   -0.054997
| 16> C      -2.380350   -0.644480    0.020309
| 17> C      -2.138784   -2.085458   -0.452876
| 18> C      -2.892866   -0.641771    1.469900
| 19> N      -3.380000    0.025410   -0.815085
| 20> N      -1.223424    1.522485   -0.287032
| 21> C      -0.201944    2.401582   -0.312459
| 22> O      -0.410528    3.609572   -0.415558
| 23> C       1.214828    1.801256   -0.280451
| 24> C       1.790717    1.959972   -1.710158
| 25> O       1.991101    2.594553    0.616083
| 26> H       3.411315   -3.253886    1.341998
| 27> H       4.078326   -1.721237    1.968354
| 28> H       4.298612   -2.151030    0.255168
| 29> H      -1.359681   -2.546462    0.155545
| 30> H      -3.053177   -2.669955   -0.368849
| 31> H      -1.815295   -2.087156   -1.493343
| 32> H      -3.105416    0.379306    1.786577
| 33> H      -2.140172   -1.069219    2.132526
| 34> H      -3.806526   -1.229734    1.550356
| 35> H      -3.176184   -0.145002   -1.791294
| 36> H      -4.290876   -0.367785   -0.628255
| 37> H      -2.163809    1.873737   -0.398416
| 38> H       2.814349    1.588954   -1.729739
| 39> H       1.786026    3.011721   -1.995975
| 40> H       1.190192    1.390391   -2.417646
| 41> H       2.847402    2.132606    0.716948
| 42> **                         ****END OF INPUT****

CARTESIAN COORDINATES (ANGSTROEM)
---------------------------------
  C      3.607469   -2.207018    1.104986
  O      2.363866   -1.607419    0.793877
  C      2.431197   -0.257326    0.453641
  O      3.545032    0.314375    0.460108
  C      1.206311    0.337732    0.142704
  N      0.049679   -0.398260    0.183052
  C     -1.087387    0.139547   -0.054997
  C     -2.380350   -0.644480    0.020309
  C     -2.138784   -2.085458   -0.452876
  C     -2.892866   -0.641771    1.469900
  N     -3.380000    0.025410   -0.815085
  N     -1.223424    1.522485   -0.287032
  C     -0.201944    2.401582   -0.312459
  O     -0.410528    3.609572   -0.415558
  C      1.214828    1.801256   -0.280451
  C      1.790717    1.959972   -1.710158
  O      1.991101    2.594553    0.616083
  H      3.411315   -3.253886    1.341998
  H      4.078326   -1.721237    1.968354
  H      4.298612   -2.151030    0.255168
  H     -1.359681   -2.546462    0.155545
  H     -3.053177   -2.669955   -0.368849
  H     -1.815295   -2.087156   -1.493343
  H     -3.105416    0.379306    1.786577
  H     -2.140172   -1.069219    2.132526
  H     -3.806526   -1.229734    1.550356
  H     -3.176184   -0.145002   -1.791294
  H     -4.290876   -0.367785   -0.628255
  H     -2.163809    1.873737   -0.398416
  H      2.814349    1.588954   -1.729739
  H      1.786026    3.011721   -1.995975
  H      1.190192    1.390391   -2.417646
  H      2.847402    2.132606    0.716948

 Total Charge           Charge          ....   -1
 Multiplicity           Mult            ....    1
 Number of Electrons    NEL             ....  130
 Basis Dimension        Dim             ....  438

ORBITAL ENERGIES
----------------

  NO   OCC          E(Eh)            E(eV)
   0   2.0000     -18.947539      -515.5888
   1   2.0000     -18.915012      -514.7037
   2   2.0000     -18.901390      -514.3330
   3   2.0000     -18.882591      -513.8214
   4   2.0000     -14.177450      -385.7880
   5   2.0000     -14.130256      -384.5038
   6   2.0000     -14.123267      -384.3136
   7   2.0000     -10.110523      -275.1213
   8   2.0000     -10.095869      -274.7226
   9   2.0000     -10.075716      -274.1742
  10   2.0000     -10.063388      -273.8387
  11   2.0000     -10.059373      -273.7295
  12   2.0000     -10.053397      -273.5668
  13   2.0000     -10.009270      -272.3661
  14   2.0000     -10.003696      -272.2144
  15   2.0000     -10.003429      -272.2072
  16   2.0000     -10.000141      -272.1177
  17   2.0000      -1.010354       -27.4931
  18   2.0000      -0.990503       -26.9529
  19   2.0000      -0.952958       -25.9313
  20   2.0000      -0.918324       -24.9889
  21   2.0000      -0.914453       -24.8835
  22   2.0000      -0.850149       -23.1337
  23   2.0000      -0.831948       -22.6385
  24   2.0000      -0.728400       -19.8208
  25   2.0000      -0.703324       -19.1384
  26   2.0000      -0.673360       -18.3231
  27   2.0000      -0.644764       -17.5449
  28   2.0000      -0.634448       -17.2642
  29   2.0000      -0.601842       -16.3769
  30   2.0000      -0.584300       -15.8996
  31   2.0000      -0.523626       -14.2486
  32   2.0000      -0.501984       -13.6597
  33   2.0000      -0.493707       -13.4344
  34   2.0000      -0.481564       -13.1040
  35   2.0000      -0.452461       -12.3121
  36   2.0000      -0.435011       -11.8372
  37   2.0000      -0.421714       -11.4754
  38   2.0000      -0.411611       -11.2005
  39   2.0000      -0.407471       -11.0879
  40   2.0000      -0.403264       -10.9734
  41   2.0000      -0.397094       -10.8055
  42   2.0000      -0.382836       -10.4175
  43   2.0000      -0.377802       -10.2805
  44   2.0000      -0.368887       -10.0379
  45   2.0000      -0.357192        -9.7197
  46   2.0000      -0.353135        -9.6093
  47   2.0000      -0.346167        -9.4197
  48   2.0000      -0.342957        -9.3323
  49   2.0000      -0.330864        -9.0033
  50   2.0000      -0.328520        -8.9395
  51   2.0000      -0.319667        -8.6986
  52   2.0000      -0.312950        -8.5158
  53   2.0000      -0.307434        -8.3657
  54   2.0000      -0.296030        -8.0554
  55   2.0000      -0.290699        -7.9103
  56   2.0000      -0.284128        -7.7315
  57   2.0000      -0.235657        -6.4125
  58   2.0000      -0.232409        -6.3242
  59   2.0000      -0.229253        -6.2383
  60   2.0000      -0.216539        -5.8923
  61   2.0000      -0.209210        -5.6929
  62   2.0000      -0.200406        -5.4533
  63   2.0000      -0.188541        -5.1305
  64   2.0000      -0.119518        -3.2523
  65   0.0000      -0.022298        -0.6068
  66   0.0000       0.039286         1.0690
  67   0.0000       0.064894         1.7659
  68   0.0000       0.080704         2.1961
  69   0.0000       0.091183         2.4812

MULLIKEN ATOMIC CHARGES
-----------------------
   0 C :   -0.343760
   1 O :   -0.217517
   2 C :    0.197879
   3 O :   -0.529444
   4 C :   -0.334034
   5 N :   -0.206572
   6 C :    0.119531
   7 C :    0.209042
   8 C :   -0.574819
   9 C :   -0.591663
  10 N :   -0.695379
  11 N :   -0.027549
  12 C :   -0.029454
  13 O :   -0.403818
  14 C :    0.326668
  15 C :   -0.616173
  16 O :   -0.460232
  17 H :    0.153784
  18 H :    0.154520
  19 H :    0.154032
  20 H :    0.170609
  21 H :    0.167486
  22 H :    0.165766
  23 H :    0.172688
  24 H :    0.178763
  25 H :    0.168845
  26 H :    0.278556
  27 H :    0.286170
  28 H :    0.292378
  29 H :    0.177609
  30 H :    0.168942
  31 H :    0.166556
  32 H :    0.320592
Sum of atomic charges:   -1.0000000

LOEWDIN ATOMIC CHARGES
----------------------
   0 C :   -0.067706
   1 O :   -0.647296
   2 C :    0.351919
   3 O :   -0.604581
   4 C :    0.070800
   5 N :   -0.627494
   6 C :    0.283587
   7 C :    0.055567
   8 C :   -0.382620
   9 C :   -0.366769
  10 N :   -0.701282
  11 N :   -0.513956
  12 C :    0.356428
  13 O :   -0.479936
  14 C :    0.165751
  15 C :   -0.373095
  16 O :   -0.594048
  17 H :    0.171684
  18 H :    0.165802
  19 H :    0.165977
  20 H :    0.168065
  21 H :    0.158310
  22 H :    0.163893
  23 H :    0.166360
  24 H :    0.166956
  25 H :    0.161552
  26 H :    0.251588
  27 H :    0.253666
  28 H :    0.298023
  29 H :    0.169396
  30 H :    0.162299
  31 H :    0.161167
  32 H :    0.289993

  Mayer bond orders larger than 0.100000
B(  0-C ,  1-O ) :   0.8593 B(  0-C , 17-H ) :   0.9699 B(  0-C , 18-H ) :   0.9693
B(  0-C , 19-H ) :   0.9691 B(  1-O ,  2-C ) :   1.0019 B(  2-C ,  3-O ) :   1.5745
B(  2-C ,  4-C ) :   1.4366 B(  4-C ,  5-N ) :   1.1175 B(  4-C , 14-C ) :   0.8905
B(  5-N ,  6-C ) :   1.7274 B(  6-C ,  7-C ) :   0.8927 B(  6-C , 11-N ) :   1.0024
B(  7-C ,  8-C ) :   0.9540 B(  7-C ,  9-C ) :   0.9071 B(  7-C , 10-N ) :   0.8856
B(  8-C , 20-H ) :   0.9736 B(  8-C , 21-H ) :   0.9740 B(  8-C , 22-H ) :   0.9737
B(  9-C , 23-H ) :   0.9740 B(  9-C , 24-H ) :   0.9801 B(  9-C , 25-H ) :   0.9611
B( 10-N , 26-H ) :   0.9126 B( 10-N , 27-H ) :   0.9133 B( 11-N , 12-C ) :   1.1110
B( 11-N , 28-H ) :   0.8629 B( 12-C , 13-O ) :   2.1003 B( 12-C , 14-C ) :   0.8896
B( 14-C , 15-C ) :   0.8418 B( 14-C , 16-O ) :   0.9296 B( 15-C , 29-H ) :   0.9680
B( 15-C , 30-H ) :   0.9849 B( 15-C , 31-H ) :   0.9741 B( 16-O , 32-H ) :   0.8233

Dispersion correction           -0.013614891
FINAL SINGLE POINT ENERGY      -855.850917681153

DIPOLE MOMENT
-------------
                                X             Y             Z
Electronic contribution:      5.49469       9.74622       0.94580
Nuclear contribution   :     -8.48909     -12.42780      -1.71764
                        -----------------------------------------
Total Dipole Moment    :     -2.99440      -2.68158      -0.77184
                        -----------------------------------------
Magnitude (a.u.)       :      4.09304
Magnitude (Debye)      :     10.40369

Rotational constants in cm-1:     0.020213     0.012760     0.008705
Rotational constants in MHz :   605.966040   382.543051   260.970587

                             ****ORCA TERMINATED NORMALLY****
TOTAL RUN TIME: 0 days 0 hours 1 minutes 21 seconds 682 msec
