   * xtb version 6.5.1 (579679a) compiled by 'ehlert@majestix' on 2022-07-11
          program call               : /lustre/hpc/kemi/ree/PhD/git/ReactivityQM/dep/xtb-6.5.1/bin/xtb --gfn 1 /lustre/hpc/kemi/ree/PhD/git/ReactivityQM/calculations/R01/reac02prodE08/conf11/R01_reac02prodE08_conf11_gfn1.xyz --opt --vfukui --chrg -1 --uhf 0 --alpb DMSO

   ID    Z sym.   atoms
    1    6 C      1, 3, 5, 7-10, 13, 15, 16
    2    8 O      2, 4, 14, 17
    3    7 N      6, 11, 12
    4    1 H      18-33

      * Solvation model:               ALPB
        Solvent                        DMSO
        Solvent mass                       7.8130E+01 g/mol
          :  Hamiltonian                  GFN1-xTB          :
 * total energy  :   -58.5609904 Eh     change       -0.7432277E-11 Eh
 * total energy  :   -58.5706738 Eh     change       -0.9683334E-02 Eh
 * total energy  :   -58.5735067 Eh     change       -0.2832922E-02 Eh
 * total energy  :   -58.5738840 Eh     change       -0.3773545E-03 Eh
 * total energy  :   -58.5742075 Eh     change       -0.3234757E-03 Eh
 * total energy  :   -58.5743108 Eh     change       -0.1032766E-03 Eh
 * total energy  :   -58.5744167 Eh     change       -0.1058804E-03 Eh
 * total energy  :   -58.5744742 Eh     change       -0.5748247E-04 Eh
 * total energy  :   -58.5745107 Eh     change       -0.3657633E-04 Eh
 * total energy  :   -58.5745317 Eh     change       -0.2097906E-04 Eh
 * total energy  :   -58.5745880 Eh     change       -0.1945368E-04 Eh
 * total energy  :   -58.5746053 Eh     change       -0.1725135E-04 Eh
 * total energy  :   -58.5746238 Eh     change       -0.1857998E-04 Eh
 * total energy  :   -58.5746363 Eh     change       -0.1248352E-04 Eh
 * total energy  :   -58.5746493 Eh     change       -0.1298077E-04 Eh
 * total energy  :   -58.5746603 Eh     change       -0.1095344E-04 Eh
 * total energy  :   -58.5746694 Eh     change       -0.9131536E-05 Eh
 * total energy  :   -58.5746763 Eh     change       -0.6892191E-05 Eh
 * total energy  :   -58.5746811 Eh     change       -0.4796808E-05 Eh
   *** GEOMETRY OPTIMIZATION CONVERGED AFTER 21 ITERATIONS ***

 final structure:
================
33
 xtb: 6.5.1 (579679a)
C            3.60746881285034       -2.20701834260342        1.10498565491995
O            2.36386596501996       -1.60741933721404        0.79387702043633
C            2.43119745056142       -0.25732648523351        0.45364115575103
O            3.54503211516476        0.31437517559121        0.46010756761707
C            1.20631114243179        0.33773182393825        0.14270401446853
N            0.04967892735055       -0.39826016409842        0.18305216463386
C           -1.08738687120419        0.13954654143224       -0.05499669172829
C           -2.38035021449006       -0.64447959819740        0.02030933715154
C           -2.13878364166183       -2.08545767516932       -0.45287599919481
C           -2.89286640597441       -0.64177067085789        1.46989996500592
N           -3.38000032617255        0.02541001750579       -0.81508496505532
N           -1.22342353533979        1.52248456913175       -0.28703194985613
C           -0.20194427243008        2.40158155641340       -0.31245932340588
O           -0.41052836532412        3.60957167450650       -0.41555796152222
C            1.21482786818785        1.80125634027797       -0.28045089957811
C            1.79071692007333        1.95997227527508       -1.71015797748865
O            1.99110068170813        2.59455342411948        0.61608324426014
H            3.41131527956583       -3.25388598409743        1.34199773853110
H            4.07832575989432       -1.72123721888862        1.96835441080217
H            4.29861208476429       -2.15103017678242        0.25516787158905
H           -1.35968132796758       -2.54646163391248        0.15554527509764
H           -3.05317716039308       -2.66995523798886       -0.36884878009977
H           -1.81529548500249       -2.08715600243555       -1.49334258321364
H           -3.10541632774344        0.37930573106105        1.78657737663223
H           -2.14017224673226       -1.06921903129360        2.13252608718818
H           -3.80652626679988       -1.22973402590851        1.55035563459645
H           -3.17618364990771       -0.14500247440848       -1.79129427849746
H           -4.29087576280862       -0.36778459664327       -0.62825492784004
H           -2.16380917189815        1.87373650055733       -0.39841558780534
H            2.81434852724549        1.58895401686626       -1.72973924293464
H            1.78602622570979        3.01172050986426       -1.99597542774513
H            1.19019196177083        1.39039071448622       -2.41764554785478
H            2.84740230955465        2.13260578470270        0.71694762514043

          :  Hamiltonian                  GFN1-xTB          :
         :: total energy             -58.574681073195 Eh    ::
         :: gradient norm              0.000758909888 Eh/a0 ::
         :: HOMO-LUMO gap              2.289274758958 eV    ::
         :: SCC energy               -59.116497724341 Eh    ::
         :: -> Gsolv                  -0.107765889418 Eh    ::
         :: repulsion energy           0.560717978901 Eh    ::

    * Orbital Energies and Occupations

         #    Occupation            Energy/Eh            Energy/eV
      -------------------------------------------------------------
         1        2.0000           -0.7802914             -21.2328
       ...           ...                  ...                  ...
        36        2.0000           -0.4798481             -13.0573
        37        2.0000           -0.4782366             -13.0135
        38        2.0000           -0.4703151             -12.7979
        39        2.0000           -0.4631196             -12.6021
        40        2.0000           -0.4588060             -12.4847
        41        2.0000           -0.4418744             -12.0240
        42        2.0000           -0.4372683             -11.8987
        43        2.0000           -0.4228955             -11.5076
        44        2.0000           -0.4187420             -11.3945
        45        2.0000           -0.4014798             -10.9248
        46        2.0000           -0.3985128             -10.8441
        47        2.0000           -0.3803033             -10.3486
        48        2.0000           -0.3248452              -8.8395 (HOMO)
        49                         -0.2407159              -6.5502 (LUMO)
        50                         -0.1941123              -5.2821
        51                         -0.1383910              -3.7658
        52                         -0.1121709              -3.0523
        53                         -0.1117074              -3.0397
        54                         -0.1079023              -2.9362
        55                         -0.0940196              -2.5584
        56                         -0.0882554              -2.4016
        57                         -0.0718297              -1.9546
        58                         -0.0601642              -1.6372
        59                         -0.0503603              -1.3704
       ...                                ...                  ...
       100                          0.6778338              18.4448
      -------------------------------------------------------------
                  HL-Gap            0.0841293 Eh            2.2893 eV

Wiberg/Mayer (AO) data.
largest (>0.10) Wiberg bond orders for each atom

     #   Z sym  total        # sym  WBO       # sym  WBO       # sym  WBO
 ---------------------------------------------------------------------------
     1   6 C    3.913 --    18 H    0.987    20 H    0.981    19 H    0.981
                             2 O    0.943
     2   8 O    2.084 --     3 C    0.961     1 C    0.943
     3   6 C    3.869 --     4 O    1.426     5 C    1.345     2 O    0.961
     4   8 O    1.800 --     3 C    1.426     5 C    0.114
     5   6 C    3.858 --     3 C    1.345     6 N    1.184    15 C    0.967
                             4 O    0.114
     6   7 N    3.045 --     7 C    1.634     5 C    1.184
     7   6 C    3.911 --     6 N    1.634    12 N    1.002     8 C    0.981
     8   6 C    3.965 --     9 C    0.989    10 C    0.985     7 C    0.981
                            11 N    0.979
     9   6 C    3.996 --     8 C    0.989    22 H    0.987    23 H    0.985
                            21 H    0.983
    10   6 C    3.992 --    25 H    0.987    24 H    0.987    26 H    0.985
                             8 C    0.985
    11   7 N    2.975 --     8 C    0.979    27 H    0.946    28 H    0.946
    12   7 N    3.402 --    13 C    1.243     7 C    1.002    29 H    0.894
                            14 O    0.143
    13   6 C    3.885 --    14 O    1.572    12 N    1.243    15 C    0.937
    14   8 O    1.849 --    13 C    1.572    12 N    0.143
    15   6 C    3.915 --     5 C    0.967    16 C    0.962    17 O    0.944
                            13 C    0.937
    16   6 C    3.996 --    32 H    0.988    31 H    0.987    30 H    0.983
                            15 C    0.962
    17   8 O    1.878 --    15 C    0.944    33 H    0.837
    18   1 H    1.019 --     1 C    0.987
    19   1 H    1.019 --     1 C    0.981
    20   1 H    1.019 --     1 C    0.981
    21   1 H    1.017 --     9 C    0.983
    22   1 H    1.005 --     9 C    0.987
    23   1 H    1.009 --     9 C    0.985
    24   1 H    1.007 --    10 C    0.987
    25   1 H    1.009 --    10 C    0.987
    26   1 H    1.002 --    10 C    0.985
    27   1 H    0.963 --    11 N    0.946
    28   1 H    0.961 --    11 N    0.946
    29   1 H    0.969 --    12 N    0.894
    30   1 H    1.016 --    16 C    0.983
    31   1 H    1.012 --    16 C    0.987
    32   1 H    1.011 --    16 C    0.988
    33   1 H    0.904 --    17 O    0.837
 ---------------------------------------------------------------------------

           -------------------------------------------------
          | TOTAL ENERGY              -58.574681073195 Eh   |
          | GRADIENT NORM               0.000758909888 Eh/α |
          | HOMO-LUMO GAP               2.289274758958 eV   |
           -------------------------------------------------

 * finished run on 2023/06/20 at 15:02:12.158
