   * xtb version 6.5.1 (579679a) compiled by 'ehlert@majestix' on 2022-07-11
          program call               : /lustre/hpc/kemi/ree/PhD/git/ReactivityQM/dep/xtb-6.5.1/bin/xtb --gfn 1 /lustre/hpc/kemi/ree/PhD/git/ReactivityQM/calculations/R02oxygendeprot/reac01prodE14/conf20/R02oxygendeprot_reac01prodE14_conf20_gfn1.xyz --opt --vfukui --chrg -2 --uhf 0 --alpb DMSO

   ID    Z sym.   atoms
    1    6 C      1, 3, 5, 7-10, 12, 14, 17, 18, 21, 23, 24
    2    8 O      2, 4, 13, 19, 22, 25
    3    7 N      6, 11, 15, 16, 20
    4    1 H      26-42

      * Solvation model:               ALPB
        Solvent                        DMSO
        Solvent mass                       7.8130E+01 g/mol
          :  Hamiltonian                  GFN1-xTB          :
 * total energy  :   -83.5856891 Eh     change       -0.1558647E-09 Eh
 * total energy  :   -83.6007516 Eh     change       -0.1506251E-01 Eh
 * total energy  :   -83.6067034 Eh     change       -0.5951845E-02 Eh
 * total energy  :   -83.6077232 Eh     change       -0.1019770E-02 Eh
 * total energy  :   -83.6083852 Eh     change       -0.6619874E-03 Eh
 * total energy  :   -83.6087371 Eh     change       -0.3519109E-03 Eh
 * total energy  :   -83.6090245 Eh     change       -0.2874163E-03 Eh
 * total energy  :   -83.6092221 Eh     change       -0.1976089E-03 Eh
 * total energy  :   -83.6093433 Eh     change       -0.1211221E-03 Eh
 * total energy  :   -83.6094442 Eh     change       -0.1009780E-03 Eh
 * total energy  :   -83.6105418 Eh     change       -0.7366335E-05 Eh
 * total energy  :   -83.6105665 Eh     change       -0.2463808E-04 Eh
 * total energy  :   -83.6105799 Eh     change       -0.1339102E-04 Eh
 * total energy  :   -83.6106035 Eh     change       -0.2363759E-04 Eh
 * total energy  :   -83.6106125 Eh     change       -0.9008583E-05 Eh
 * total energy  :   -83.6106242 Eh     change       -0.1174316E-04 Eh
 * total energy  :   -83.6106323 Eh     change       -0.8057916E-05 Eh
 * total energy  :   -83.6106370 Eh     change       -0.4686514E-05 Eh
 * total energy  :   -83.6106413 Eh     change       -0.4338979E-05 Eh
   *** GEOMETRY OPTIMIZATION CONVERGED AFTER 39 ITERATIONS ***

 final structure:
================
42
 xtb: 6.5.1 (579679a)
C           -5.22085796364728        2.73534824120099        1.31626729363066
O           -4.48345662031135        1.81443971936960        0.54378411341276
C           -3.28831980355469        1.36635577691769        1.13515285608604
O           -3.00590897138740        1.80997367317772        2.27030223832051
C           -2.51618920188481        0.48506743061066        0.36058331961405
N           -1.40275588135188        0.02021083213107        1.02418577167207
C           -0.52803426150915       -0.72778382861781        0.45949785459163
C            0.62871834691450       -1.30576564941154        1.24682498000425
C            0.58546661295338       -0.76828938191999        2.68142919924416
C            0.55688119731351       -2.84132660745938        1.23295695617481
N            1.88918044061145       -0.87756058098336        0.59820011757748
C            3.11480131988673       -1.20588810592761        1.04349479591034
O            3.35710420294938       -1.91676208387144        2.01678471916057
C            4.20730396933768       -0.62214986106688        0.23216790406007
N            5.49085923814025       -0.75303318759759        0.42312937707269
N            6.11012532674917       -0.04365637853441       -0.56570555282366
C            5.17473226613140        0.47467838845574       -1.29725240923293
C            5.33467187973973        1.32691746453190       -2.49682476106351
O            3.94762421871163        0.15209620125070       -0.85103523104440
N           -0.58971739935476       -1.05942072639397       -0.91151903908090
C           -1.56314854766464       -0.52189068988521       -1.71247114989195
O           -1.37243347884916       -0.47940029474687       -2.93382927140380
C           -2.91595000868478       -0.18608745367784       -0.99324317692340
C           -3.65014961742755        0.83315533144541       -1.93062967133324
O           -3.58585353938752       -1.34177194138940       -0.84589798498682
H           -6.10911242607028        3.00885436932293        0.74389809421979
H           -5.53285482495211        2.30015788770251        2.27490497719479
H           -4.63805041641207        3.64180078269279        1.52577075481272
H           -0.37433275355572       -1.02342487148627        3.13047408869723
H            1.38495470152328       -1.19751935422472        3.28174380285089
H            0.68561424663646        0.31689605399177        2.67265490506407
H            1.36645203039251       -3.27464987225593        1.81747626206971
H           -0.39325181287369       -3.16168768859477        1.65990406035506
H            0.62657822726918       -3.20812861885241        0.20969451225891
H            1.82721219284542       -0.25398799771813       -0.19093449303174
H            4.82891441998409        2.28127015139209       -2.34987673913507
H            4.89084756863017        0.83935555051724       -3.36512319109963
H            6.39201353854240        1.50031531663812       -2.68047831772122
H            0.26453991984832       -1.32874562732056       -1.36918021525041
H           -4.70121032244798        0.89284502929138       -1.65477465239544
H           -3.20021657066061        1.82512638093490       -1.87635719845045
H           -3.59278844313440        0.47406422035632       -2.95963189918159

          :  Hamiltonian                  GFN1-xTB          :
         :: total energy             -83.610641325445 Eh    ::
         :: gradient norm              0.000844831401 Eh/a0 ::
         :: HOMO-LUMO gap              0.156085688637 eV    ::
         :: SCC energy               -84.344544540751 Eh    ::
         :: -> Gsolv                  -0.295077875379 Eh    ::
         :: repulsion energy           0.759600824060 Eh    ::

    * Orbital Energies and Occupations

         #    Occupation            Energy/Eh            Energy/eV
      -------------------------------------------------------------
         1        2.0000           -0.8472110             -23.0538
       ...           ...                  ...                  ...
        56        2.0000           -0.4408459             -11.9960
        57        2.0000           -0.4353364             -11.8461
        58        2.0000           -0.4303216             -11.7096
        59        2.0000           -0.4248169             -11.5599
        60        2.0000           -0.4214461             -11.4681
        61        2.0000           -0.4146325             -11.2827
        62        2.0000           -0.3989466             -10.8559
        63        2.0000           -0.3910641             -10.6414
        64        2.0000           -0.3830990             -10.4247
        65        2.0000           -0.3692585             -10.0480
        66        2.0000           -0.3067183              -8.3462
        67        1.9882           -0.2988768              -8.1329
        68        1.9126           -0.2969381              -8.0801 (HOMO)
        69        0.0992           -0.2912020              -7.9240 (LUMO)
        70                         -0.2423335              -6.5942
        71                         -0.2116640              -5.7597
        72                         -0.1772564              -4.8234
        73                         -0.1714784              -4.6662
        74                         -0.1353560              -3.6832
        75                         -0.1133282              -3.0838
        76                         -0.1034646              -2.8154
        77                         -0.1004988              -2.7347
        78                         -0.0980819              -2.6689
        79                         -0.0846065              -2.3023
       ...                                ...                  ...
       134                          0.7270976              19.7853
      -------------------------------------------------------------
                  HL-Gap            0.0057360 Eh            0.1561 eV

Wiberg/Mayer (AO) data.
largest (>0.10) Wiberg bond orders for each atom

     #   Z sym  total        # sym  WBO       # sym  WBO       # sym  WBO
 ---------------------------------------------------------------------------
     1   6 C    3.922 --    26 H    0.987    27 H    0.980    28 H    0.980
                             2 O    0.953
     2   8 O    2.083 --     1 C    0.953     3 C    0.933
     3   6 C    3.844 --     4 O    1.445     5 C    1.329     2 O    0.933
     4   8 O    1.740 --     3 C    1.445     5 C    0.106
     5   6 C    3.814 --     3 C    1.329     6 N    1.189    23 C    0.917
                             4 O    0.106
     6   7 N    3.050 --     7 C    1.617     5 C    1.189
     7   6 C    3.885 --     6 N    1.617    20 N    1.003     8 C    0.979
     8   6 C    3.923 --     9 C    0.995    10 C    0.985     7 C    0.979
                            11 N    0.898
     9   6 C    3.994 --     8 C    0.995    31 H    0.985    30 H    0.985
                            29 H    0.984
    10   6 C    3.990 --    33 H    0.986    34 H    0.985     8 C    0.985
                            32 H    0.983
    11   7 N    3.340 --    12 C    1.272    35 H    0.901     8 C    0.898
                            13 O    0.175
    12   6 C    3.890 --    13 O    1.537    11 N    1.272    14 C    1.006
    13   8 O    1.844 --    12 C    1.537    11 N    0.175
    14   6 C    3.825 --    15 N    1.587    19 O    1.034    12 C    1.006
    15   7 N    2.942 --    14 C    1.587    16 N    1.191
    16   7 N    2.980 --    17 C    1.619    15 N    1.191
    17   6 C    3.859 --    16 N    1.619    19 O    1.068    18 C    1.029
    18   6 C    3.989 --    17 C    1.029    38 H    0.984    36 H    0.966
                            37 H    0.965
    19   8 O    2.290 --    17 C    1.068    14 C    1.034
    20   7 N    3.343 --    21 C    1.171     7 C    1.003    39 H    0.914
                            22 O    0.116
    21   6 C    3.812 --    22 O    1.563    20 N    1.171    23 C    0.880
    22   8 O    1.831 --    21 C    1.563    20 N    0.116
    23   6 C    3.963 --    25 O    1.121    24 C    0.947     5 C    0.917
                            21 C    0.880
    24   6 C    3.988 --    41 H    0.990    40 H    0.987    42 H    0.985
                            23 C    0.947
    25   8 O    1.408 --    23 C    1.121
    26   1 H    1.020 --     1 C    0.987
    27   1 H    1.022 --     1 C    0.980
    28   1 H    1.022 --     1 C    0.980
    29   1 H    1.020 --     9 C    0.984
    30   1 H    1.014 --     9 C    0.985
    31   1 H    1.016 --     9 C    0.985
    32   1 H    1.014 --    10 C    0.983
    33   1 H    1.007 --    10 C    0.986
    34   1 H    1.008 --    10 C    0.985
    35   1 H    0.950 --    11 N    0.901
    36   1 H    0.998 --    18 C    0.966
    37   1 H    0.998 --    18 C    0.965
    38   1 H    1.000 --    18 C    0.984
    39   1 H    0.966 --    20 N    0.914
    40   1 H    1.034 --    24 C    0.987
    41   1 H    1.017 --    24 C    0.990
    42   1 H    1.026 --    24 C    0.985
 ---------------------------------------------------------------------------

           -------------------------------------------------
          | TOTAL ENERGY              -83.610641325445 Eh   |
          | GRADIENT NORM               0.000844831401 Eh/α |
          | HOMO-LUMO GAP               0.156085688637 eV   |
           -------------------------------------------------

 * finished run on 2023/06/21 at 17:16:19.016
