   * xtb version 6.5.1 (579679a) compiled by 'ehlert@majestix' on 2022-07-11
          program call               : /lustre/hpc/kemi/ree/PhD/git/ReactivityQM/dep/xtb-6.5.1/bin/xtb --gfn 1 /lustre/hpc/kemi/ree/PhD/git/ReactivityQM/calculations/R03/reac02prodN04/conf12/R03_reac02prodN04_conf12_gfn1.xyz --opt --vfukui --chrg 1 --uhf 0 --alpb DMSO

   ID    Z sym.   atoms
    1    6 C      1, 3, 5, 7-10, 12, 14, 17, 18, 21, 22, 24, 26
    2    8 O      2, 4, 13, 19, 23, 25
    3    7 N      6, 11, 15, 16, 20
    4    1 H      27-46

      * Solvation model:               ALPB
        Solvent                        DMSO
        Solvent mass                       7.8130E+01 g/mol
          :  Hamiltonian                  GFN1-xTB          :
 * total energy  :   -86.2903409 Eh     change       -0.1141132E-10 Eh
 * total energy  :   -86.3080916 Eh     change       -0.1775067E-01 Eh
 * total energy  :   -86.3166055 Eh     change       -0.8513924E-02 Eh
 * total energy  :   -86.3194353 Eh     change       -0.2829802E-02 Eh
 * total energy  :   -86.3221748 Eh     change       -0.2739453E-02 Eh
 * total energy  :   -86.3240776 Eh     change       -0.1902818E-02 Eh
 * total energy  :   -86.3260223 Eh     change       -0.1944765E-02 Eh
 * total energy  :   -86.3297385 Eh     change       -0.3716136E-02 Eh
 * total energy  :   -86.3316910 Eh     change       -0.1952495E-02 Eh
 * total energy  :   -86.3335999 Eh     change       -0.1908949E-02 Eh
 * total energy  :   -86.3439903 Eh     change       -0.2450290E-04 Eh
 * total energy  :   -86.3440049 Eh     change       -0.1456776E-04 Eh
 * total energy  :   -86.3440284 Eh     change       -0.2356115E-04 Eh
 * total energy  :   -86.3440511 Eh     change       -0.2269402E-04 Eh
 * total energy  :   -86.3440685 Eh     change       -0.1732831E-04 Eh
 * total energy  :   -86.3440884 Eh     change       -0.1999094E-04 Eh
 * total energy  :   -86.3440983 Eh     change       -0.9895162E-05 Eh
 * total energy  :   -86.3441044 Eh     change       -0.6024276E-05 Eh
 * total energy  :   -86.3441088 Eh     change       -0.4465226E-05 Eh
   *** GEOMETRY OPTIMIZATION CONVERGED AFTER 35 ITERATIONS ***

 final structure:
================
46
 xtb: 6.5.1 (579679a)
C           -4.40079723770046        3.53896194353667        1.12650995381433
O           -3.44929138415543        2.46759821732581        0.98011392814074
C           -3.78269912252663        1.39813680531305        0.36063568089822
O           -4.97959313919963        1.31897383815638       -0.11648073723589
C           -2.79723280934174        0.34973995785170        0.23179604859874
N           -1.59030833147731        0.62061342526298        0.80674284133264
C           -0.62034365770680       -0.23637906402732        0.75501208439804
C            0.64527902428352        0.15904348844004        1.50392442765336
C            0.76717746657580       -0.71620129556525        2.76132057322689
C            0.55742108254205        1.63747189242360        1.90959609241499
N            1.79374720812402       -0.00631707848114        0.60841839611677
C            3.07483178355710        0.18878866884403        1.02196089896218
O            3.43236634989668        0.32368391654220        2.17485601939008
C            4.00377203408503        0.18692650829664       -0.13331810623761
N            3.67415455920149        0.09396517072546       -1.38736368144928
N            4.83118010441797        0.15122771281108       -2.10177618203587
C            5.79474320683787        0.27761390912041       -1.23777742844720
C            7.24526197194790        0.38194081023336       -1.50880524724542
O            5.33407145156801        0.30777330278460        0.02057285226124
N           -0.76780468951204       -1.44123675720924        0.12314083491473
C            0.27218088220248       -2.47424275403729        0.02950893917028
C           -1.95196121598668       -1.83485763607192       -0.48813677683172
O           -2.03353792070729       -2.92607622372854       -1.02517674704039
C           -3.03655869612464       -0.85015096793317       -0.41662958113285
O           -4.23567954996233       -1.06667975165651       -0.94363371762097
C           -4.59735701483990       -2.29124178142242       -1.61430469436120
H           -5.27003811130348        3.17691149570319        1.67612491295510
H           -4.70510370581033        3.88848620137323        0.13953490022090
H           -3.88642656415930        4.32194722467547        1.67838686989798
H            1.02195885829733       -1.74217051113990        2.50839487612821
H           -0.18596416943873       -0.70866891373165        3.28767657947931
H            1.53577494641939       -0.31633486148348        3.41985956614357
H           -0.28752937283816        1.78859412249621        2.57806078343029
H            1.47433833572425        1.92559741849637        2.42111018549589
H            0.42528263316378        2.26052622985368        1.02719715813307
H            1.61754977045894        0.08424520615479       -0.38114515183578
H            7.63997163724259        1.29815632682962       -1.06987736302003
H            7.41816826380218        0.38458070227643       -2.58222446268331
H            7.76875109296246       -0.46097525904228       -1.05691316502790
H            1.21840417156281       -2.10161821283726        0.40034388965089
H            0.36812382653051       -2.76108909405957       -1.01750236378021
H           -0.05190206256688       -3.34005072317749        0.60664693383618
H           -5.17774498933667        0.47687385676442       -0.58220002687249
H           -4.48908180870464       -3.13810937368665       -0.93604595417029
H           -3.97694062720183       -2.43249785090756       -2.49982255545491
H           -5.64061248079843       -2.16347924208645       -1.89692828418039

          :  Hamiltonian                  GFN1-xTB          :
         :: total energy             -86.344108830590 Eh    ::
         :: gradient norm              0.000394121399 Eh/a0 ::
         :: HOMO-LUMO gap              1.877976793027 eV    ::
         :: SCC energy               -87.172849645029 Eh    ::
         :: -> Gsolv                  -0.104130841370 Eh    ::
         :: repulsion energy           0.857283760660 Eh    ::

    * Orbital Energies and Occupations

         #    Occupation            Energy/Eh            Energy/eV
      -------------------------------------------------------------
         1        2.0000           -0.9131600             -24.8483
       ...           ...                  ...                  ...
        58        2.0000           -0.5261927             -14.3184
        59        2.0000           -0.5182482             -14.1023
        60        2.0000           -0.5128074             -13.9542
        61        2.0000           -0.5113102             -13.9135
        62        2.0000           -0.5028253             -13.6826
        63        2.0000           -0.4892874             -13.3142
        64        2.0000           -0.4865330             -13.2392
        65        2.0000           -0.4809951             -13.0885
        66        2.0000           -0.4735553             -12.8861
        67        2.0000           -0.4673931             -12.7184
        68        2.0000           -0.4601052             -12.5201
        69        2.0000           -0.4584462             -12.4750
        70        2.0000           -0.4540889             -12.3564 (HOMO)
        71                         -0.3850745             -10.4784 (LUMO)
        72                         -0.3195841              -8.6963
        73                         -0.3173705              -8.6361
        74                         -0.2917868              -7.9399
        75                         -0.2616385              -7.1195
        76                         -0.2072149              -5.6386
        77                         -0.2007486              -5.4626
        78                         -0.1667365              -4.5371
        79                         -0.1511216              -4.1122
        80                         -0.1478188              -4.0224
        81                         -0.1441854              -3.9235
       ...                                ...                  ...
       144                          0.7215626              19.6347
      -------------------------------------------------------------
                  HL-Gap            0.0690144 Eh            1.8780 eV

Wiberg/Mayer (AO) data.
largest (>0.10) Wiberg bond orders for each atom

     #   Z sym  total        # sym  WBO       # sym  WBO       # sym  WBO
 ---------------------------------------------------------------------------
     1   6 C    3.820 --    29 H    0.982    28 H    0.972    27 H    0.972
                             2 O    0.851
     2   8 O    2.319 --     3 C    1.287     1 C    0.851
     3   6 C    3.811 --     2 O    1.287     4 O    1.251     5 C    1.119
     4   8 O    2.196 --     3 C    1.251    43 H    0.745
     5   6 C    3.958 --    24 C    1.399     6 N    1.180     3 C    1.119
     6   7 N    3.028 --     7 C    1.561     5 C    1.180
     7   6 C    3.921 --     6 N    1.561    20 N    1.182     8 C    0.977
     8   6 C    3.933 --    10 C    0.989     9 C    0.978     7 C    0.977
                            11 N    0.927
     9   6 C    3.985 --    31 H    0.985    30 H    0.981     8 C    0.978
                            32 H    0.975
    10   6 C    3.988 --     8 C    0.989    35 H    0.984    33 H    0.984
                            34 H    0.981
    11   7 N    3.321 --    12 C    1.215     8 C    0.927    36 H    0.895
                            13 O    0.167
    12   6 C    3.912 --    13 O    1.616    11 N    1.215    14 C    0.994
    13   8 O    1.929 --    12 C    1.616    11 N    0.167
    14   6 C    3.877 --    15 N    1.605    19 O    1.065    12 C    0.994
    15   7 N    3.019 --    14 C    1.605    16 N    1.205
    16   7 N    2.981 --    17 C    1.598    15 N    1.205
    17   6 C    3.869 --    16 N    1.598    19 O    1.085    18 C    1.032
    18   6 C    3.985 --    17 C    1.032    38 H    0.982    37 H    0.964
                            39 H    0.961
    19   8 O    2.334 --    17 C    1.085    14 C    1.065
    20   7 N    3.523 --     7 C    1.182    22 C    1.127    21 C    0.919
                            23 O    0.143
    21   6 C    3.906 --    40 H    0.975    41 H    0.972    42 H    0.971
                            20 N    0.919
    22   6 C    3.918 --    23 O    1.594    20 N    1.127    24 C    1.054
    23   8 O    1.939 --    22 C    1.594    20 N    0.143
    24   6 C    3.908 --     5 C    1.399    25 O    1.135    22 C    1.054
    25   8 O    2.248 --    24 C    1.135    26 C    0.855
    26   6 C    3.829 --    46 H    0.983    44 H    0.974    45 H    0.974
                            25 O    0.855
    27   1 H    0.996 --     1 C    0.972
    28   1 H    0.996 --     1 C    0.972
    29   1 H    1.002 --     1 C    0.982
    30   1 H    1.000 --     9 C    0.981
    31   1 H    1.000 --     9 C    0.985
    32   1 H    1.010 --     9 C    0.975
    33   1 H    1.009 --    10 C    0.984
    34   1 H    1.004 --    10 C    0.981
    35   1 H    1.006 --    10 C    0.984
    36   1 H    0.950 --    11 N    0.895
    37   1 H    0.996 --    18 C    0.964
    38   1 H    0.998 --    18 C    0.982
    39   1 H    0.996 --    18 C    0.961
    40   1 H    1.008 --    21 C    0.975
    41   1 H    1.001 --    21 C    0.972
    42   1 H    0.999 --    21 C    0.971
    43   1 H    0.807 --     4 O    0.745
    44   1 H    1.008 --    26 C    0.974
    45   1 H    1.008 --    26 C    0.974
    46   1 H    1.005 --    26 C    0.983
 ---------------------------------------------------------------------------

           -------------------------------------------------
          | TOTAL ENERGY              -86.344108830590 Eh   |
          | GRADIENT NORM               0.000394121399 Eh/α |
          | HOMO-LUMO GAP               1.877976793027 eV   |
           -------------------------------------------------

 * finished run on 2023/06/20 at 15:38:53.956
