   * xtb version 6.5.1 (579679a) compiled by 'ehlert@majestix' on 2022-07-11
          program call               : /lustre/hpc/kemi/ree/PhD/git/ReactivityQM/dep/xtb-6.5.1/bin/xtb --gfn 1 /lustre/hpc/kemi/ree/PhD/git/ReactivityQM/calculations/R02deprot/reac01prodE02/conf16/R02deprot_reac01prodE02_conf16_gfn1.xyz --opt --vfukui --chrg -2 --uhf 0 --alpb DMSO

   ID    Z sym.   atoms
    1    6 C      1, 3, 4, 6, 8-11, 13, 15, 18, 19, 22, 24
    2    8 O      2, 5, 14, 20, 23, 25
    3    7 N      7, 12, 16, 17, 21
    4    1 H      26-42

      * Solvation model:               ALPB
        Solvent                        DMSO
        Solvent mass                       7.8130E+01 g/mol
          :  Hamiltonian                  GFN1-xTB          :
 * total energy  :   -83.6062344 Eh     change       -0.1521983E-10 Eh
 * total energy  :   -83.6193739 Eh     change       -0.1313944E-01 Eh
 * total energy  :   -83.6251948 Eh     change       -0.5820983E-02 Eh
 * total energy  :   -83.6271611 Eh     change       -0.1966259E-02 Eh
 * total energy  :   -83.6293350 Eh     change       -0.2173874E-02 Eh
 * total energy  :   -83.6305885 Eh     change       -0.1253565E-02 Eh
 * total energy  :   -83.6317807 Eh     change       -0.1192119E-02 Eh
 * total energy  :   -83.6329782 Eh     change       -0.1197504E-02 Eh
 * total energy  :   -83.6339102 Eh     change       -0.9320361E-03 Eh
 * total energy  :   -83.6348995 Eh     change       -0.9893230E-03 Eh
 * total energy  :   -83.6389676 Eh     change       -0.1497183E-04 Eh
 * total energy  :   -83.6389790 Eh     change       -0.1147369E-04 Eh
 * total energy  :   -83.6389888 Eh     change       -0.9773062E-05 Eh
 * total energy  :   -83.6389986 Eh     change       -0.9783725E-05 Eh
 * total energy  :   -83.6390099 Eh     change       -0.1132983E-04 Eh
 * total energy  :   -83.6390236 Eh     change       -0.1373100E-04 Eh
 * total energy  :   -83.6390391 Eh     change       -0.1546845E-04 Eh
 * total energy  :   -83.6390536 Eh     change       -0.1450066E-04 Eh
 * total energy  :   -83.6390583 Eh     change       -0.4692945E-05 Eh
   *** GEOMETRY OPTIMIZATION CONVERGED AFTER 68 ITERATIONS ***

 final structure:
================
42
 xtb: 6.5.1 (579679a)
C           -4.52717624130195       -1.35426062382261        0.47510504878409
O           -4.86726723745803       -0.05783122292250        0.89452393540274
C           -4.17753565354792        1.08915082498718        0.26763091328503
C           -4.34392230109296        0.99314086646693       -1.27058846014909
O           -4.79673306020260        2.22111874468148        0.72885127108726
C           -2.69170756520116        1.07630272566442        0.64353143275403
N           -1.88930609401545        0.17380869701703       -0.00700833760665
C           -0.61263405650714        0.19684799403240        0.30444186004537
C            0.28135329319744       -0.81409508628766       -0.41922914206567
C            0.01598303284370       -0.76194910947914       -1.92797019276746
C            0.01291673433904       -2.22429988956998        0.12578093558217
N            1.66003491934422       -0.42474711189686       -0.12914797985964
C            2.75730343312779       -0.98977335419724       -0.62233014436023
O            2.80374768848290       -1.94431171001865       -1.39151679981758
C            3.98818640624873       -0.29921973560662       -0.12576635499860
N            4.02996386664316        0.69128755697902        0.71136560272499
N            5.34657733034682        1.02058660348550        0.86969032438817
C            6.02054280553891        0.21013729877958        0.11694747201143
C            7.48744964960056        0.16258572339244       -0.07219851168811
O            5.22357139164144       -0.64916883215207       -0.53740027815055
N           -0.01058242395515        0.99612709467317        1.18419862135510
C           -0.74877907388293        1.92056785535868        1.87473763776185
O           -0.19590541172374        2.67837245239159        2.71044987044982
C           -2.19491020545530        1.96582236278496        1.57775213249326
O           -2.97545122613733        2.84311114264186        2.18382191076751
H           -4.90539220878984       -2.05365448141263        1.22876617989331
H           -3.44043875470292       -1.49962984299403        0.38345718112378
H           -4.99013230489615       -1.61444313421121       -0.48944567257947
H           -5.39580243708574        0.86369524641275       -1.52036819826817
H           -3.76364647105066        0.16724418984770       -1.67793850481511
H           -3.98922071463302        1.92497132447620       -1.70867036837818
H            0.31486955470735        0.20682341604546       -2.32811483410682
H           -1.05242393933216       -0.89722367141454       -2.09696614380019
H            0.56177510672009       -1.54543426542642       -2.45136801254187
H            0.23979442998261       -2.26514089605263        1.19119259171803
H           -1.03966609365352       -2.46476079378794       -0.02070805166430
H            0.62131279499600       -2.96302923644872       -0.39445564049785
H            1.72880914729722        0.35393673948044        0.53786057774136
H            7.73526092302272        0.35385591501142       -1.11590882781656
H            7.96172857405530        0.91199037735857        0.55608030910197
H            7.86712953435942       -0.82472451743176        0.18786596393930
H           -4.04967914186988        2.62621136314895        1.48626068352053

          :  Hamiltonian                  GFN1-xTB          :
         :: total energy             -83.639058310287 Eh    ::
         :: gradient norm              0.000221238388 Eh/a0 ::
         :: HOMO-LUMO gap              0.514345528832 eV    ::
         :: SCC energy               -84.356167146689 Eh    ::
         :: -> Gsolv                  -0.281959344331 Eh    ::
         :: repulsion energy           0.743561043688 Eh    ::

    * Orbital Energies and Occupations

         #    Occupation            Energy/Eh            Energy/eV
      -------------------------------------------------------------
         1        2.0000           -0.8501996             -23.1351
       ...           ...                  ...                  ...
        56        2.0000           -0.4408152             -11.9952
        57        2.0000           -0.4366869             -11.8829
        58        2.0000           -0.4313934             -11.7388
        59        2.0000           -0.4272908             -11.6272
        60        2.0000           -0.4154896             -11.3060
        61        2.0000           -0.3995236             -10.8716
        62        2.0000           -0.3947183             -10.7408
        63        2.0000           -0.3925111             -10.6808
        64        2.0000           -0.3714983             -10.1090
        65        2.0000           -0.3642124              -9.9107
        66        2.0000           -0.3594317              -9.7806
        67        2.0000           -0.3137643              -8.5380
        68        1.9999           -0.3075166              -8.3680 (HOMO)
        69        0.0001           -0.2886147              -7.8536 (LUMO)
        70                         -0.2451235              -6.6701
        71                         -0.1860737              -5.0633
        72                         -0.1841242              -5.0103
        73                         -0.1765425              -4.8040
        74                         -0.1380863              -3.7575
        75                         -0.1076982              -2.9306
        76                         -0.0981949              -2.6720
        77                         -0.0938954              -2.5550
        78                         -0.0823575              -2.2411
        79                         -0.0704027              -1.9158
       ...                                ...                  ...
       134                          0.7358166              20.0226
      -------------------------------------------------------------
                  HL-Gap            0.0189019 Eh            0.5143 eV

Wiberg/Mayer (AO) data.
largest (>0.10) Wiberg bond orders for each atom

     #   Z sym  total        # sym  WBO       # sym  WBO       # sym  WBO
 ---------------------------------------------------------------------------
     1   6 C    3.934 --    26 H    0.983    28 H    0.980     2 O    0.972
                            27 H    0.971
     2   8 O    1.965 --     1 C    0.972     3 C    0.840
     3   6 C    3.863 --     5 O    1.047     4 C    0.967     6 C    0.958
                             2 O    0.840
     4   6 C    3.994 --    29 H    0.987    31 H    0.987    30 H    0.985
                             3 C    0.967
     5   8 O    1.796 --     3 C    1.047    42 H    0.545
     6   6 C    3.946 --    24 C    1.459     7 N    1.210     3 C    0.958
                            25 O    0.113
     7   7 N    3.023 --     8 C    1.454     6 C    1.210
     8   6 C    3.959 --     7 N    1.454    21 N    1.351     9 C    0.958
     9   6 C    3.918 --    10 C    0.990    11 C    0.983     8 C    0.958
                            12 N    0.916
    10   6 C    3.995 --     9 C    0.990    32 H    0.987    34 H    0.985
                            33 H    0.983
    11   6 C    3.995 --    35 H    0.987    37 H    0.985    36 H    0.985
                             9 C    0.983
    12   7 N    3.404 --    13 C    1.325     9 C    0.916    38 H    0.861
                            14 O    0.193
    13   6 C    3.928 --    14 O    1.547    12 N    1.325    15 C    0.975
    14   8 O    1.868 --    13 C    1.547    12 N    0.193
    15   6 C    3.865 --    16 N    1.624    20 O    1.058    13 C    0.975
    16   7 N    3.007 --    15 C    1.624    17 N    1.187
    17   7 N    2.980 --    18 C    1.620    16 N    1.187
    18   6 C    3.876 --    17 N    1.620    20 O    1.079    19 C    1.029
    19   6 C    3.989 --    18 C    1.029    40 H    0.983    41 H    0.966
                            39 H    0.965
    20   8 O    2.320 --    18 C    1.079    15 C    1.058
    21   7 N    3.002 --     8 C    1.351    22 C    1.225    23 O    0.119
    22   6 C    3.919 --    23 O    1.452    21 N    1.225    24 C    1.071
    23   8 O    1.729 --    22 C    1.452    21 N    0.119
    24   6 C    3.947 --     6 C    1.459    25 O    1.202    22 C    1.071
    25   8 O    1.852 --    24 C    1.202    42 H    0.342     6 C    0.113
    26   1 H    1.023 --     1 C    0.983
    27   1 H    1.039 --     1 C    0.971
    28   1 H    1.017 --     1 C    0.980
    29   1 H    1.012 --     4 C    0.987
    30   1 H    1.022 --     4 C    0.985
    31   1 H    1.018 --     4 C    0.987
    32   1 H    1.008 --    10 C    0.987
    33   1 H    1.024 --    10 C    0.983
    34   1 H    1.014 --    10 C    0.985
    35   1 H    1.008 --    11 C    0.987
    36   1 H    1.015 --    11 C    0.985
    37   1 H    1.011 --    11 C    0.985
    38   1 H    0.993 --    12 N    0.861
    39   1 H    0.998 --    19 C    0.965
    40   1 H    1.000 --    19 C    0.983
    41   1 H    0.998 --    19 C    0.966
    42   1 H    0.903 --     5 O    0.545    25 O    0.342
 ---------------------------------------------------------------------------

           -------------------------------------------------
          | TOTAL ENERGY              -83.639058310287 Eh   |
          | GRADIENT NORM               0.000221238388 Eh/α |
          | HOMO-LUMO GAP               0.514345528832 eV   |
           -------------------------------------------------

 * finished run on 2023/06/20 at 17:34:38.116
