   * xtb version 6.5.1 (579679a) compiled by 'ehlert@majestix' on 2022-07-11
          program call               : /lustre/hpc/kemi/ree/PhD/git/ReactivityQM/dep/xtb-6.5.1/bin/xtb --gfn 1 /lustre/hpc/kemi/ree/PhD/git/ReactivityQM/calculations/R02/reac01prodN03/conf02/R02_reac01prodN03_conf02_gfn1.xyz --opt --vfukui --chrg 1 --uhf 0 --alpb DMSO

   ID    Z sym.   atoms
    1    6 C      1, 3, 5, 6, 8-11, 13, 15, 18, 19, 22, 24
    2    8 O      2, 4, 14, 20, 23, 25
    3    7 N      7, 12, 16, 17, 21
    4    1 H      26-43

      * Solvation model:               ALPB
        Solvent                        DMSO
        Solvent mass                       7.8130E+01 g/mol
          :  Hamiltonian                  GFN1-xTB          :
 * total energy  :   -83.1283418 Eh     change       -0.8782308E-11 Eh
 * total energy  :   -83.1542255 Eh     change       -0.2588367E-01 Eh
 * total energy  :   -83.1621900 Eh     change       -0.7964523E-02 Eh
 * total energy  :   -83.1641069 Eh     change       -0.1916843E-02 Eh
 * total energy  :   -83.1650040 Eh     change       -0.8970987E-03 Eh
 * total energy  :   -83.1653220 Eh     change       -0.3180310E-03 Eh
 * total energy  :   -83.1656125 Eh     change       -0.2905057E-03 Eh
 * total energy  :   -83.1658453 Eh     change       -0.2328425E-03 Eh
 * total energy  :   -83.1660212 Eh     change       -0.1758665E-03 Eh
 * total energy  :   -83.1661529 Eh     change       -0.1316794E-03 Eh
 * total energy  :   -83.1667418 Eh     change       -0.1039737E-04 Eh
 * total energy  :   -83.1667597 Eh     change       -0.1788489E-04 Eh
 * total energy  :   -83.1667770 Eh     change       -0.1728192E-04 Eh
 * total energy  :   -83.1667894 Eh     change       -0.1245945E-04 Eh
 * total energy  :   -83.1668081 Eh     change       -0.1865764E-04 Eh
 * total energy  :   -83.1668180 Eh     change       -0.9948125E-05 Eh
 * total energy  :   -83.1668262 Eh     change       -0.8170981E-05 Eh
 * total energy  :   -83.1668321 Eh     change       -0.5909601E-05 Eh
 * total energy  :   -83.1668367 Eh     change       -0.4581549E-05 Eh
   *** GEOMETRY OPTIMIZATION CONVERGED AFTER 39 ITERATIONS ***

 final structure:
================
43
 xtb: 6.5.1 (579679a)
C           -5.78996512724090        1.71199553448024       -1.10704117552269
O           -4.49803740711179        1.75255514421980       -0.47340098410370
C           -3.69278617528519        0.75398406064048       -0.57642199413334
O           -4.11810099791838       -0.24876606797696       -1.26435861985148
C           -3.42117224977377       -1.47303822595302       -1.54219876285724
C           -2.41043700206087        0.86335577429316        0.08647505839191
N           -1.56177584691954       -0.21991147281998        0.00124609893354
C           -0.40280975541503       -0.17999827305848        0.56753607949807
C            0.51122538909931       -1.38376756339373        0.54400632608202
C            0.15985798970083       -2.32659430481480       -0.60876690944107
C            0.36253673014239       -2.08606725083937        1.90393251949972
N            1.87594518966582       -0.87886247375820        0.37691799332476
C            2.96751084711382       -1.68792555149838        0.41832793094743
O            2.96306920761650       -2.86250628426778        0.73379508868164
C            4.20935367019908       -0.96501415129093        0.05778727280014
N            5.41657963026065       -1.43337358335804        0.00527641642863
N            6.22202171278852       -0.40389016775455       -0.37542124650991
C            5.45757825376516        0.63152464201878       -0.53311344218326
C            5.85027326831948        1.99969124781441       -0.93349800843445
O            4.17051429417883        0.34400661748059       -0.27602814012787
N            0.02996155208943        0.90352350527655        1.27850600249550
C           -0.71297227268462        2.04116038475080        1.44271898350853
O           -0.34287658749891        3.01107337121629        2.07263026919904
C           -2.02986857567146        1.99268725579043        0.78460228897369
O           -2.77187770726007        3.07109765121035        0.91835268183662
H           -5.66205179676753        1.59981352117314       -2.18405181753173
H           -6.26769760668858        2.65885021764515       -0.86628734623174
H           -6.36186899063966        0.87172656789310       -0.71222671225894
H           -2.49334662541027       -1.25960592750245       -2.07106625437547
H           -3.20721620231385       -1.99718544688312       -0.61163114138466
H           -4.09856188991812       -2.05398422089268       -2.16658471780115
H            0.21611801091484       -1.79446140666332       -1.55639088672074
H           -0.84999394393258       -2.70778858381453       -0.47334428455076
H            0.85647783148379       -3.16362381087982       -0.62219646580894
H            0.94693754152259       -3.00398309292774        1.91763016946877
H            0.70494936353610       -1.42754227926427        2.69991899467500
H           -0.68600753091452       -2.32843277972973        2.06767063852358
H            1.98094449839673        0.01360568834877       -0.07584305664847
H            6.91116411008040        2.02487907781893       -1.17028605004390
H            5.64046704560228        2.69598092117108       -0.12182084847403
H            5.27032063040652        2.31236395953888       -1.80040783968545
H            0.94730046995323        0.88923575060213        1.70481361236364
H           -2.29167994540992        3.74321202595168        1.44534427904467

          :  Hamiltonian                  GFN1-xTB          :
         :: total energy             -83.166836704662 Eh    ::
         :: gradient norm              0.000631759689 Eh/a0 ::
         :: HOMO-LUMO gap              1.959613831163 eV    ::
         :: SCC energy               -83.963718529288 Eh    ::
         :: -> Gsolv                  -0.117941297374 Eh    ::
         :: repulsion energy           0.823237273846 Eh    ::

    * Orbital Energies and Occupations

         #    Occupation            Energy/Eh            Energy/eV
      -------------------------------------------------------------
         1        2.0000           -0.9127873             -24.8382
       ...           ...                  ...                  ...
        55        2.0000           -0.5270666             -14.3422
        56        2.0000           -0.5242390             -14.2653
        57        2.0000           -0.5179338             -14.0937
        58        2.0000           -0.5125686             -13.9477
        59        2.0000           -0.5085736             -13.8390
        60        2.0000           -0.4949280             -13.4677
        61        2.0000           -0.4849039             -13.1949
        62        2.0000           -0.4829323             -13.1413
        63        2.0000           -0.4720856             -12.8461
        64        2.0000           -0.4688280             -12.7575
        65        2.0000           -0.4645729             -12.6417
        66        2.0000           -0.4561356             -12.4121
        67        2.0000           -0.4543241             -12.3628 (HOMO)
        68                         -0.3823097             -10.4032 (LUMO)
        69                         -0.3182751              -8.6607
        70                         -0.3169710              -8.6252
        71                         -0.2920802              -7.9479
        72                         -0.2595208              -7.0619
        73                         -0.2048313              -5.5737
        74                         -0.1996940              -5.4339
        75                         -0.1710652              -4.6549
        76                         -0.1618621              -4.4045
        77                         -0.1430155              -3.8917
        78                         -0.1366946              -3.7197
       ...                                ...                  ...
       136                          0.7288728              19.8336
      -------------------------------------------------------------
                  HL-Gap            0.0720145 Eh            1.9596 eV

Wiberg/Mayer (AO) data.
largest (>0.10) Wiberg bond orders for each atom

     #   Z sym  total        # sym  WBO       # sym  WBO       # sym  WBO
 ---------------------------------------------------------------------------
     1   6 C    3.823 --    27 H    0.981    28 H    0.972    26 H    0.972
                             2 O    0.854
     2   8 O    2.311 --     3 C    1.263     1 C    0.854
     3   6 C    3.817 --     2 O    1.263     4 O    1.252     6 C    1.117
     4   8 O    2.308 --     3 C    1.252     5 C    0.849
     5   6 C    3.814 --    31 H    0.979    29 H    0.972    30 H    0.971
                             4 O    0.849
     6   6 C    3.956 --    24 C    1.427     7 N    1.151     3 C    1.117
     7   7 N    3.035 --     8 C    1.589     6 C    1.151
     8   6 C    3.919 --     7 N    1.589    21 N    1.166     9 C    0.983
     9   6 C    3.935 --    10 C    0.989     8 C    0.983    11 C    0.970
                            12 N    0.930
    10   6 C    3.987 --     9 C    0.989    32 H    0.984    33 H    0.982
                            34 H    0.980
    11   6 C    3.983 --    37 H    0.985    36 H    0.984    35 H    0.974
                             9 C    0.970
    12   7 N    3.316 --    13 C    1.222     9 C    0.930    38 H    0.892
                            14 O    0.168
    13   6 C    3.912 --    14 O    1.607    12 N    1.222    15 C    0.997
    14   8 O    1.920 --    13 C    1.607    12 N    0.168
    15   6 C    3.874 --    16 N    1.621    20 O    1.045    13 C    0.997
    16   7 N    3.002 --    15 C    1.621    17 N    1.202
    17   7 N    2.982 --    18 C    1.608    16 N    1.202
    18   6 C    3.867 --    17 N    1.608    20 O    1.072    19 C    1.032
    19   6 C    3.985 --    18 C    1.032    39 H    0.982    41 H    0.964
                            40 H    0.960
    20   8 O    2.315 --    18 C    1.072    15 C    1.045
    21   7 N    3.479 --     8 C    1.166    22 C    1.150    42 H    0.870
                            23 O    0.141
    22   6 C    3.913 --    23 O    1.616    21 N    1.150    24 C    1.027
    23   8 O    1.941 --    22 C    1.616    21 N    0.141
    24   6 C    3.910 --     6 C    1.427    25 O    1.179    22 C    1.027
    25   8 O    2.151 --    24 C    1.179    43 H    0.781
    26   1 H    0.998 --     1 C    0.972
    27   1 H    1.002 --     1 C    0.981
    28   1 H    0.998 --     1 C    0.972
    29   1 H    1.012 --     5 C    0.972
    30   1 H    1.012 --     5 C    0.971
    31   1 H    1.001 --     5 C    0.979
    32   1 H    1.001 --    10 C    0.984
    33   1 H    1.005 --    10 C    0.982
    34   1 H    1.003 --    10 C    0.980
    35   1 H    1.008 --    11 C    0.974
    36   1 H    0.999 --    11 C    0.984
    37   1 H    1.000 --    11 C    0.985
    38   1 H    0.934 --    12 N    0.892
    39   1 H    0.998 --    19 C    0.982
    40   1 H    0.996 --    19 C    0.960
    41   1 H    0.996 --    19 C    0.964
    42   1 H    0.916 --    21 N    0.870
    43   1 H    0.821 --    25 O    0.781
 ---------------------------------------------------------------------------

           -------------------------------------------------
          | TOTAL ENERGY              -83.166836704662 Eh   |
          | GRADIENT NORM               0.000631759689 Eh/α |
          | HOMO-LUMO GAP               1.959613831163 eV   |
           -------------------------------------------------

 * finished run on 2023/06/20 at 15:21:16.133
