   * xtb version 6.5.1 (579679a) compiled by 'ehlert@majestix' on 2022-07-11
          program call               : /lustre/hpc/kemi/ree/PhD/git/ReactivityQM/dep/xtb-6.5.1/bin/xtb --gfn 1 /lustre/hpc/kemi/ree/PhD/git/ReactivityQM/calculations/R02oxygendeprot/reac01prodN08/conf18/R02oxygendeprot_reac01prodN08_conf18_gfn1.xyz --opt --vfukui --chrg 0 --uhf 0 --alpb DMSO

   ID    Z sym.   atoms
    1    6 C      1, 3, 5, 7-10, 12, 14, 17, 18, 21, 23, 25
    2    8 O      2, 4, 13, 19, 22, 24
    3    7 N      6, 11, 15, 16, 20
    4    1 H      26-42

      * Solvation model:               ALPB
        Solvent                        DMSO
        Solvent mass                       7.8130E+01 g/mol
          :  Hamiltonian                  GFN1-xTB          :
 * total energy  :   -82.9983571 Eh     change       -0.1116973E-10 Eh
 * total energy  :   -83.0126549 Eh     change       -0.1429779E-01 Eh
 * total energy  :   -83.0171412 Eh     change       -0.4486251E-02 Eh
 * total energy  :   -83.0181114 Eh     change       -0.9702251E-03 Eh
 * total energy  :   -83.0187261 Eh     change       -0.6147437E-03 Eh
 * total energy  :   -83.0190409 Eh     change       -0.3147438E-03 Eh
 * total energy  :   -83.0192492 Eh     change       -0.2083201E-03 Eh
 * total energy  :   -83.0194002 Eh     change       -0.1510499E-03 Eh
 * total energy  :   -83.0194976 Eh     change       -0.9736791E-04 Eh
 * total energy  :   -83.0195810 Eh     change       -0.8338165E-04 Eh
 * total energy  :   -83.0201414 Eh     change       -0.9257284E-05 Eh
 * total energy  :   -83.0201652 Eh     change       -0.2376306E-04 Eh
 * total energy  :   -83.0201791 Eh     change       -0.1389900E-04 Eh
 * total energy  :   -83.0201948 Eh     change       -0.1577159E-04 Eh
 * total energy  :   -83.0202075 Eh     change       -0.1272109E-04 Eh
 * total energy  :   -83.0202166 Eh     change       -0.9004539E-05 Eh
 * total energy  :   -83.0202250 Eh     change       -0.8412141E-05 Eh
 * total energy  :   -83.0202327 Eh     change       -0.7757435E-05 Eh
 * total energy  :   -83.0202374 Eh     change       -0.4716201E-05 Eh
   *** GEOMETRY OPTIMIZATION CONVERGED AFTER 32 ITERATIONS ***

 final structure:
================
42
 xtb: 6.5.1 (579679a)
C           -6.09640860655101       -1.07188177026104       -0.71991779756999
O           -4.86719668954785       -0.76455417983260       -0.05603627406880
C           -3.82720105531165       -0.48219214573307       -0.83653657465100
O           -3.89171068858105       -0.48333838029184       -2.04583208474823
C           -2.57175477046663       -0.15091820202995       -0.09421660506182
N           -1.55046801294188        0.19398924317460       -0.94081366164263
C           -0.40245269959255        0.52173477899537       -0.45993990438177
C            0.70967918087990        0.95942020881505       -1.38739007535401
C            0.75544644342298        2.49579633934923       -1.36607369253897
C            0.45438385017628        0.42806516984314       -2.80143391519860
N            1.96876013903887        0.41325291041349       -0.86864378827138
C            3.16765993486704        0.66740547569793       -1.43907853043071
O            3.36078539798536        1.42387511982529       -2.37498891209806
C            4.27547061920689       -0.07368165059467       -0.78582005129116
N            5.53332455546143       -0.05427791453308       -1.09905867031934
N            6.17000720639227       -0.88137320422221       -0.22280432252434
C            5.26164816281183       -1.35479871894001        0.57173032521856
C            5.44271018295651       -2.29246559790651        1.70081259656718
O            4.03954730054159       -0.88511958235362        0.26857097874607
N           -0.17593748445661        0.56046074353906        0.88378551797208
C           -1.11298361059283        0.22872796979249        1.84108206833860
O           -0.82011718794187        0.29456778617202        3.02585976378522
C           -2.40661318624164       -0.16638980756936        1.27401413832680
O           -3.43058791508839       -0.52877471211315        2.05741534473791
C           -3.33005493825918       -0.62870091639377        3.47820579105399
H           -5.97279937889063       -1.95681843008458       -1.34880244040144
H           -6.40942125376319       -0.22834719753400       -1.34000715242600
H           -6.83191293394657       -1.26162303308578        0.05897125560012
H            1.49468139434685        2.86211954996018       -2.07557241531965
H           -0.22357448057273        2.88831055845533       -1.63729543856643
H            1.01453210970993        2.84372212163193       -0.36798669197673
H           -0.52400891421632        0.76413881876779       -3.14187979941396
H            1.21896568723522        0.79712247111705       -3.48233668581341
H            0.47240152684678       -0.66069704518392       -2.79562923480323
H            1.92198003679870       -0.31521122298604       -0.17647321490151
H            4.83121690322342       -3.18136052184415        1.54789820346800
H            6.48973766475793       -2.57607142862615        1.77776979808773
H            5.12230905152667       -1.81996675717797        2.62939059700256
H            0.72389502073646        0.84496797514728        1.23973818904730
H           -3.12298443298193        0.34487172777790        3.92774028486994
H           -2.55662266324063       -1.34294225791308        3.76863810739210
H           -4.30433146573354       -0.98718729126679        3.81294297355418

          :  Hamiltonian                  GFN1-xTB          :
         :: total energy             -83.020237436349 Eh    ::
         :: gradient norm              0.000585192688 Eh/a0 ::
         :: HOMO-LUMO gap              2.763046674405 eV    ::
         :: SCC energy               -83.804475130788 Eh    ::
         :: -> Gsolv                  -0.057713523908 Eh    ::
         :: repulsion energy           0.809228931281 Eh    ::

    * Orbital Energies and Occupations

         #    Occupation            Energy/Eh            Energy/eV
      -------------------------------------------------------------
         1        2.0000           -0.8657883             -23.5593
       ...           ...                  ...                  ...
        55        2.0000           -0.5051939             -13.7470
        56        2.0000           -0.5012729             -13.6403
        57        2.0000           -0.4957901             -13.4911
        58        2.0000           -0.4852283             -13.2037
        59        2.0000           -0.4811361             -13.0924
        60        2.0000           -0.4801393             -13.0653
        61        2.0000           -0.4669798             -12.7072
        62        2.0000           -0.4615868             -12.5604
        63        2.0000           -0.4569548             -12.4344
        64        2.0000           -0.4520823             -12.3018
        65        2.0000           -0.4508806             -12.2691
        66        2.0000           -0.4482954             -12.1987
        67        2.0000           -0.4270316             -11.6201 (HOMO)
        68                         -0.3254915              -8.8571 (LUMO)
        69                         -0.3117987              -8.4845
        70                         -0.2845474              -7.7429
        71                         -0.2568792              -6.9900
        72                         -0.2408499              -6.5539
        73                         -0.1995377              -5.4297
        74                         -0.1615626              -4.3963
        75                         -0.1417510              -3.8572
        76                         -0.1372699              -3.7353
        77                         -0.1313897              -3.5753
        78                         -0.1278947              -3.4802
       ...                                ...                  ...
       134                          0.7293026              19.8453
      -------------------------------------------------------------
                  HL-Gap            0.1015401 Eh            2.7630 eV

Wiberg/Mayer (AO) data.
largest (>0.10) Wiberg bond orders for each atom

     #   Z sym  total        # sym  WBO       # sym  WBO       # sym  WBO
 ---------------------------------------------------------------------------
     1   6 C    3.872 --    28 H    0.986    27 H    0.979    26 H    0.979
                             2 O    0.897
     2   8 O    2.206 --     3 C    1.117     1 C    0.897     4 O    0.134
     3   6 C    3.852 --     4 O    1.654     2 O    1.117     5 C    1.000
     4   8 O    1.915 --     3 C    1.654     2 O    0.134
     5   6 C    3.962 --    23 C    1.483     6 N    1.185     3 C    1.000
     6   7 N    3.030 --     7 C    1.587     5 C    1.185
     7   6 C    3.930 --     6 N    1.587    20 N    1.167     8 C    0.982
     8   6 C    3.933 --    10 C    0.990     7 C    0.982     9 C    0.974
                            11 N    0.923
     9   6 C    3.987 --    30 H    0.985    31 H    0.985    29 H    0.977
                             8 C    0.974
    10   6 C    3.988 --     8 C    0.990    34 H    0.985    32 H    0.983
                            33 H    0.982
    11   7 N    3.337 --    12 C    1.247     8 C    0.923    35 H    0.893
                            13 O    0.174
    12   6 C    3.915 --    13 O    1.592    11 N    1.247    14 C    0.993
    13   8 O    1.908 --    12 C    1.592    11 N    0.174
    14   6 C    3.872 --    15 N    1.623    19 O    1.046    12 C    0.993
    15   7 N    3.000 --    14 C    1.623    16 N    1.198
    16   7 N    2.982 --    17 C    1.611    15 N    1.198
    17   6 C    3.868 --    16 N    1.611    19 O    1.071    18 C    1.032
    18   6 C    3.986 --    17 C    1.032    37 H    0.982    36 H    0.963
                            38 H    0.962
    19   8 O    2.315 --    17 C    1.071    14 C    1.046
    20   7 N    3.464 --     7 C    1.167    21 C    1.128    39 H    0.882
                            22 O    0.132
    21   6 C    3.909 --    22 O    1.578    20 N    1.128    23 C    1.066
    22   8 O    1.905 --    21 C    1.578    20 N    0.132
    23   6 C    3.918 --     5 C    1.483    24 O    1.098    21 C    1.066
    24   8 O    2.195 --    23 C    1.098    25 C    0.895
    25   6 C    3.870 --    42 H    0.984    41 H    0.979    40 H    0.978
                            24 O    0.895
    26   1 H    1.007 --     1 C    0.979
    27   1 H    1.007 --     1 C    0.979
    28   1 H    1.011 --     1 C    0.986
    29   1 H    1.009 --     9 C    0.977
    30   1 H    1.001 --     9 C    0.985
    31   1 H    1.001 --     9 C    0.985
    32   1 H    1.011 --    10 C    0.983
    33   1 H    1.007 --    10 C    0.982
    34   1 H    1.003 --    10 C    0.985
    35   1 H    0.937 --    11 N    0.893
    36   1 H    0.997 --    18 C    0.963
    37   1 H    0.998 --    18 C    0.982
    38   1 H    0.996 --    18 C    0.962
    39   1 H    0.927 --    20 N    0.882
    40   1 H    1.015 --    25 C    0.978
    41   1 H    1.013 --    25 C    0.979
    42   1 H    1.012 --    25 C    0.984
 ---------------------------------------------------------------------------

           -------------------------------------------------
          | TOTAL ENERGY              -83.020237436349 Eh   |
          | GRADIENT NORM               0.000585192688 Eh/α |
          | HOMO-LUMO GAP               2.763046674405 eV   |
           -------------------------------------------------

 * finished run on 2023/06/21 at 17:23:48.965
