                         Program Version 5.0.1 -  RELEASE  -
|  1> # ORCA input file
|  2> ! SP r2SCAN-3c CPCM
|  3>
|  4> %maxcore 1875.0
|  5> %pal nprocs 4 end
|  6> %cpcm smd true SMDsolvent "DMSO" end
|  7>
|  8> *xyz -2 1
|  9> C      -3.045324    2.235967    1.641406
| 10> O      -3.528630    0.972297    1.983191
| 11> C      -2.438823   -0.134698    1.907446
| 12> C      -3.105115   -1.272386    2.757898
| 13> O      -1.296067    0.262777    2.369848
| 14> C      -2.417044   -0.564584    0.389272
| 15> N      -1.193234   -0.400415   -0.186411
| 16> C      -0.980531   -0.686267   -1.426078
| 17> C       0.404817   -0.510464   -2.022661
| 18> C       0.400798    0.591057   -3.093510
| 19> C       0.919747   -1.831489   -2.612970
| 20> N       1.252351   -0.108486   -0.901817
| 21> C       2.558275    0.147954   -0.976672
| 22> O       3.248868    0.094860   -1.987843
| 23> C       3.115241    0.518224    0.357868
| 24> N       2.457067    0.607724    1.470991
| 25> N       3.354489    0.968866    2.433413
| 26> C       4.502784    1.075927    1.844203
| 27> C       5.800442    1.441136    2.454220
| 28> O       4.421889    0.805023    0.532216
| 29> N      -1.995595   -1.152357   -2.230259
| 30> C      -3.274119   -1.379409   -1.770332
| 31> O      -4.122687   -1.805316   -2.573938
| 32> C      -3.516530   -1.081974   -0.324343
| 33> O      -4.671016   -1.313157    0.148127
| 34> H      -2.847439    2.336546    0.557147
| 35> H      -3.798455    2.985638    1.914793
| 36> H      -2.111202    2.485167    2.176245
| 37> H      -3.094470   -0.961806    3.803138
| 38> H      -2.510741   -2.180041    2.654406
| 39> H      -4.131021   -1.467310    2.450458
| 40> H       0.083476    1.537825   -2.657625
| 41> H       1.395985    0.710992   -3.517564
| 42> H      -0.288030    0.320632   -3.891280
| 43> H       1.917464   -1.697454   -3.026751
| 44> H       0.256154   -2.161279   -3.409685
| 45> H       0.954692   -2.599536   -1.841051
| 46> H       0.758293   -0.028417   -0.003488
| 47> H       6.213689    2.318330    1.957968
| 48> H       6.511272    0.623754    2.337549
| 49> H       5.661940    1.652101    3.511474
| 50> H      -1.823657   -1.355953   -3.198995
| 51> **                         ****END OF INPUT****

CARTESIAN COORDINATES (ANGSTROEM)
---------------------------------
  C     -3.045324    2.235967    1.641406
  O     -3.528630    0.972297    1.983191
  C     -2.438823   -0.134698    1.907446
  C     -3.105115   -1.272386    2.757898
  O     -1.296067    0.262777    2.369848
  C     -2.417044   -0.564584    0.389272
  N     -1.193234   -0.400415   -0.186411
  C     -0.980531   -0.686267   -1.426078
  C      0.404817   -0.510464   -2.022661
  C      0.400798    0.591057   -3.093510
  C      0.919747   -1.831489   -2.612970
  N      1.252351   -0.108486   -0.901817
  C      2.558275    0.147954   -0.976672
  O      3.248868    0.094860   -1.987843
  C      3.115241    0.518224    0.357868
  N      2.457067    0.607724    1.470991
  N      3.354489    0.968866    2.433413
  C      4.502784    1.075927    1.844203
  C      5.800442    1.441136    2.454220
  O      4.421889    0.805023    0.532216
  N     -1.995595   -1.152357   -2.230259
  C     -3.274119   -1.379409   -1.770332
  O     -4.122687   -1.805316   -2.573938
  C     -3.516530   -1.081974   -0.324343
  O     -4.671016   -1.313157    0.148127
  H     -2.847439    2.336546    0.557147
  H     -3.798455    2.985638    1.914793
  H     -2.111202    2.485167    2.176245
  H     -3.094470   -0.961806    3.803138
  H     -2.510741   -2.180041    2.654406
  H     -4.131021   -1.467310    2.450458
  H      0.083476    1.537825   -2.657625
  H      1.395985    0.710992   -3.517564
  H     -0.288030    0.320632   -3.891280
  H      1.917464   -1.697454   -3.026751
  H      0.256154   -2.161279   -3.409685
  H      0.954692   -2.599536   -1.841051
  H      0.758293   -0.028417   -0.003488
  H      6.213689    2.318330    1.957968
  H      6.511272    0.623754    2.337549
  H      5.661940    1.652101    3.511474
  H     -1.823657   -1.355953   -3.198995

 Total Charge           Charge          ....   -2
 Multiplicity           Mult            ....    1
 Number of Electrons    NEL             ....  186
 Basis Dimension        Dim             ....  615

ORBITAL ENERGIES
----------------

  NO   OCC          E(Eh)            E(eV)
   0   2.0000     -19.055811      -518.5350
   1   2.0000     -18.918888      -514.8091
   2   2.0000     -18.878610      -513.7131
   3   2.0000     -18.877724      -513.6890
   4   2.0000     -18.839729      -512.6551
   5   2.0000     -18.798229      -511.5258
   6   2.0000     -14.194810      -386.2604
   7   2.0000     -14.189648      -386.1199
   8   2.0000     -14.182483      -385.9250
   9   2.0000     -14.176607      -385.7651
  10   2.0000     -14.118734      -384.1903
  11   2.0000     -10.141362      -275.9605
  12   2.0000     -10.138459      -275.8815
  13   2.0000     -10.133512      -275.7469
  14   2.0000     -10.087129      -274.4847
  15   2.0000     -10.083096      -274.3750
  16   2.0000     -10.067578      -273.9527
  17   2.0000     -10.054710      -273.6026
  18   2.0000     -10.040639      -273.2197
  19   2.0000     -10.034780      -273.0602
  20   2.0000     -10.024824      -272.7893
  21   2.0000     -10.010668      -272.4041
  22   2.0000     -10.010457      -272.3984
  23   2.0000      -9.998527      -272.0738
  24   2.0000      -9.967537      -271.2305
  25   2.0000      -1.145431       -31.1688
  26   2.0000      -1.006109       -27.3776
  27   2.0000      -0.969102       -26.3706
  28   2.0000      -0.966535       -26.3008
  29   2.0000      -0.922263       -25.0960
  30   2.0000      -0.915207       -24.9041
  31   2.0000      -0.892437       -24.2845
  32   2.0000      -0.888235       -24.1701
  33   2.0000      -0.842781       -22.9332
  34   2.0000      -0.824585       -22.4381
  35   2.0000      -0.819458       -22.2986
  36   2.0000      -0.754489       -20.5307
  37   2.0000      -0.705563       -19.1993
  38   2.0000      -0.671686       -18.2775
  39   2.0000      -0.652736       -17.7619
  40   2.0000      -0.649772       -17.6812
  41   2.0000      -0.640037       -17.4163
  42   2.0000      -0.610429       -16.6106
  43   2.0000      -0.585576       -15.9343
  44   2.0000      -0.584141       -15.8953
  45   2.0000      -0.571429       -15.5494
  46   2.0000      -0.565563       -15.3897
  47   2.0000      -0.527809       -14.3624
  48   2.0000      -0.511092       -13.9075
  49   2.0000      -0.485539       -13.2122
  50   2.0000      -0.472660       -12.8617
  51   2.0000      -0.466082       -12.6827
  52   2.0000      -0.451209       -12.2780
  53   2.0000      -0.440680       -11.9915
  54   2.0000      -0.424839       -11.5605
  55   2.0000      -0.415398       -11.3036
  56   2.0000      -0.408976       -11.1288
  57   2.0000      -0.398371       -10.8402
  58   2.0000      -0.397580       -10.8187
  59   2.0000      -0.389744       -10.6055
  60   2.0000      -0.385861       -10.4998
  61   2.0000      -0.382827       -10.4172
  62   2.0000      -0.374958       -10.2031
  63   2.0000      -0.370628       -10.0853
  64   2.0000      -0.362985        -9.8773
  65   2.0000      -0.353689        -9.6244
  66   2.0000      -0.353032        -9.6065
  67   2.0000      -0.340856        -9.2752
  68   2.0000      -0.340414        -9.2631
  69   2.0000      -0.335801        -9.1376
  70   2.0000      -0.335494        -9.1293
  71   2.0000      -0.322217        -8.7680
  72   2.0000      -0.320771        -8.7286
  73   2.0000      -0.315121        -8.5749
  74   2.0000      -0.309730        -8.4282
  75   2.0000      -0.304798        -8.2940
  76   2.0000      -0.298795        -8.1306
  77   2.0000      -0.289043        -7.8652
  78   2.0000      -0.279013        -7.5923
  79   2.0000      -0.270587        -7.3631
  80   2.0000      -0.259863        -7.0712
  81   2.0000      -0.256544        -6.9809
  82   2.0000      -0.237028        -6.4499
  83   2.0000      -0.230798        -6.2803
  84   2.0000      -0.229102        -6.2342
  85   2.0000      -0.218554        -5.9472
  86   2.0000      -0.214469        -5.8360
  87   2.0000      -0.194814        -5.3012
  88   2.0000      -0.169136        -4.6024
  89   2.0000      -0.142964        -3.8903
  90   2.0000      -0.135806        -3.6955
  91   2.0000      -0.120656        -3.2832
  92   2.0000      -0.113883        -3.0989
  93   0.0000      -0.073368        -1.9964
  94   0.0000      -0.012685        -0.3452
  95   0.0000      -0.007117        -0.1937
  96   0.0000       0.018650         0.5075
  97   0.0000       0.059630         1.6226

MULLIKEN ATOMIC CHARGES
-----------------------
   0 C :   -0.435741
   1 O :   -0.302272
   2 C :    0.301722
   3 C :   -0.728198
   4 O :   -0.527273
   5 C :   -0.208969
   6 N :   -0.175556
   7 C :    0.363574
   8 C :   -0.209159
   9 C :   -0.620923
  10 C :   -0.611132
  11 N :    0.035262
  12 C :   -0.145029
  13 O :   -0.467084
  14 C :    0.361048
  15 N :   -0.130531
  16 N :   -0.328036
  17 C :    0.420533
  18 C :   -0.643844
  19 O :   -0.031010
  20 N :   -0.040083
  21 C :   -0.052842
  22 O :   -0.417253
  23 C :   -0.145042
  24 O :   -0.425467
  25 H :    0.111180
  26 H :    0.128459
  27 H :    0.146479
  28 H :    0.145515
  29 H :    0.140975
  30 H :    0.175699
  31 H :    0.180539
  32 H :    0.193380
  33 H :    0.179045
  34 H :    0.194767
  35 H :    0.175931
  36 H :    0.179346
  37 H :    0.327529
  38 H :    0.197938
  39 H :    0.199355
  40 H :    0.203100
  41 H :    0.284066
Sum of atomic charges:   -2.0000000

LOEWDIN ATOMIC CHARGES
----------------------
   0 C :   -0.119759
   1 O :   -0.773607
   2 C :    0.265277
   3 C :   -0.412775
   4 O :   -0.747700
   5 C :    0.144115
   6 N :   -0.638624
   7 C :    0.299527
   8 C :    0.103302
   9 C :   -0.356035
  10 C :   -0.355911
  11 N :   -0.593701
  12 C :    0.374059
  13 O :   -0.481098
  14 C :    0.420072
  15 N :   -0.360815
  16 N :   -0.366886
  17 C :    0.371805
  18 C :   -0.319334
  19 O :   -0.365995
  20 N :   -0.505447
  21 C :    0.333791
  22 O :   -0.538272
  23 C :    0.181260
  24 O :   -0.668245
  25 H :    0.133815
  26 H :    0.154005
  27 H :    0.155302
  28 H :    0.146886
  29 H :    0.146954
  30 H :    0.166422
  31 H :    0.170234
  32 H :    0.174883
  33 H :    0.166636
  34 H :    0.175886
  35 H :    0.166639
  36 H :    0.170586
  37 H :    0.321704
  38 H :    0.189719
  39 H :    0.190290
  40 H :    0.189751
  41 H :    0.291285

  Mayer bond orders larger than 0.100000
B(  0-C ,  1-O ) :   0.9499 B(  0-C , 25-H ) :   0.9731 B(  0-C , 26-H ) :   0.9711
B(  0-C , 27-H ) :   0.9734 B(  1-O ,  2-C ) :   0.7814 B(  2-C ,  3-C ) :   0.7617
B(  2-C ,  4-O ) :   1.8066 B(  2-C ,  5-C ) :   0.8556 B(  3-C , 28-H ) :   0.9946
B(  3-C , 29-H ) :   0.9900 B(  3-C , 30-H ) :   0.9941 B(  5-C ,  6-N ) :   1.0771
B(  5-C , 23-C ) :   0.9795 B(  6-N ,  7-C ) :   1.6898 B(  6-N ,  8-C ) :   0.1030
B(  7-C ,  8-C ) :   0.7511 B(  7-C , 11-N ) :  -0.1257 B(  7-C , 20-N ) :   1.0765
B(  8-C ,  9-C ) :   0.9225 B(  8-C , 10-C ) :   0.9311 B(  8-C , 11-N ) :   0.9456
B(  9-C , 31-H ) :   0.9736 B(  9-C , 32-H ) :   0.9635 B(  9-C , 33-H ) :   0.9633
B( 10-C , 34-H ) :   0.9657 B( 10-C , 35-H ) :   0.9608 B( 10-C , 36-H ) :   0.9725
B( 11-N , 12-C ) :   1.2009 B( 11-N , 37-H ) :   0.8145 B( 12-C , 13-O ) :   1.8937
B( 12-C , 14-C ) :   0.8601 B( 14-C , 15-N ) :   1.6808 B( 14-C , 19-O ) :   1.1191
B( 15-N , 16-N ) :   1.1908 B( 16-N , 17-C ) :   1.6165 B( 17-C , 18-C ) :   0.8295
B( 17-C , 19-O ) :   1.0751 B( 18-C , 38-H ) :   0.9457 B( 18-C , 39-H ) :   0.9426
B( 18-C , 40-H ) :   0.9904 B( 20-N , 21-C ) :   0.9939 B( 20-N , 41-H ) :   0.8862
B( 21-C , 22-O ) :   2.1058 B( 21-C , 23-C ) :   0.9184 B( 23-C , 24-O ) :   1.8151

Dispersion correction           -0.019289239
FINAL SINGLE POINT ENERGY     -1268.849855817097

DIPOLE MOMENT
-------------
                                X             Y             Z
Electronic contribution:      5.64325      -2.32165      -2.94232
Nuclear contribution   :      5.20155       3.80305      -0.39342
                        -----------------------------------------
Total Dipole Moment    :     10.84480       1.48140      -3.33575
                        -----------------------------------------
Magnitude (a.u.)       :     11.44253
Magnitude (Debye)      :     29.08459

Rotational constants in cm-1:     0.011097     0.004550     0.003485
Rotational constants in MHz :   332.665727   136.392582   104.485340

                             ****ORCA TERMINATED NORMALLY****
TOTAL RUN TIME: 0 days 0 hours 2 minutes 56 seconds 701 msec
