   * xtb version 6.5.1 (579679a) compiled by 'ehlert@majestix' on 2022-07-11
          program call               : /lustre/hpc/kemi/ree/PhD/git/ReactivityQM/dep/xtb-6.5.1/bin/xtb --gfn 1 /lustre/hpc/kemi/ree/PhD/git/ReactivityQM/calculations/R02methylcation/reac01prodE02/conf05/R02methylcation_reac01prodE02_conf05_gfn1.xyz --opt --vfukui --chrg -2 --uhf 0 --alpb DMSO

   ID    Z sym.   atoms
    1    6 C      1, 3, 4, 6, 8-11, 13, 15, 18, 19, 22, 24
    2    8 O      2, 5, 14, 20, 23, 25
    3    7 N      7, 12, 16, 17, 21
    4    1 H      26-42

      * Solvation model:               ALPB
        Solvent                        DMSO
        Solvent mass                       7.8130E+01 g/mol
          :  Hamiltonian                  GFN1-xTB          :
 * total energy  :   -83.5979683 Eh     change       -0.2253941E-08 Eh
 * total energy  :   -83.6126718 Eh     change       -0.1470352E-01 Eh
 * total energy  :   -83.6190252 Eh     change       -0.6353420E-02 Eh
 * total energy  :   -83.6207278 Eh     change       -0.1702593E-02 Eh
 * total energy  :   -83.6217948 Eh     change       -0.1066977E-02 Eh
 * total energy  :   -83.6223328 Eh     change       -0.5380206E-03 Eh
 * total energy  :   -83.6226980 Eh     change       -0.3651839E-03 Eh
 * total energy  :   -83.6229584 Eh     change       -0.2604668E-03 Eh
 * total energy  :   -83.6231750 Eh     change       -0.2165719E-03 Eh
 * total energy  :   -83.6234005 Eh     change       -0.2255141E-03 Eh
 * total energy  :   -83.6255090 Eh     change       -0.1330074E-04 Eh
 * total energy  :   -83.6255260 Eh     change       -0.1705868E-04 Eh
 * total energy  :   -83.6255388 Eh     change       -0.1273296E-04 Eh
 * total energy  :   -83.6255457 Eh     change       -0.6919230E-05 Eh
 * total energy  :   -83.6255512 Eh     change       -0.5483481E-05 Eh
 * total energy  :   -83.6255572 Eh     change       -0.6067702E-05 Eh
 * total energy  :   -83.6255635 Eh     change       -0.6214274E-05 Eh
 * total energy  :   -83.6255688 Eh     change       -0.5294530E-05 Eh
 * total energy  :   -83.6255732 Eh     change       -0.4430873E-05 Eh
   *** GEOMETRY OPTIMIZATION CONVERGED AFTER 58 ITERATIONS ***

 final structure:
================
42
 xtb: 6.5.1 (579679a)
C           -3.04532441246057        2.23596713718384        1.64140614117008
O           -3.52863044429394        0.97229731338251        1.98319075391114
C           -2.43882271185103       -0.13469821283107        1.90744582753268
C           -3.10511472003208       -1.27238618529311        2.75789752774197
O           -1.29606720649252        0.26277735654978        2.36984791711926
C           -2.41704406842884       -0.56458377911992        0.38927244365555
N           -1.19323362562620       -0.40041509425719       -0.18641099602928
C           -0.98053060209472       -0.68626719202573       -1.42607765459962
C            0.40481652975483       -0.51046386465000       -2.02266148046042
C            0.40079811457805        0.59105717871460       -3.09351041960479
C            0.91974704020790       -1.83148914478741       -2.61296951717505
N            1.25235124114954       -0.10848580515346       -0.90181707065231
C            2.55827451340321        0.14795372367776       -0.97667242837245
O            3.24886766602295        0.09485961027551       -1.98784288905705
C            3.11524069977057        0.51822376441160        0.35786750830766
N            2.45706714419961        0.60772396505386        1.47099133981782
N            3.35448930633941        0.96886576122560        2.43341340730651
C            4.50278428373757        1.07592729980474        1.84420254654166
C            5.80044233583533        1.44113632593905        2.45421971115171
O            4.42188866788619        0.80502329311096        0.53221645201043
N           -1.99559483582119       -1.15235681169854       -2.23025943432998
C           -3.27411940752270       -1.37940905841828       -1.77033172745310
O           -4.12268677642358       -1.80531554561430       -2.57393757996832
C           -3.51653047623077       -1.08197441320561       -0.32434287693156
O           -4.67101601859463       -1.31315700623876        0.14812667398043
H           -2.84743914176964        2.33654568732955        0.55714658739268
H           -3.79845536798897        2.98563777750629        1.91479294023997
H           -2.11120157499403        2.48516748115079        2.17624511487644
H           -3.09447009295663       -0.96180565239122        3.80313779271523
H           -2.51074067310935       -2.18004145292912        2.65440636270215
H           -4.13102142897061       -1.46731040039406        2.45045765415923
H            0.08347620206407        1.53782455170573       -2.65762524718448
H            1.39598463484763        0.71099188017112       -3.51756414253988
H           -0.28803001831338        0.32063162086783       -3.89128012270895
H            1.91746380489505       -1.69745351837382       -3.02675107608185
H            0.25615422902517       -2.16127906345407       -3.40968516697730
H            0.95469173596122       -2.59953551191849       -1.84105141886135
H            0.75829287010929       -0.02841721752456       -0.00348813343470
H            6.21368861018880        2.31832994527972        1.95796755805129
H            6.51127235321488        0.62375412628729        2.33754932790760
H            5.66193951366239        1.65210056841593        3.51147395096779
H           -1.82365689287633       -1.35595343775867       -3.19899515683258

          :  Hamiltonian                  GFN1-xTB          :
         :: total energy             -83.625573187861 Eh    ::
         :: gradient norm              0.000342981066 Eh/a0 ::
         :: HOMO-LUMO gap              0.518226563599 eV    ::
         :: SCC energy               -84.363837343016 Eh    ::
         :: -> Gsolv                  -0.309039821185 Eh    ::
         :: repulsion energy           0.764420970076 Eh    ::

    * Orbital Energies and Occupations

         #    Occupation            Energy/Eh            Energy/eV
      -------------------------------------------------------------
         1        2.0000           -0.8513988             -23.1677
       ...           ...                  ...                  ...
        56        2.0000           -0.4402941             -11.9810
        57        2.0000           -0.4358268             -11.8595
        58        2.0000           -0.4323560             -11.7650
        59        2.0000           -0.4249663             -11.5639
        60        2.0000           -0.4142580             -11.2725
        61        2.0000           -0.4120120             -11.2114
        62        2.0000           -0.4044965             -11.0069
        63        2.0000           -0.3843019             -10.4574
        64        2.0000           -0.3796475             -10.3307
        65        2.0000           -0.3468657              -9.4387
        66        2.0000           -0.3331852              -9.0664
        67        2.0000           -0.3177784              -8.6472
        68        1.9999           -0.3111738              -8.4675 (HOMO)
        69        0.0001           -0.2921294              -7.9492 (LUMO)
        70                         -0.2455255              -6.6811
        71                         -0.2182131              -5.9379
        72                         -0.2023994              -5.5076
        73                         -0.1805138              -4.9120
        74                         -0.1385357              -3.7697
        75                         -0.1153055              -3.1376
        76                         -0.1075219              -2.9258
        77                         -0.0921366              -2.5072
        78                         -0.0884915              -2.4080
        79                         -0.0820563              -2.2329
       ...                                ...                  ...
       134                          0.7455372              20.2871
      -------------------------------------------------------------
                  HL-Gap            0.0190445 Eh            0.5182 eV

Wiberg/Mayer (AO) data.
largest (>0.10) Wiberg bond orders for each atom

     #   Z sym  total        # sym  WBO       # sym  WBO       # sym  WBO
 ---------------------------------------------------------------------------
     1   6 C    3.948 --     2 O    0.997    27 H    0.983    26 H    0.977
                            28 H    0.973
     2   8 O    1.921 --     1 C    0.997     3 C    0.735
     3   6 C    3.888 --     5 O    1.254     4 C    0.935     6 C    0.909
                             2 O    0.735
     4   6 C    3.988 --    30 H    0.988    29 H    0.988    31 H    0.985
                             3 C    0.935
     5   8 O    1.526 --     3 C    1.254
     6   6 C    3.921 --    24 C    1.338     7 N    1.242     3 C    0.909
                            25 O    0.137
     7   7 N    3.074 --     8 C    1.550     6 C    1.242
     8   6 C    3.924 --     7 N    1.550    21 N    1.103     9 C    0.975
     9   6 C    3.933 --    11 C    0.985    10 C    0.983     8 C    0.975
                            12 N    0.926
    10   6 C    3.992 --    32 H    0.986    34 H    0.985     9 C    0.983
                            33 H    0.982
    11   6 C    3.992 --    37 H    0.986     9 C    0.985    36 H    0.984
                            35 H    0.982
    12   7 N    3.393 --    13 C    1.310     9 C    0.926    38 H    0.863
                            14 O    0.188
    13   6 C    3.925 --    14 O    1.554    12 N    1.310    15 C    0.980
    14   8 O    1.877 --    13 C    1.554    12 N    0.188
    15   6 C    3.869 --    16 N    1.624    20 O    1.056    13 C    0.980
    16   7 N    3.013 --    15 C    1.624    17 N    1.190
    17   7 N    2.981 --    18 C    1.618    16 N    1.190
    18   6 C    3.876 --    17 N    1.618    20 O    1.080    19 C    1.029
    19   6 C    3.989 --    18 C    1.029    41 H    0.983    39 H    0.966
                            40 H    0.965
    20   8 O    2.320 --    18 C    1.080    15 C    1.056
    21   7 N    3.417 --    22 C    1.143     8 C    1.103    42 H    0.907
                            23 O    0.127
    22   6 C    3.879 --    23 O    1.503    21 N    1.143    24 C    1.021
    23   8 O    1.796 --    22 C    1.503    21 N    0.127
    24   6 C    3.956 --    25 O    1.407     6 C    1.338    22 C    1.021
    25   8 O    1.741 --    24 C    1.407     6 C    0.137
    26   1 H    1.022 --     1 C    0.977
    27   1 H    1.026 --     1 C    0.983
    28   1 H    1.041 --     1 C    0.973
    29   1 H    1.026 --     4 C    0.988
    30   1 H    1.020 --     4 C    0.988
    31   1 H    1.035 --     4 C    0.985
    32   1 H    1.007 --    10 C    0.986
    33   1 H    1.011 --    10 C    0.982
    34   1 H    1.004 --    10 C    0.985
    35   1 H    1.011 --    11 C    0.982
    36   1 H    1.004 --    11 C    0.984
    37   1 H    1.006 --    11 C    0.986
    38   1 H    0.989 --    12 N    0.863
    39   1 H    0.998 --    19 C    0.966
    40   1 H    0.998 --    19 C    0.965
    41   1 H    1.000 --    19 C    0.983
    42   1 H    0.959 --    21 N    0.907
 ---------------------------------------------------------------------------

           -------------------------------------------------
          | TOTAL ENERGY              -83.625573187861 Eh   |
          | GRADIENT NORM               0.000342981066 Eh/α |
          | HOMO-LUMO GAP               0.518226563599 eV   |
           -------------------------------------------------

 * finished run on 2023/06/21 at 17:07:09.511
