   * xtb version 6.5.1 (579679a) compiled by 'ehlert@majestix' on 2022-07-11
          program call               : /lustre/hpc/kemi/ree/PhD/git/ReactivityQM/dep/xtb-6.5.1/bin/xtb --gfn 1 /lustre/hpc/kemi/ree/PhD/git/ReactivityQM/calculations/R02/reac01prodE05/conf01/R02_reac01prodE05_conf01_gfn1.xyz --opt --vfukui --chrg -1 --uhf 0 --alpb DMSO

   ID    Z sym.   atoms
    1    6 C      1, 3, 5, 6, 8, 11-14, 16, 18, 21, 22, 25
    2    8 O      2, 4, 7, 9, 17, 23
    3    7 N      10, 15, 19, 20, 24
    4    1 H      26-43

      * Solvation model:               ALPB
        Solvent                        DMSO
        Solvent mass                       7.8130E+01 g/mol
          :  Hamiltonian                  GFN1-xTB          :
 * total energy  :   -83.7937907 Eh     change       -0.1490776E-08 Eh
 * total energy  :   -83.8083961 Eh     change       -0.1460541E-01 Eh
 * total energy  :   -83.8166407 Eh     change       -0.8244549E-02 Eh
 * total energy  :   -83.8188291 Eh     change       -0.2188372E-02 Eh
 * total energy  :   -83.8208912 Eh     change       -0.2062111E-02 Eh
 * total energy  :   -83.8216261 Eh     change       -0.7348862E-03 Eh
 * total energy  :   -83.8221394 Eh     change       -0.5133471E-03 Eh
 * total energy  :   -83.8225281 Eh     change       -0.3886727E-03 Eh
 * total energy  :   -83.8228132 Eh     change       -0.2850996E-03 Eh
 * total energy  :   -83.8230695 Eh     change       -0.2563096E-03 Eh
 * total energy  :   -83.8236894 Eh     change       -0.9728980E-05 Eh
 * total energy  :   -83.8236981 Eh     change       -0.8751975E-05 Eh
 * total energy  :   -83.8237109 Eh     change       -0.1277360E-04 Eh
 * total energy  :   -83.8237185 Eh     change       -0.7601793E-05 Eh
 * total energy  :   -83.8237284 Eh     change       -0.9905546E-05 Eh
 * total energy  :   -83.8237280 Eh     change        0.4005315E-06 Eh
 * total energy  :   -83.8237337 Eh     change       -0.5748346E-05 Eh
 * total energy  :   -83.8237380 Eh     change       -0.4267159E-05 Eh
 * total energy  :   -83.8237414 Eh     change       -0.3386968E-05 Eh
   *** GEOMETRY OPTIMIZATION CONVERGED AFTER 37 ITERATIONS ***

 final structure:
================
43
 xtb: 6.5.1 (579679a)
C           -5.90761604155396        0.05765094790346        1.43713828185157
O           -4.55119347983031        0.19549408222899        1.04734014988323
C           -4.35283935210212        0.36101697633950       -0.33066296488095
O           -5.35513967851281        0.35898633200845       -1.09087288707499
C           -3.04160556246000        0.53110525486936       -0.75384026537833
C           -2.70218602060034        0.53401796219004       -2.17548022246849
O           -3.65872904764635        0.98612813169000       -3.07164467111652
C           -1.48898273156670        0.07326496036852       -2.61045707840954
O           -0.95237337526838       -0.03235715742577       -3.74129479432149
N           -0.65065521423281       -0.38564642403863       -1.47216104516612
C           -0.75867365270464        0.04268314067479       -0.22079043461076
C            0.42768969343302       -0.32383118449962        0.68307435899588
C            0.77760587477679        0.61520745780930        1.84308573511632
C            0.08989196100687       -1.72381105673711        1.22293186234349
N            1.59525371815108       -0.35600352331971       -0.20689932057749
C            2.79419668459146       -0.95504516886482        0.15976531314571
O            2.90812837129116       -1.83893433694165        1.00875332805209
C            3.88543435652433       -0.43570612842906       -0.64471326709730
N            3.79647643350221        0.52297832904461       -1.54539073335862
N            5.05513353668161        0.71309958704015       -2.03798205385602
C            5.83158524833502       -0.12106688147771       -1.42202575407921
C            7.29081963276108       -0.29638628733609       -1.61011687166126
O            5.16796093710810       -0.88101656478997       -0.52901711115154
N           -1.91905081894164        0.54852623642853        0.15750942021766
C           -2.10265434595609        1.30637525877292        1.39246584576586
H           -5.91961842679946       -0.04734427880961        2.52252185428335
H           -6.36176704964655       -0.82992809850620        0.98043406988560
H           -6.49316966232062        0.93874632860856        1.14957332512963
H           -4.52729422544913        0.90028043365003       -2.61003659069434
H            0.23262338918492       -0.78812468736652       -1.75670630073652
H            0.04385038867408        0.55835163173546        2.64201612723882
H            0.87726370175986        1.64349994783217        1.50172305823278
H            1.73728410056483        0.29699399745276        2.25077517615780
H            0.80117331490714       -2.01982217608109        1.99016592059658
H            0.11052381929097       -2.45516542398641        0.41675062354329
H           -0.90702823593721       -1.70528519092509        1.66201063400152
H            1.73519138694899        0.52083277253752       -0.69842077352088
H            7.50168918671068       -1.28440444605528       -2.02086038204574
H            7.80551878934633       -0.21283346136217       -0.65317703921662
H            7.66449153410481        0.46375033197567       -2.29229336941059
H           -1.26513146202012        1.98162204286584        1.54515906157607
H           -2.21027143296770        0.63461274494257        2.24366469883676
H           -3.00380424315556        1.90748658798529        1.29840008596779

          :  Hamiltonian                  GFN1-xTB          :
         :: total energy             -83.823741404012 Eh    ::
         :: gradient norm              0.000787343512 Eh/a0 ::
         :: HOMO-LUMO gap              0.078933742258 eV    ::
         :: SCC energy               -84.576805284908 Eh    ::
         :: -> Gsolv                  -0.118232593969 Eh    ::
         :: repulsion energy           0.780309101827 Eh    ::

    * Orbital Energies and Occupations

         #    Occupation            Energy/Eh            Energy/eV
      -------------------------------------------------------------
         1        2.0000           -0.8351193             -22.7248
       ...           ...                  ...                  ...
        56        2.0000           -0.4712989             -12.8247
        57        2.0000           -0.4633021             -12.6071
        58        2.0000           -0.4586481             -12.4805
        59        2.0000           -0.4467330             -12.1562
        60        2.0000           -0.4432182             -12.0606
        61        2.0000           -0.4369648             -11.8904
        62        2.0000           -0.4350038             -11.8371
        63        2.0000           -0.4293720             -11.6838
        64        2.0000           -0.4239897             -11.5373
        65        2.0000           -0.4161168             -11.3231
        66        2.0000           -0.3967620             -10.7964
        67        2.0000           -0.3755672             -10.2197
        68        1.6430           -0.2977448              -8.1020 (HOMO)
        69        0.3570           -0.2948440              -8.0231 (LUMO)
        70                         -0.2705521              -7.3621
        71                         -0.2358039              -6.4166
        72                         -0.1771840              -4.8214
        73                         -0.1749236              -4.7599
        74                         -0.1388000              -3.7769
        75                         -0.1342513              -3.6532
        76                         -0.1204350              -3.2772
        77                         -0.1180390              -3.2120
        78                         -0.1140028              -3.1022
        79                         -0.1067052              -2.9036
       ...                                ...                  ...
       136                          0.7349198              19.9982
      -------------------------------------------------------------
                  HL-Gap            0.0029008 Eh            0.0789 eV

Wiberg/Mayer (AO) data.
largest (>0.10) Wiberg bond orders for each atom

     #   Z sym  total        # sym  WBO       # sym  WBO       # sym  WBO
 ---------------------------------------------------------------------------
     1   6 C    3.907 --    26 H    0.987    27 H    0.981    28 H    0.981
                             2 O    0.936
     2   8 O    2.069 --     3 C    0.940     1 C    0.936
     3   6 C    3.827 --     4 O    1.391     5 C    1.383     2 O    0.940
     4   8 O    1.753 --     3 C    1.391     5 C    0.123
     5   6 C    3.691 --     3 C    1.383     6 C    1.084    24 N    0.931
                             4 O    0.123
     6   6 C    3.752 --     8 C    1.439     5 C    1.084     7 O    1.002
                             9 O    0.139
     7   8 O    1.933 --     6 C    1.002    29 H    0.805
     8   6 C    3.814 --     6 C    1.439     9 O    1.394    10 N    0.844
     9   8 O    1.665 --     8 C    1.394     6 C    0.139
    10   7 N    3.390 --    11 C    1.346    30 H    0.892     8 C    0.844
                            24 N    0.145
    11   6 C    3.928 --    24 N    1.403    10 N    1.346    12 C    0.967
    12   6 C    3.944 --    13 C    0.990    14 C    0.977    11 C    0.967
                            15 N    0.942
    13   6 C    3.989 --    12 C    0.990    32 H    0.982    31 H    0.981
                            33 H    0.979
    14   6 C    3.989 --    36 H    0.986    35 H    0.985    12 C    0.977
                            34 H    0.976
    15   7 N    3.204 --    16 C    1.118    12 C    0.942    37 H    0.907
                            17 O    0.129
    16   6 C    3.796 --    17 O    1.535    15 N    1.118    18 C    1.073
    17   8 O    1.796 --    16 C    1.535    15 N    0.129
    18   6 C    3.769 --    19 N    1.492    16 C    1.073    23 O    1.019
    19   7 N    2.859 --    18 C    1.492    20 N    1.192
    20   7 N    2.979 --    21 C    1.617    19 N    1.192
    21   6 C    3.840 --    20 N    1.617    23 O    1.068    22 C    1.028
    22   6 C    3.990 --    21 C    1.028    40 H    0.984    39 H    0.969
                            38 H    0.965
    23   8 O    2.252 --    21 C    1.068    18 C    1.019
    24   7 N    3.500 --    11 C    1.403    25 C    0.937     5 C    0.931
                            10 N    0.145
    25   6 C    3.940 --    41 H    0.979    43 H    0.979    42 H    0.978
                            24 N    0.937
    26   1 H    1.017 --     1 C    0.987
    27   1 H    1.018 --     1 C    0.981
    28   1 H    1.017 --     1 C    0.981
    29   1 H    0.893 --     7 O    0.805
    30   1 H    0.960 --    10 N    0.892
    31   1 H    1.004 --    13 C    0.981
    32   1 H    1.003 --    13 C    0.982
    33   1 H    1.003 --    13 C    0.979
    34   1 H    1.017 --    14 C    0.976
    35   1 H    1.005 --    14 C    0.985
    36   1 H    1.004 --    14 C    0.986
    37   1 H    0.966 --    15 N    0.907
    38   1 H    0.998 --    22 C    0.965
    39   1 H    0.998 --    22 C    0.969
    40   1 H    1.001 --    22 C    0.984
    41   1 H    1.007 --    25 C    0.979
    42   1 H    1.013 --    25 C    0.978
    43   1 H    1.017 --    25 C    0.979
 ---------------------------------------------------------------------------

           -------------------------------------------------
          | TOTAL ENERGY              -83.823741404012 Eh   |
          | GRADIENT NORM               0.000787343512 Eh/α |
          | HOMO-LUMO GAP               0.078933742258 eV   |
           -------------------------------------------------

 * finished run on 2023/06/20 at 14:58:12.583
