   * xtb version 6.5.1 (579679a) compiled by 'ehlert@majestix' on 2022-07-11
          program call               : /lustre/hpc/kemi/ree/PhD/git/ReactivityQM/dep/xtb-6.5.1/bin/xtb --gfn 1 /lustre/hpc/kemi/ree/PhD/git/ReactivityQM/calculations/R03/reac02prodN03/conf11/R03_reac02prodN03_conf11_gfn1.xyz --opt --vfukui --chrg 1 --uhf 0 --alpb DMSO

   ID    Z sym.   atoms
    1    6 C      1, 3, 5, 6, 8-11, 13, 15, 18, 19, 22, 23, 25
    2    8 O      2, 4, 14, 20, 24, 26
    3    7 N      7, 12, 16, 17, 21
    4    1 H      27-46

      * Solvation model:               ALPB
        Solvent                        DMSO
        Solvent mass                       7.8130E+01 g/mol
          :  Hamiltonian                  GFN1-xTB          :
 * total energy  :   -86.3035782 Eh     change       -0.1000444E-10 Eh
 * total energy  :   -86.3303266 Eh     change       -0.2674839E-01 Eh
 * total energy  :   -86.3390612 Eh     change       -0.8734617E-02 Eh
 * total energy  :   -86.3412037 Eh     change       -0.2142511E-02 Eh
 * total energy  :   -86.3420553 Eh     change       -0.8515956E-03 Eh
 * total energy  :   -86.3422436 Eh     change       -0.1882604E-03 Eh
 * total energy  :   -86.3423581 Eh     change       -0.1145140E-03 Eh
 * total energy  :   -86.3424354 Eh     change       -0.7729579E-04 Eh
 * total energy  :   -86.3424995 Eh     change       -0.6418192E-04 Eh
 * total energy  :   -86.3425570 Eh     change       -0.5749466E-04 Eh
 * total energy  :   -86.3429801 Eh     change       -0.9784371E-05 Eh
 * total energy  :   -86.3429901 Eh     change       -0.1001792E-04 Eh
 * total energy  :   -86.3430011 Eh     change       -0.1099390E-04 Eh
 * total energy  :   -86.3430201 Eh     change       -0.1898332E-04 Eh
 * total energy  :   -86.3430270 Eh     change       -0.6857604E-05 Eh
 * total energy  :   -86.3430385 Eh     change       -0.1149178E-04 Eh
 * total energy  :   -86.3430466 Eh     change       -0.8160143E-05 Eh
 * total energy  :   -86.3430467 Eh     change       -0.5157482E-07 Eh
 * total energy  :   -86.3430508 Eh     change       -0.4162418E-05 Eh
   *** GEOMETRY OPTIMIZATION CONVERGED AFTER 40 ITERATIONS ***

 final structure:
================
46
 xtb: 6.5.1 (579679a)
C           -6.19121246970927       -1.32318724273202        0.99469037697176
O           -5.03386753922582       -1.06875440500757        0.17859632458206
C           -3.97652378481990       -0.54701393826927        0.69610078410658
O           -4.03628177873421       -0.28306447425531        1.95549890488033
C           -3.00569607642517        0.29244062226589        2.77086015309144
C           -2.85405438118225       -0.32252949542213       -0.18955060814431
N           -1.71644870196365        0.24497226067071        0.33025173414659
C           -0.67105776586035        0.47303334223230       -0.40377188201577
C            0.50904717351967        1.15538107922492        0.27635020844282
C            0.31920166297107        1.17159092805616        1.79751959603365
C            0.61083800746604        2.59939204278685       -0.24029468183550
N            1.71383772146564        0.37603853133060       -0.02014037940673
C            2.96218907289011        0.77960409602955        0.34080474849232
O            3.25643527320064        1.87811206888968        0.76581640675670
C            3.94051070219297       -0.30960133828252        0.10915385209181
N            3.66337122941498       -1.51335183933662       -0.29602835481476
N            4.84504581812749       -2.18489214970533       -0.36677702913700
C            5.76963854404218       -1.34781031236568        0.00033277600598
C            7.22585791948062       -1.59024192813938        0.09507702029952
O            5.25916976946417       -0.14809715727447        0.31378845726613
N           -0.64022859179641        0.16635927782026       -1.74079193096609
C            0.47669808029659        0.40734919147185       -2.66441634067728
C           -1.72681604005964       -0.39911421201271       -2.37042416735545
O           -1.73756391234703       -0.67403742255254       -3.55953292942286
C           -2.89454607906561       -0.65632850922069       -1.52766244638056
O           -3.92723970765118       -1.19658920480785       -2.14110122865944
H           -5.92789321866492       -2.02086748618397        1.79015890703011
H           -6.93568913440651       -1.75262764697804        0.32815095975214
H           -6.54458526954324       -0.38606754888317        1.42570238641055
H           -2.12329569495751       -0.34643327550299        2.75789553874824
H           -3.42836022215436        0.34899974366271        3.77341241252205
H           -2.75401182625389        1.28571938027367        2.40131756758882
H            0.17630824830828        0.15959157762209        2.17078319617683
H            1.20361256783289        1.60319413978121        2.26408563761915
H           -0.54626131276683        1.77671772344380        2.05641692510594
H           -0.36653976458373        3.07164443011325       -0.15321020858565
H            0.92590929429270        2.63111651808577       -1.28017661944077
H            1.32570555089357        3.15863849484608        0.36041105394507
H            1.58657255209245       -0.61434650613945       -0.16936602305023
H            7.44606979254078       -2.61718049979363       -0.18722282125365
H            7.75921902625718       -0.90623161169497       -0.56527546455539
H            7.56650343106606       -1.40904407054719        1.11470581289217
H            1.36722429302631        0.70644550336233       -2.12749395411439
H            0.17511924667248        1.18150853415340       -3.36970601315900
H            0.66243044697739       -0.51839555973920       -3.20927031857461
H           -3.70834515232165       -1.33204265128230       -3.08773133941844

          :  Hamiltonian                  GFN1-xTB          :
         :: total energy             -86.343050844895 Eh    ::
         :: gradient norm              0.000918707667 Eh/a0 ::
         :: HOMO-LUMO gap              1.962226206989 eV    ::
         :: SCC energy               -87.172407640731 Eh    ::
         :: -> Gsolv                  -0.102849229682 Eh    ::
         :: repulsion energy           0.858697928127 Eh    ::

    * Orbital Energies and Occupations

         #    Occupation            Energy/Eh            Energy/eV
      -------------------------------------------------------------
         1        2.0000           -0.9135691             -24.8595
       ...           ...                  ...                  ...
        58        2.0000           -0.5269594             -14.3393
        59        2.0000           -0.5205035             -14.1636
        60        2.0000           -0.5148803             -14.0106
        61        2.0000           -0.5110687             -13.9069
        62        2.0000           -0.5046162             -13.7313
        63        2.0000           -0.4939298             -13.4405
        64        2.0000           -0.4880477             -13.2805
        65        2.0000           -0.4824768             -13.1289
        66        2.0000           -0.4734669             -12.8837
        67        2.0000           -0.4675937             -12.7239
        68        2.0000           -0.4627488             -12.5920
        69        2.0000           -0.4582591             -12.4699
        70        2.0000           -0.4541350             -12.3576 (HOMO)
        71                         -0.3820246             -10.3954 (LUMO)
        72                         -0.3194961              -8.6939
        73                         -0.3183588              -8.6630
        74                         -0.2916649              -7.9366
        75                         -0.2613140              -7.1107
        76                         -0.2069833              -5.6323
        77                         -0.1988693              -5.4115
        78                         -0.1717270              -4.6729
        79                         -0.1626182              -4.4251
        80                         -0.1515132              -4.1229
        81                         -0.1437117              -3.9106
       ...                                ...                  ...
       144                          0.7242182              19.7070
      -------------------------------------------------------------
                  HL-Gap            0.0721105 Eh            1.9622 eV

Wiberg/Mayer (AO) data.
largest (>0.10) Wiberg bond orders for each atom

     #   Z sym  total        # sym  WBO       # sym  WBO       # sym  WBO
 ---------------------------------------------------------------------------
     1   6 C    3.823 --    28 H    0.981    29 H    0.972    27 H    0.972
                             2 O    0.855
     2   8 O    2.310 --     3 C    1.261     1 C    0.855
     3   6 C    3.815 --     2 O    1.261     4 O    1.252     6 C    1.117
     4   8 O    2.308 --     3 C    1.252     5 C    0.850
     5   6 C    3.815 --    31 H    0.978    30 H    0.971    32 H    0.970
                             4 O    0.850
     6   6 C    3.956 --    25 C    1.414     7 N    1.163     3 C    1.117
     7   7 N    3.036 --     8 C    1.567     6 C    1.163
     8   6 C    3.920 --     7 N    1.567    21 N    1.173     9 C    0.976
     9   6 C    3.934 --    10 C    0.990    11 C    0.978     8 C    0.976
                            12 N    0.927
    10   6 C    3.988 --     9 C    0.990    33 H    0.983    35 H    0.982
                            34 H    0.979
    11   6 C    3.984 --    36 H    0.984    37 H    0.980     9 C    0.978
                            38 H    0.975
    12   7 N    3.320 --    13 C    1.212     9 C    0.927    39 H    0.894
                            14 O    0.167
    13   6 C    3.912 --    14 O    1.618    12 N    1.212    15 C    0.994
    14   8 O    1.931 --    13 C    1.618    12 N    0.167
    15   6 C    3.878 --    16 N    1.604    20 O    1.066    13 C    0.994
    16   7 N    3.020 --    15 C    1.604    17 N    1.205
    17   7 N    2.981 --    18 C    1.599    16 N    1.205
    18   6 C    3.869 --    17 N    1.599    20 O    1.084    19 C    1.032
    19   6 C    3.985 --    18 C    1.032    40 H    0.982    42 H    0.963
                            41 H    0.962
    20   8 O    2.334 --    18 C    1.084    15 C    1.066
    21   7 N    3.525 --     8 C    1.173    23 C    1.146    22 C    0.915
                            24 O    0.142
    22   6 C    3.903 --    43 H    0.975    45 H    0.972    44 H    0.972
                            21 N    0.915
    23   6 C    3.919 --    24 O    1.587    21 N    1.146    25 C    1.045
    24   8 O    1.932 --    23 C    1.587    21 N    0.142
    25   6 C    3.914 --     6 C    1.414    26 O    1.174    23 C    1.045
    26   8 O    2.146 --    25 C    1.174    46 H    0.780
    27   1 H    0.998 --     1 C    0.972
    28   1 H    1.002 --     1 C    0.981
    29   1 H    0.998 --     1 C    0.972
    30   1 H    1.012 --     5 C    0.971
    31   1 H    1.001 --     5 C    0.978
    32   1 H    1.012 --     5 C    0.970
    33   1 H    1.004 --    10 C    0.983
    34   1 H    1.002 --    10 C    0.979
    35   1 H    1.006 --    10 C    0.982
    36   1 H    1.000 --    11 C    0.984
    37   1 H    0.999 --    11 C    0.980
    38   1 H    1.009 --    11 C    0.975
    39   1 H    0.950 --    12 N    0.894
    40   1 H    0.998 --    19 C    0.982
    41   1 H    0.996 --    19 C    0.962
    42   1 H    0.996 --    19 C    0.963
    43   1 H    1.008 --    22 C    0.975
    44   1 H    0.998 --    22 C    0.972
    45   1 H    1.000 --    22 C    0.972
    46   1 H    0.825 --    26 O    0.780
 ---------------------------------------------------------------------------

           -------------------------------------------------
          | TOTAL ENERGY              -86.343050844895 Eh   |
          | GRADIENT NORM               0.000918707667 Eh/α |
          | HOMO-LUMO GAP               1.962226206989 eV   |
           -------------------------------------------------

 * finished run on 2023/06/20 at 15:38:31.597
