   * xtb version 6.5.1 (579679a) compiled by 'ehlert@majestix' on 2022-07-11
          program call               : /lustre/hpc/kemi/ree/PhD/git/ReactivityQM/dep/xtb-6.5.1/bin/xtb --gfn 1 /lustre/hpc/kemi/ree/PhD/git/ReactivityQM/calculations/R01/reac02prodN01/conf07/R01_reac02prodN01_conf07_gfn1.xyz --opt --vfukui --chrg 1 --uhf 0 --alpb DMSO

   ID    Z sym.   atoms
    1    6 C      1, 3, 5, 6, 8-11, 14, 16
    2    8 O      2, 4, 15, 17
    3    7 N      7, 12, 13
    4    1 H      18-33

      * Solvation model:               ALPB
        Solvent                        DMSO
        Solvent mass                       7.8130E+01 g/mol
          :  Hamiltonian                  GFN1-xTB          :
 * total energy  :   -57.8141453 Eh     change       -0.1084999E-10 Eh
 * total energy  :   -57.8384362 Eh     change       -0.2429096E-01 Eh
 * total energy  :   -57.8453857 Eh     change       -0.6949513E-02 Eh
 * total energy  :   -57.8467998 Eh     change       -0.1414027E-02 Eh
 * total energy  :   -57.8472646 Eh     change       -0.4648207E-03 Eh
 * total energy  :   -57.8473711 Eh     change       -0.1065416E-03 Eh
 * total energy  :   -57.8474640 Eh     change       -0.9287566E-04 Eh
 * total energy  :   -57.8475225 Eh     change       -0.5852055E-04 Eh
 * total energy  :   -57.8475613 Eh     change       -0.3883844E-04 Eh
 * total energy  :   -57.8475886 Eh     change       -0.2723215E-04 Eh
 * total energy  :   -57.8476077 Eh     change       -0.1916879E-04 Eh
 * total energy  :   -57.8476204 Eh     change       -0.1268620E-04 Eh
 * total energy  :   -57.8476358 Eh     change       -0.1538460E-04 Eh
 * total energy  :   -57.8476466 Eh     change       -0.1074974E-04 Eh
 * total energy  :   -57.8476550 Eh     change       -0.8462764E-05 Eh
 * total energy  :   -57.8476652 Eh     change       -0.1014577E-04 Eh
 * total energy  :   -57.8476726 Eh     change       -0.7418840E-05 Eh
 * total energy  :   -57.8476770 Eh     change       -0.4360876E-05 Eh
   *** GEOMETRY OPTIMIZATION CONVERGED AFTER 18 ITERATIONS ***

 final structure:
================
33
 xtb: 6.5.1 (579679a)
C           -1.58391301407772        0.91883014291721        2.11412908967144
O           -2.54922922558740        0.14199796416407        1.38254978571824
C           -2.37322185861964       -0.46519989540710        0.25877937139089
O           -3.40251621769715       -1.05175060228714       -0.24410762433117
C           -4.67117772575890       -1.00030779066062        0.43314382470743
C           -1.13061998742408       -0.53661433575835       -0.47835355773685
N           -0.02981206584171       -0.00568796067665        0.14562463724996
C            1.12846030605728       -0.01815873572724       -0.42469555172428
C            2.30220814630167        0.60156809808253        0.30100929950528
C            3.60868342991684       -0.16009793336494        0.03092789941281
C            2.41849856603883        2.06378835348500       -0.15706409833375
N            1.97809728359244        0.58966530478990        1.72264839227402
N            1.30151070933329       -0.52667933428490       -1.68154993191026
C            0.28950279373754       -1.08845768390653       -2.41414254590658
O            0.43635366250632       -1.54497252244013       -3.53200864790969
C           -1.01581226321833       -1.09698035759279       -1.73439930823828
O           -2.01390352294545       -1.64096224138325       -2.40222312773660
H           -1.21406051284351        1.73280762243333        1.49119336423505
H           -0.74820114684684        0.29212059730404        2.42421374960983
H           -2.12318929783365        1.30564077956662        2.97806197691234
H           -4.99409736634858        0.03781616437592        0.51933978150056
H           -5.36030296047478       -1.57435588598767       -0.18233674328767
H           -4.57302580344882       -1.44071549340471        1.42587805461918
H            4.38509777399840        0.22306828385836        0.69098589714400
H            3.47457929819373       -1.22243831765057        0.22707201176250
H            3.93509759301822       -0.02310783969410       -0.99905916462237
H            2.56540973618310        2.11304195035783       -1.23470758637269
H            1.50888294249686        2.60215845612645        0.10691836283173
H            3.26617136865831        2.53304274507251        0.33951925789408
H            1.96726163962596       -0.36724834661302        2.05200804365106
H            2.70111568338132        1.08446084389527        2.22847297122297
H            2.21358565818400       -0.51403444104774       -2.11650073076356
H           -1.69743562225634       -1.96223958854212       -3.27133015243756

          :  Hamiltonian                  GFN1-xTB          :
         :: total energy             -57.847676957259 Eh    ::
         :: gradient norm              0.000518044068 Eh/a0 ::
         :: HOMO-LUMO gap              1.199010040031 eV    ::
         :: SCC energy               -58.423057781046 Eh    ::
         :: -> Gsolv                  -0.090517416432 Eh    ::
         :: repulsion energy           0.594271450678 Eh    ::

    * Orbital Energies and Occupations

         #    Occupation            Energy/Eh            Energy/eV
      -------------------------------------------------------------
         1        2.0000           -0.9118176             -24.8118
       ...           ...                  ...                  ...
        35        2.0000           -0.5483202             -14.9206
        36        2.0000           -0.5467702             -14.8784
        37        2.0000           -0.5377556             -14.6331
        38        2.0000           -0.5312038             -14.4548
        39        2.0000           -0.5258874             -14.3101
        40        2.0000           -0.5179968             -14.0954
        41        2.0000           -0.5127276             -13.9520
        42        2.0000           -0.5104060             -13.8889
        43        2.0000           -0.4996107             -13.5951
        44        2.0000           -0.4887638             -13.2999
        45        2.0000           -0.4748647             -12.9217
        46        2.0000           -0.4606803             -12.5357
        47        2.0000           -0.4244948             -11.5511 (HOMO)
        48                         -0.3804320             -10.3521 (LUMO)
        49                         -0.3105781              -8.4513
        50                         -0.2894050              -7.8751
        51                         -0.1955384              -5.3209
        52                         -0.1687430              -4.5917
        53                         -0.1585502              -4.3144
        54                         -0.1466037              -3.9893
        55                         -0.1335425              -3.6339
        56                         -0.1219010              -3.3171
        57                         -0.1207397              -3.2855
        58                         -0.1045333              -2.8445
       ...                                ...                  ...
       100                          0.6897092              18.7679
      -------------------------------------------------------------
                  HL-Gap            0.0440628 Eh            1.1990 eV

Wiberg/Mayer (AO) data.
largest (>0.10) Wiberg bond orders for each atom

     #   Z sym  total        # sym  WBO       # sym  WBO       # sym  WBO
 ---------------------------------------------------------------------------
     1   6 C    3.813 --    20 H    0.980    18 H    0.972    19 H    0.969
                             2 O    0.847
     2   8 O    2.305 --     3 C    1.252     1 C    0.847
     3   6 C    3.815 --     4 O    1.261     2 O    1.252     6 C    1.116
     4   8 O    2.309 --     3 C    1.261     5 C    0.855
     5   6 C    3.825 --    22 H    0.982    23 H    0.973    21 H    0.973
                             4 O    0.855
     6   6 C    3.958 --    16 C    1.424     7 N    1.161     3 C    1.116
     7   7 N    3.036 --     8 C    1.576     6 C    1.161
     8   6 C    3.907 --     7 N    1.576    13 N    1.163     9 C    0.981
     9   6 C    3.965 --    12 N    0.992    10 C    0.984     8 C    0.981
                            11 C    0.972
    10   6 C    3.991 --    25 H    0.985     9 C    0.984    24 H    0.981
                            26 H    0.980
    11   6 C    3.990 --    27 H    0.986    28 H    0.985    29 H    0.981
                             9 C    0.972
    12   7 N    2.957 --     9 C    0.992    30 H    0.941    31 H    0.938
    13   7 N    3.477 --     8 C    1.163    14 C    1.154    32 H    0.873
                            15 O    0.143
    14   6 C    3.915 --    15 O    1.605    13 N    1.154    16 C    1.032
    15   8 O    1.931 --    14 C    1.605    13 N    0.143
    16   6 C    3.912 --     6 C    1.424    17 O    1.169    14 C    1.032
    17   8 O    2.142 --    16 C    1.169    33 H    0.784
    18   1 H    1.013 --     1 C    0.972
    19   1 H    1.025 --     1 C    0.969
    20   1 H    1.003 --     1 C    0.980
    21   1 H    0.998 --     5 C    0.973
    22   1 H    1.002 --     5 C    0.982
    23   1 H    0.999 --     5 C    0.973
    24   1 H    1.000 --    10 C    0.981
    25   1 H    1.000 --    10 C    0.985
    26   1 H    0.998 --    10 C    0.980
    27   1 H    1.000 --    11 C    0.986
    28   1 H    1.005 --    11 C    0.985
    29   1 H    0.997 --    11 C    0.981
    30   1 H    0.958 --    12 N    0.941
    31   1 H    0.952 --    12 N    0.938
    32   1 H    0.919 --    13 N    0.873
    33   1 H    0.824 --    17 O    0.784
 ---------------------------------------------------------------------------

           -------------------------------------------------
          | TOTAL ENERGY              -57.847676957259 Eh   |
          | GRADIENT NORM               0.000518044068 Eh/α |
          | HOMO-LUMO GAP               1.199010040031 eV   |
           -------------------------------------------------

 * finished run on 2023/06/20 at 15:03:30.454
