                         Program Version 5.0.1 -  RELEASE  -
|  1> # ORCA input file
|  2> ! SP r2SCAN-3c CPCM
|  3>
|  4> %maxcore 1875.0
|  5> %pal nprocs 4 end
|  6> %cpcm smd true SMDsolvent "DMSO" end
|  7>
|  8> *xyz -2 1
|  9> C       5.311552    0.711700    2.616855
| 10> O       4.330271    0.457671    1.625555
| 11> C       4.678611    0.810428    0.344583
| 12> O       5.778014    1.301224    0.126069
| 13> C       3.625700    0.538746   -0.613916
| 14> N       2.477385   -0.028527   -0.085327
| 15> C       1.472880   -0.281137   -0.840515
| 16> C       0.205169   -0.915131   -0.310137
| 17> C       0.155406   -0.776536    1.219576
| 18> C       0.182613   -2.398064   -0.712887
| 19> N      -0.929419   -0.232855   -0.971596
| 20> C      -2.224966   -0.608947   -0.418038
| 21> O      -2.921478   -1.605538   -1.122806
| 22> C      -3.561339   -1.177461   -2.318669
| 23> C      -2.849082    0.321532    0.375628
| 24> N      -2.226627    1.363871    0.976334
| 25> N      -3.175522    1.954238    1.790479
| 26> C      -4.268268    1.290823    1.669007
| 27> C      -5.563297    1.544340    2.356808
| 28> O      -4.166875    0.233582    0.793296
| 29> N       1.491575   -0.000934   -2.192051
| 30> C       2.557550    0.543141   -2.848614
| 31> O       2.491789    0.760007   -4.060414
| 32> C       3.766649    0.848941   -1.992452
| 33> O       4.775465    1.343730   -2.534451
| 34> H       5.560382    1.777636    2.657047
| 35> H       4.892277    0.398271    3.572331
| 36> H       6.227087    0.145857    2.414982
| 37> H       0.028836    0.271520    1.496135
| 38> H       1.082005   -1.150772    1.655028
| 39> H      -0.682217   -1.347726    1.618733
| 40> H       0.240824   -2.488553   -1.797497
| 41> H      -0.745319   -2.860022   -0.376319
| 42> H       1.024933   -2.926713   -0.267132
| 43> H      -0.815859    0.771715   -0.805829
| 44> H      -2.833868   -0.778499   -3.038920
| 45> H      -4.055294   -2.047796   -2.757206
| 46> H      -4.314815   -0.404728   -2.113800
| 47> H      -5.883675    0.663001    2.914511
| 48> H      -6.345482    1.787056    1.635605
| 49> H      -5.446927    2.378520    3.046074
| 50> H       0.653363   -0.187612   -2.726059
| 51> **                         ****END OF INPUT****

CARTESIAN COORDINATES (ANGSTROEM)
---------------------------------
  C      5.311552    0.711700    2.616855
  O      4.330271    0.457671    1.625555
  C      4.678611    0.810428    0.344583
  O      5.778014    1.301224    0.126069
  C      3.625700    0.538746   -0.613916
  N      2.477385   -0.028527   -0.085327
  C      1.472880   -0.281137   -0.840515
  C      0.205169   -0.915131   -0.310137
  C      0.155406   -0.776536    1.219576
  C      0.182613   -2.398064   -0.712887
  N     -0.929419   -0.232855   -0.971596
  C     -2.224966   -0.608947   -0.418038
  O     -2.921478   -1.605538   -1.122806
  C     -3.561339   -1.177461   -2.318669
  C     -2.849082    0.321532    0.375628
  N     -2.226627    1.363871    0.976334
  N     -3.175522    1.954238    1.790479
  C     -4.268268    1.290823    1.669007
  C     -5.563297    1.544340    2.356808
  O     -4.166875    0.233582    0.793296
  N      1.491575   -0.000934   -2.192051
  C      2.557550    0.543141   -2.848614
  O      2.491789    0.760007   -4.060414
  C      3.766649    0.848941   -1.992452
  O      4.775465    1.343730   -2.534451
  H      5.560382    1.777636    2.657047
  H      4.892277    0.398271    3.572331
  H      6.227087    0.145857    2.414982
  H      0.028836    0.271520    1.496135
  H      1.082005   -1.150772    1.655028
  H     -0.682217   -1.347726    1.618733
  H      0.240824   -2.488553   -1.797497
  H     -0.745319   -2.860022   -0.376319
  H      1.024933   -2.926713   -0.267132
  H     -0.815859    0.771715   -0.805829
  H     -2.833868   -0.778499   -3.038920
  H     -4.055294   -2.047796   -2.757206
  H     -4.314815   -0.404728   -2.113800
  H     -5.883675    0.663001    2.914511
  H     -6.345482    1.787056    1.635605
  H     -5.446927    2.378520    3.046074
  H      0.653363   -0.187612   -2.726059

 Total Charge           Charge          ....   -2
 Multiplicity           Mult            ....    1
 Number of Electrons    NEL             ....  186
 Basis Dimension        Dim             ....  615

ORBITAL ENERGIES
----------------

  NO   OCC          E(Eh)            E(eV)
   0   2.0000     -18.987018      -516.6630
   1   2.0000     -18.961400      -515.9659
   2   2.0000     -18.933067      -515.1949
   3   2.0000     -18.897909      -514.2382
   4   2.0000     -18.897240      -514.2201
   5   2.0000     -18.870851      -513.5020
   6   2.0000     -14.186448      -386.0329
   7   2.0000     -14.147503      -384.9731
   8   2.0000     -14.131219      -384.5300
   9   2.0000     -14.126473      -384.4009
  10   2.0000     -14.112753      -384.0275
  11   2.0000     -10.117970      -275.3240
  12   2.0000     -10.105462      -274.9836
  13   2.0000     -10.081322      -274.3267
  14   2.0000     -10.074434      -274.1393
  15   2.0000     -10.069095      -273.9940
  16   2.0000     -10.065014      -273.8829
  17   2.0000     -10.057847      -273.6879
  18   2.0000     -10.055422      -273.6219
  19   2.0000     -10.047058      -273.3943
  20   2.0000     -10.033047      -273.0131
  21   2.0000     -10.027767      -272.8694
  22   2.0000     -10.023439      -272.7516
  23   2.0000     -10.002716      -272.1877
  24   2.0000      -9.992683      -271.9147
  25   2.0000      -1.062090       -28.9009
  26   2.0000      -1.030869       -28.0514
  27   2.0000      -0.987495       -26.8711
  28   2.0000      -0.970414       -26.4063
  29   2.0000      -0.941005       -25.6061
  30   2.0000      -0.927344       -25.2343
  31   2.0000      -0.923039       -25.1172
  32   2.0000      -0.897245       -24.4153
  33   2.0000      -0.849178       -23.1073
  34   2.0000      -0.836937       -22.7742
  35   2.0000      -0.767379       -20.8815
  36   2.0000      -0.728244       -19.8165
  37   2.0000      -0.693124       -18.8609
  38   2.0000      -0.671707       -18.2781
  39   2.0000      -0.661294       -17.9947
  40   2.0000      -0.646442       -17.5906
  41   2.0000      -0.636056       -17.3080
  42   2.0000      -0.606258       -16.4971
  43   2.0000      -0.598121       -16.2757
  44   2.0000      -0.586364       -15.9558
  45   2.0000      -0.542634       -14.7658
  46   2.0000      -0.520879       -14.1738
  47   2.0000      -0.511015       -13.9054
  48   2.0000      -0.499733       -13.5984
  49   2.0000      -0.481217       -13.0946
  50   2.0000      -0.473358       -12.8807
  51   2.0000      -0.457807       -12.4576
  52   2.0000      -0.443324       -12.0635
  53   2.0000      -0.427083       -11.6215
  54   2.0000      -0.424964       -11.5639
  55   2.0000      -0.420263       -11.4359
  56   2.0000      -0.414445       -11.2776
  57   2.0000      -0.402365       -10.9489
  58   2.0000      -0.400507       -10.8983
  59   2.0000      -0.395342       -10.7578
  60   2.0000      -0.387295       -10.5388
  61   2.0000      -0.385530       -10.4908
  62   2.0000      -0.373069       -10.1517
  63   2.0000      -0.371061       -10.0971
  64   2.0000      -0.365919        -9.9572
  65   2.0000      -0.359647        -9.7865
  66   2.0000      -0.357379        -9.7248
  67   2.0000      -0.351259        -9.5582
  68   2.0000      -0.348366        -9.4795
  69   2.0000      -0.344857        -9.3840
  70   2.0000      -0.343612        -9.3501
  71   2.0000      -0.337499        -9.1838
  72   2.0000      -0.321510        -8.7487
  73   2.0000      -0.310317        -8.4442
  74   2.0000      -0.306675        -8.3450
  75   2.0000      -0.297597        -8.0980
  76   2.0000      -0.296467        -8.0673
  77   2.0000      -0.294797        -8.0218
  78   2.0000      -0.283219        -7.7068
  79   2.0000      -0.277858        -7.5609
  80   2.0000      -0.259145        -7.0517
  81   2.0000      -0.243503        -6.6260
  82   2.0000      -0.234159        -6.3718
  83   2.0000      -0.232879        -6.3370
  84   2.0000      -0.224280        -6.1030
  85   2.0000      -0.217189        -5.9100
  86   2.0000      -0.214209        -5.8289
  87   2.0000      -0.209581        -5.7030
  88   2.0000      -0.205625        -5.5953
  89   2.0000      -0.198390        -5.3985
  90   2.0000      -0.160487        -4.3671
  91   2.0000      -0.149465        -4.0671
  92   2.0000      -0.097006        -2.6397
  93   0.0000      -0.044712        -1.2167
  94   0.0000       0.002946         0.0802
  95   0.0000       0.021339         0.5807
  96   0.0000       0.051094         1.3903
  97   0.0000       0.053265         1.4494

MULLIKEN ATOMIC CHARGES
-----------------------
   0 C :   -0.325073
   1 O :   -0.196477
   2 C :    0.082530
   3 O :   -0.406922
   4 C :   -0.003689
   5 N :   -0.137052
   6 C :    0.237502
   7 C :    0.161355
   8 C :   -0.653579
   9 C :   -0.634609
  10 N :   -0.352493
  11 C :   -0.408644
  12 O :   -0.202822
  13 C :   -0.353206
  14 C :    0.131861
  15 N :   -0.278015
  16 N :   -0.356694
  17 C :    0.292746
  18 C :   -0.663670
  19 O :   -0.106677
  20 N :   -0.012739
  21 C :    0.002282
  22 O :   -0.401388
  23 C :   -0.125807
  24 O :   -0.370713
  25 H :    0.160566
  26 H :    0.160977
  27 H :    0.160357
  28 H :    0.189757
  29 H :    0.167366
  30 H :    0.171088
  31 H :    0.175392
  32 H :    0.179438
  33 H :    0.177399
  34 H :    0.280233
  35 H :    0.146346
  36 H :    0.151543
  37 H :    0.146339
  38 H :    0.173206
  39 H :    0.173714
  40 H :    0.186285
  41 H :    0.281989
Sum of atomic charges:   -2.0000000

LOEWDIN ATOMIC CHARGES
----------------------
   0 C :   -0.058286
   1 O :   -0.623520
   2 C :    0.384967
   3 O :   -0.475815
   4 C :    0.114106
   5 N :   -0.610961
   6 C :    0.313713
   7 C :    0.079086
   8 C :   -0.378906
   9 C :   -0.364085
  10 N :   -0.718519
  11 C :    0.201699
  12 O :   -0.711086
  13 C :   -0.084324
  14 C :    0.349887
  15 N :   -0.539002
  16 N :   -0.484660
  17 C :    0.297024
  18 C :   -0.342924
  19 O :   -0.456986
  20 N :   -0.494243
  21 C :    0.351149
  22 O :   -0.491887
  23 C :    0.225132
  24 O :   -0.579240
  25 H :    0.171408
  26 H :    0.175882
  27 H :    0.170935
  28 H :    0.173853
  29 H :    0.165082
  30 H :    0.161926
  31 H :    0.164873
  32 H :    0.171851
  33 H :    0.161651
  34 H :    0.275423
  35 H :    0.157299
  36 H :    0.168523
  37 H :    0.158184
  38 H :    0.171432
  39 H :    0.171261
  40 H :    0.178824
  41 H :    0.299271

  Mayer bond orders larger than 0.100000
B(  0-C ,  1-O ) :   0.8554 B(  0-C , 25-H ) :   0.9642 B(  0-C , 26-H ) :   0.9685
B(  0-C , 27-H ) :   0.9639 B(  1-O ,  2-C ) :   1.0488 B(  2-C ,  3-O ) :   1.9029
B(  2-C ,  4-C ) :   1.0840 B(  4-C ,  5-N ) :   0.9440 B(  4-C , 23-C ) :   1.0343
B(  4-C , 24-O ) :  -0.1414 B(  5-N ,  6-C ) :   1.8293 B(  6-C ,  7-C ) :   0.8847
B(  6-C , 10-N ) :  -0.1806 B(  6-C , 20-N ) :   1.0280 B(  7-C ,  8-C ) :   0.8612
B(  7-C ,  9-C ) :   0.9074 B(  7-C , 10-N ) :   0.9979 B(  8-C , 28-H ) :   0.9784
B(  8-C , 29-H ) :   0.9639 B(  8-C , 30-H ) :   0.9740 B(  9-C , 31-H ) :   0.9762
B(  9-C , 32-H ) :   0.9606 B(  9-C , 33-H ) :   0.9798 B( 10-N , 11-C ) :   0.8467
B( 10-N , 34-H ) :   0.8703 B( 11-C , 12-O ) :   1.1535 B( 11-C , 14-C ) :   1.2968
B( 12-O , 13-C ) :   0.8590 B( 13-C , 35-H ) :   0.9734 B( 13-C , 36-H ) :   0.9707
B( 13-C , 37-H ) :   0.9693 B( 14-C , 15-N ) :   1.4393 B( 14-C , 19-O ) :   1.0773
B( 15-N , 16-N ) :   1.2943 B( 16-N , 17-C ) :   1.7996 B( 17-C , 18-C ) :   0.8011
B( 17-C , 19-O ) :   0.9831 B( 18-C , 38-H ) :   0.9603 B( 18-C , 39-H ) :   0.9526
B( 18-C , 40-H ) :   1.0038 B( 20-N , 21-C ) :   1.0434 B( 20-N , 41-H ) :   0.8705
B( 21-C , 22-O ) :   2.0828 B( 21-C , 23-C ) :   0.8839 B( 23-C , 24-O ) :   1.9562

Dispersion correction           -0.019102725
FINAL SINGLE POINT ENERGY     -1268.823818680322

DIPOLE MOMENT
-------------
                                X             Y             Z
Electronic contribution:     13.85497       6.77809      -9.09931
Nuclear contribution   :    -17.97219      -9.32576      11.18150
                        -----------------------------------------
Total Dipole Moment    :     -4.11722      -2.54767       2.08219
                        -----------------------------------------
Magnitude (a.u.)       :      5.27045
Magnitude (Debye)      :     13.39641

Rotational constants in cm-1:     0.012081     0.003683     0.003178
Rotational constants in MHz :   362.185603   110.415061    95.277099

                             ****ORCA TERMINATED NORMALLY****
TOTAL RUN TIME: 0 days 0 hours 2 minutes 15 seconds 390 msec
