   * xtb version 6.5.1 (579679a) compiled by 'ehlert@majestix' on 2022-07-11
          program call               : /lustre/hpc/kemi/ree/PhD/git/ReactivityQM/dep/xtb-6.5.1/bin/xtb --gfn 1 /lustre/hpc/kemi/ree/PhD/git/ReactivityQM/calculations/R02methylcation/reac01prodE07/conf06/R02methylcation_reac01prodE07_conf06_gfn1.xyz --opt --vfukui --chrg -2 --uhf 0 --alpb DMSO

   ID    Z sym.   atoms
    1    6 C      1, 3, 5, 7-10, 12, 14, 15, 18, 19, 22, 24
    2    8 O      2, 4, 13, 20, 23, 25
    3    7 N      6, 11, 16, 17, 21
    4    1 H      26-42

      * Solvation model:               ALPB
        Solvent                        DMSO
        Solvent mass                       7.8130E+01 g/mol
          :  Hamiltonian                  GFN1-xTB          :
 * total energy  :   -83.5813927 Eh     change       -0.1967521E-08 Eh
 * total energy  :   -83.5948903 Eh     change       -0.1349768E-01 Eh
 * total energy  :   -83.6011850 Eh     change       -0.6294663E-02 Eh
 * total energy  :   -83.6028549 Eh     change       -0.1669951E-02 Eh
 * total energy  :   -83.6039307 Eh     change       -0.1075737E-02 Eh
 * total energy  :   -83.6044356 Eh     change       -0.5049361E-03 Eh
 * total energy  :   -83.6048744 Eh     change       -0.4388224E-03 Eh
 * total energy  :   -83.6052760 Eh     change       -0.4015565E-03 Eh
 * total energy  :   -83.6056424 Eh     change       -0.3664207E-03 Eh
 * total energy  :   -83.6059919 Eh     change       -0.3494670E-03 Eh
 * total energy  :   -83.6190522 Eh     change       -0.7081838E-05 Eh
 * total energy  :   -83.6190601 Eh     change       -0.7832050E-05 Eh
 * total energy  :   -83.6190694 Eh     change       -0.9281681E-05 Eh
 * total energy  :   -83.6190802 Eh     change       -0.1079570E-04 Eh
 * total energy  :   -83.6190917 Eh     change       -0.1158099E-04 Eh
 * total energy  :   -83.6191025 Eh     change       -0.1072537E-04 Eh
 * total energy  :   -83.6191120 Eh     change       -0.9500483E-05 Eh
 * total energy  :   -83.6191207 Eh     change       -0.8733215E-05 Eh
 * total energy  :   -83.6191251 Eh     change       -0.4412535E-05 Eh
   *** GEOMETRY OPTIMIZATION CONVERGED AFTER 122 ITERATIONS ***

 final structure:
================
42
 xtb: 6.5.1 (579679a)
C            5.31155199326616        0.71170028449464        2.61685476395942
O            4.33027104073536        0.45767143007930        1.62555530116146
C            4.67861065683897        0.81042751540092        0.34458263752695
O            5.77801418162380        1.30122437018267        0.12606870895769
C            3.62570037394959        0.53874559364397       -0.61391596708014
N            2.47738470958542       -0.02852698528759       -0.08532737683356
C            1.47288006660935       -0.28113669795565       -0.84051483066404
C            0.20516880026557       -0.91513141286364       -0.31013667481039
C            0.15540569496994       -0.77653559739131        1.21957637613851
C            0.18261330182919       -2.39806407009920       -0.71288721988584
N           -0.92941946609407       -0.23285549434437       -0.97159568372972
C           -2.22496568712248       -0.60894666498685       -0.41803755162957
O           -2.92147805330992       -1.60553760488637       -1.12280572394213
C           -3.56133932285580       -1.17746066820675       -2.31866866856058
C           -2.84908243137836        0.32153218025435        0.37562828280640
N           -2.22662728190547        1.36387112142735        0.97633433719079
N           -3.17552193048508        1.95423786387004        1.79047891898516
C           -4.26826776211650        1.29082284246446        1.66900744563375
C           -5.56329719521323        1.54434024525839        2.35680776799149
O           -4.16687549169255        0.23358188148212        0.79329566091246
N            1.49157479225188       -0.00093438184037       -2.19205101618853
C            2.55754969016284        0.54314066496144       -2.84861353439348
O            2.49178927760883        0.76000738220393       -4.06041389500424
C            3.76664865580954        0.84894099464946       -1.99245196999348
O            4.77546499940282        1.34372998865350       -2.53445099987521
H            5.56038247536516        1.77763569682498        2.65704721105365
H            4.89227709297971        0.39827119170738        3.57233103042135
H            6.22708653064880        0.14585674672485        2.41498239189506
H            0.02883627258787        0.27151974943072        1.49613486155605
H            1.08200451754232       -1.15077203590784        1.65502788411520
H           -0.68221749654261       -1.34772597823192        1.61873283692531
H            0.24082403334934       -2.48855331651298       -1.79749668848828
H           -0.74531949988947       -2.86002241407340       -0.37631889226952
H            1.02493264794402       -2.92671341787428       -0.26713184756800
H           -0.81585898662123        0.77171481502232       -0.80582945439446
H           -2.83386802934840       -0.77849933855173       -3.03892022853656
H           -4.05529389505578       -2.04779565130460       -2.75720639074519
H           -4.31481531976320       -0.40472807825082       -2.11380044899789
H           -5.88367528111481        0.66300115447991        2.91451077141587
H           -6.34548198887862        1.78705620897193        1.63560517629315
H           -5.44692704585893        2.37851958918022        3.04607394192189
H            0.65336335993580       -0.18761170279576       -2.72605924327531

          :  Hamiltonian                  GFN1-xTB          :
         :: total energy             -83.619125107269 Eh    ::
         :: gradient norm              0.000203867118 Eh/a0 ::
         :: HOMO-LUMO gap              0.580282333115 eV    ::
         :: SCC energy               -84.351257776754 Eh    ::
         :: -> Gsolv                  -0.260142424539 Eh    ::
         :: repulsion energy           0.757991069660 Eh    ::

    * Orbital Energies and Occupations

         #    Occupation            Energy/Eh            Energy/eV
      -------------------------------------------------------------
         1        2.0000           -0.7902306             -21.5033
       ...           ...                  ...                  ...
        56        2.0000           -0.4428188             -12.0497
        57        2.0000           -0.4290726             -11.6757
        58        2.0000           -0.4252452             -11.5715
        59        2.0000           -0.4156678             -11.3109
        60        2.0000           -0.4116860             -11.2025
        61        2.0000           -0.4011089             -10.9147
        62        2.0000           -0.3924805             -10.6799
        63        2.0000           -0.3862121             -10.5094
        64        2.0000           -0.3716551             -10.1133
        65        2.0000           -0.3662644              -9.9666
        66        2.0000           -0.3647549              -9.9255
        67        2.0000           -0.3533063              -9.6140
        68        2.0000           -0.2815404              -7.6611 (HOMO)
        69        0.0000           -0.2602154              -7.0808 (LUMO)
        70                         -0.2219634              -6.0399
        71                         -0.1866836              -5.0799
        72                         -0.1818025              -4.9471
        73                         -0.1389084              -3.7799
        74                         -0.1195443              -3.2530
        75                         -0.1134235              -3.0864
        76                         -0.1033019              -2.8110
        77                         -0.1002449              -2.7278
        78                         -0.0957825              -2.6064
        79                         -0.0891940              -2.4271
       ...                                ...                  ...
       134                          0.7687659              20.9192
      -------------------------------------------------------------
                  HL-Gap            0.0213250 Eh            0.5803 eV

Wiberg/Mayer (AO) data.
largest (>0.10) Wiberg bond orders for each atom

     #   Z sym  total        # sym  WBO       # sym  WBO       # sym  WBO
 ---------------------------------------------------------------------------
     1   6 C    3.904 --    27 H    0.987    28 H    0.980    26 H    0.980
                             2 O    0.932
     2   8 O    2.132 --     3 C    1.015     1 C    0.932     4 O    0.106
     3   6 C    3.848 --     4 O    1.581     5 C    1.132     2 O    1.015
     4   8 O    1.859 --     3 C    1.581     2 O    0.106
     5   6 C    3.919 --    24 C    1.273     6 N    1.146     3 C    1.132
                            25 O    0.129
     6   7 N    3.022 --     7 C    1.632     5 C    1.146
     7   6 C    3.926 --     6 N    1.632    21 N    1.093     8 C    0.981
     8   6 C    3.972 --     9 C    0.990    10 C    0.983     7 C    0.981
                            11 N    0.958
     9   6 C    3.997 --     8 C    0.990    31 H    0.986    30 H    0.985
                            29 H    0.982
    10   6 C    3.994 --    34 H    0.989    32 H    0.985     8 C    0.983
                            33 H    0.982
    11   7 N    3.028 --     8 C    0.958    12 C    0.948    35 H    0.944
    12   6 C    3.678 --    15 C    1.462    11 N    0.948    13 O    0.928
                            16 N    0.149
    13   8 O    2.000 --    14 C    0.946    12 C    0.928
    14   6 C    3.938 --    37 H    0.986    36 H    0.982    38 H    0.982
                            13 O    0.946
    15   6 C    3.866 --    12 C    1.462    16 N    1.292    20 O    0.967
    16   7 N    2.838 --    15 C    1.292    17 N    1.145    12 C    0.149
                            18 C    0.114
    17   7 N    2.987 --    18 C    1.679    16 N    1.145
    18   6 C    3.885 --    17 N    1.679    19 C    1.018    20 O    0.996
                            16 N    0.114
    19   6 C    3.996 --    18 C    1.018    41 H    0.987    39 H    0.976
                            40 H    0.975
    20   8 O    2.182 --    18 C    0.996    15 C    0.967
    21   7 N    3.439 --    22 C    1.180     7 C    1.093    42 H    0.895
                            23 O    0.136
    22   6 C    3.883 --    23 O    1.559    21 N    1.180    24 C    0.971
    23   8 O    1.838 --    22 C    1.559    21 N    0.136
    24   6 C    3.943 --    25 O    1.510     5 C    1.273    22 C    0.971
    25   8 O    1.813 --    24 C    1.510     5 C    0.129
    26   1 H    1.015 --     1 C    0.980
    27   1 H    1.017 --     1 C    0.987
    28   1 H    1.015 --     1 C    0.980
    29   1 H    1.030 --     9 C    0.982
    30   1 H    1.020 --     9 C    0.985
    31   1 H    1.018 --     9 C    0.986
    32   1 H    1.011 --    10 C    0.985
    33   1 H    1.016 --    10 C    0.982
    34   1 H    1.007 --    10 C    0.989
    35   1 H    0.994 --    11 N    0.944
    36   1 H    1.021 --    14 C    0.982
    37   1 H    1.022 --    14 C    0.986
    38   1 H    1.020 --    14 C    0.982
    39   1 H    1.007 --    19 C    0.976
    40   1 H    1.007 --    19 C    0.975
    41   1 H    1.008 --    19 C    0.987
    42   1 H    0.968 --    21 N    0.895
 ---------------------------------------------------------------------------

           -------------------------------------------------
          | TOTAL ENERGY              -83.619125107269 Eh   |
          | GRADIENT NORM               0.000203867118 Eh/α |
          | HOMO-LUMO GAP               0.580282333115 eV   |
           -------------------------------------------------

 * finished run on 2023/06/21 at 17:16:16.599
