   * xtb version 6.5.1 (579679a) compiled by 'ehlert@majestix' on 2022-07-11
          program call               : /lustre/hpc/kemi/ree/PhD/git/ReactivityQM/dep/xtb-6.5.1/bin/xtb --gfn 1 /lustre/hpc/kemi/ree/PhD/git/ReactivityQM/calculations/R01/reac02prodN11/conf04/R01_reac02prodN11_conf04_gfn1.xyz --opt --vfukui --chrg 1 --uhf 0 --alpb DMSO

   ID    Z sym.   atoms
    1    6 C      1, 3, 5, 6, 8, 11-15
    2    8 O      2, 4, 7, 9
    3    7 N      10, 16, 17
    4    1 H      18-33

      * Solvation model:               ALPB
        Solvent                        DMSO
        Solvent mass                       7.8130E+01 g/mol
          :  Hamiltonian                  GFN1-xTB          :
 * total energy  :   -57.7920681 Eh     change       -0.4922640E-10 Eh
 * total energy  :   -57.8048821 Eh     change       -0.1281403E-01 Eh
 * total energy  :   -57.8093524 Eh     change       -0.4470272E-02 Eh
 * total energy  :   -57.8102295 Eh     change       -0.8771312E-03 Eh
 * total energy  :   -57.8106840 Eh     change       -0.4544731E-03 Eh
 * total energy  :   -57.8108402 Eh     change       -0.1561837E-03 Eh
 * total energy  :   -57.8109433 Eh     change       -0.1030851E-03 Eh
 * total energy  :   -57.8110198 Eh     change       -0.7649502E-04 Eh
 * total energy  :   -57.8110767 Eh     change       -0.5695380E-04 Eh
 * total energy  :   -57.8111223 Eh     change       -0.4554391E-04 Eh
 * total energy  :   -57.8679512 Eh     change       -0.5061236E-04 Eh
 * total energy  :   -57.8679675 Eh     change       -0.1629820E-04 Eh
 * total energy  :   -57.8679913 Eh     change       -0.2379517E-04 Eh
 * total energy  :   -57.8680019 Eh     change       -0.1063198E-04 Eh
 * total energy  :   -57.8680052 Eh     change       -0.3358051E-05 Eh
 * total energy  :   -57.8680112 Eh     change       -0.5988451E-05 Eh
 * total energy  :   -57.8680092 Eh     change        0.2043416E-05 Eh
 * total energy  :   -57.8680147 Eh     change       -0.5557846E-05 Eh
 * total energy  :   -57.8680162 Eh     change       -0.1421558E-05 Eh
   *** GEOMETRY OPTIMIZATION CONVERGED AFTER 114 ITERATIONS ***

 final structure:
================
33
 xtb: 6.5.1 (579679a)
C            4.45713006820292        0.79272798523723        1.35061743129869
O            3.12831571824708        0.49527609741056        0.90004521746964
C            2.98079033629671       -0.57691074020775        0.14069648069222
O            3.90116396849723       -1.30143591598617       -0.19197488615849
C            1.58284032757802       -0.82305929709517       -0.28770411793070
C            1.26674591909859       -1.87411683194264       -1.10927267521919
O            2.14888399060588       -2.74805011254408       -1.58142457729594
C           -0.12308609507645       -2.08311878721279       -1.51705519945661
O           -0.50842378000201       -2.99457999699207       -2.22531226303838
N           -1.01982028072332       -1.11760801003166       -1.02837804574587
C           -2.39868165688672       -1.30423219631912       -1.47781759523995
C           -0.61936383035704       -0.12323318110593       -0.17215487428973
C           -1.54404884108734        0.94242455157604        0.40673469384723
C           -1.93129954946000        1.99678898204991       -0.63115287261787
C           -0.85414371151204        1.61257416331078        1.59866761615340
N           -2.81201552661641        0.33810085148399        0.96728329401557
N            0.61612631391085        0.02402357918592        0.17380767044313
H            4.78121005741751        0.03538284887582        2.06801819426744
H            4.40986474798817        1.77053760103345        1.82583045926437
H            5.14461597085811        0.81037530487479        0.50166241167597
H            3.05413965473287       -2.53059240705395       -1.25546393536515
H           -2.60943851178718       -0.46603309257918        1.55256625921255
H           -2.96237360007023       -1.84731426382247       -0.72144502094588
H           -2.86023033507315       -0.34601360192609       -1.68553981387849
H           -2.37586487326309       -1.89477028550572       -2.39461600009468
H           -2.53573785283818        2.76964904465339       -0.15983670865865
H           -1.02231104573709        2.45023290150487       -1.02478901818745
H           -2.49436861350375        1.56831614317729       -1.45630862065205
H            0.04695687128675        2.11939899163016        1.25752331359951
H           -0.57586663271501        0.86851823273133        2.34262669487329
H           -1.52298369224919        2.34309499704910        2.04951062910144
H           -3.28236327729540        1.03117630074377        1.54117027046466
H           -3.46636023846217        0.06246914379240        0.24348358840241

          :  Hamiltonian                  GFN1-xTB          :
         :: total energy             -57.868016166880 Eh    ::
         :: gradient norm              0.000896309840 Eh/a0 ::
         :: HOMO-LUMO gap              2.862947692563 eV    ::
         :: SCC energy               -58.444148635463 Eh    ::
         :: -> Gsolv                  -0.133308077771 Eh    ::
         :: repulsion energy           0.595477210876 Eh    ::

    * Orbital Energies and Occupations

         #    Occupation            Energy/Eh            Energy/eV
      -------------------------------------------------------------
         1        2.0000           -0.8978043             -24.4305
       ...           ...                  ...                  ...
        35        2.0000           -0.5536514             -15.0656
        36        2.0000           -0.5485654             -14.9272
        37        2.0000           -0.5460463             -14.8587
        38        2.0000           -0.5450949             -14.8328
        39        2.0000           -0.5343356             -14.5400
        40        2.0000           -0.5284585             -14.3801
        41        2.0000           -0.5216962             -14.1961
        42        2.0000           -0.5068218             -13.7913
        43        2.0000           -0.5003779             -13.6160
        44        2.0000           -0.4918917             -13.3851
        45        2.0000           -0.4782733             -13.0145
        46        2.0000           -0.4603471             -12.5267
        47        2.0000           -0.4442393             -12.0884 (HOMO)
        48                         -0.3390279              -9.2254 (LUMO)
        49                         -0.3066594              -8.3446
        50                         -0.2551230              -6.9422
        51                         -0.2083503              -5.6695
        52                         -0.1757104              -4.7813
        53                         -0.1718049              -4.6750
        54                         -0.1597710              -4.3476
        55                         -0.1463777              -3.9831
        56                         -0.1423794              -3.8743
        57                         -0.1365637              -3.7161
        58                         -0.1191810              -3.2431
       ...                                ...                  ...
       100                          0.7131415              19.4056
      -------------------------------------------------------------
                  HL-Gap            0.1052114 Eh            2.8629 eV

Wiberg/Mayer (AO) data.
largest (>0.10) Wiberg bond orders for each atom

     #   Z sym  total        # sym  WBO       # sym  WBO       # sym  WBO
 ---------------------------------------------------------------------------
     1   6 C    3.861 --    19 H    0.986    20 H    0.979    18 H    0.978
                             2 O    0.887
     2   8 O    2.220 --     3 C    1.143     1 C    0.887     4 O    0.132
     3   6 C    3.852 --     4 O    1.612     2 O    1.143     5 C    1.014
     4   8 O    1.948 --     3 C    1.612     2 O    0.132
     5   6 C    3.961 --     6 C    1.476    17 N    1.183     3 C    1.014
     6   6 C    3.923 --     5 C    1.476     7 O    1.140     8 C    1.060
     7   8 O    2.107 --     6 C    1.140    21 H    0.772
     8   6 C    3.908 --     9 O    1.610    10 N    1.090     6 C    1.060
     9   8 O    1.928 --     8 C    1.610    10 N    0.137
    10   7 N    3.492 --    12 C    1.172     8 C    1.090    11 C    0.932
                             9 O    0.137
    11   6 C    3.920 --    24 H    0.974    23 H    0.973    25 H    0.966
                            10 N    0.932
    12   6 C    3.942 --    17 N    1.580    10 N    1.172    13 C    0.979
    13   6 C    3.884 --    15 C    0.999    14 C    0.991    12 C    0.979
                            16 N    0.874
    14   6 C    3.981 --    13 C    0.991    26 H    0.979    27 H    0.976
                            28 H    0.974
    15   6 C    3.981 --    13 C    0.999    30 H    0.981    31 H    0.981
                            29 H    0.976
    16   7 N    3.564 --    22 H    0.886    33 H    0.886    32 H    0.884
                            13 C    0.874
    17   7 N    3.039 --    12 C    1.580     5 C    1.183
    18   1 H    1.004 --     1 C    0.978
    19   1 H    1.009 --     1 C    0.986
    20   1 H    1.006 --     1 C    0.979
    21   1 H    0.846 --     7 O    0.772
    22   1 H    0.905 --    16 N    0.886
    23   1 H    0.996 --    11 C    0.973
    24   1 H    1.001 --    11 C    0.974
    25   1 H    1.002 --    11 C    0.966
    26   1 H    0.992 --    14 C    0.979
    27   1 H    0.995 --    14 C    0.976
    28   1 H    0.998 --    14 C    0.974
    29   1 H    1.009 --    15 C    0.976
    30   1 H    1.001 --    15 C    0.981
    31   1 H    0.994 --    15 C    0.981
    32   1 H    0.904 --    16 N    0.884
    33   1 H    0.920 --    16 N    0.886
 ---------------------------------------------------------------------------

           -------------------------------------------------
          | TOTAL ENERGY              -57.868016166880 Eh   |
          | GRADIENT NORM               0.000896309840 Eh/α |
          | HOMO-LUMO GAP               2.862947692563 eV   |
           -------------------------------------------------

 * finished run on 2023/06/20 at 15:11:40.788
