   * xtb version 6.5.1 (579679a) compiled by 'ehlert@majestix' on 2022-07-11
          program call               : /lustre/hpc/kemi/ree/PhD/git/ReactivityQM/dep/xtb-6.5.1/bin/xtb --gfn 1 /lustre/hpc/kemi/ree/PhD/git/ReactivityQM/calculations/RaltegravirCLI/reac02prodN11/conf19/RaltegravirCLI_reac02prodN11_conf19_gfn1.xyz --opt --vfukui --chrg 1 --uhf 0 --alpb DMSO

   ID    Z sym.   atoms
    1    6 C      1, 3-6, 9, 10, 13-18, 20-22, 24
    2    7 N      2, 7, 8, 12
    3    8 O      11, 23, 25
    4    9 F      19
    5    1 H      26-47

      * Solvation model:               ALPB
        Solvent                        DMSO
        Solvent mass                       7.8130E+01 g/mol
          :  Hamiltonian                  GFN1-xTB          :
 * total energy  :   -79.4548015 Eh     change       -0.6340883E-10 Eh
 * total energy  :   -79.4626679 Eh     change       -0.7866352E-02 Eh
 * total energy  :   -79.4650249 Eh     change       -0.2357097E-02 Eh
 * total energy  :   -79.4657354 Eh     change       -0.7104919E-03 Eh
 * total energy  :   -79.4665832 Eh     change       -0.8477304E-03 Eh
 * total energy  :   -79.4672655 Eh     change       -0.6823155E-03 Eh
 * total energy  :   -79.4678809 Eh     change       -0.6154064E-03 Eh
 * total energy  :   -79.4683662 Eh     change       -0.4852780E-03 Eh
 * total energy  :   -79.4687814 Eh     change       -0.4152297E-03 Eh
 * total energy  :   -79.4692234 Eh     change       -0.4420393E-03 Eh
 * total energy  :   -79.4746240 Eh     change       -0.6146780E-05 Eh
 * total energy  :   -79.4746306 Eh     change       -0.6549410E-05 Eh
 * total energy  :   -79.4746371 Eh     change       -0.6497873E-05 Eh
 * total energy  :   -79.4746429 Eh     change       -0.5805835E-05 Eh
 * total energy  :   -79.4746480 Eh     change       -0.5096365E-05 Eh
 * total energy  :   -79.4746531 Eh     change       -0.5078953E-05 Eh
 * total energy  :   -79.4746583 Eh     change       -0.5266257E-05 Eh
 * total energy  :   -79.4746647 Eh     change       -0.6386095E-05 Eh
 * total energy  :   -79.4746671 Eh     change       -0.2415627E-05 Eh
   *** GEOMETRY OPTIMIZATION CONVERGED AFTER 68 ITERATIONS ***

 final structure:
================
47
 xtb: 6.5.1 (579679a)
C           -4.20858212604458        2.30486747004897       -1.16847082312797
N           -3.08200627395644        1.42900452976447       -0.83239002750187
C           -3.21063934217805        0.27585210775829       -0.10229301841825
C           -4.54928466274915       -0.18425718806143        0.46156256936614
C           -4.82873794921889        0.56651907270011        1.77136166251862
C           -4.47920913609158       -1.69617819971730        0.74438064080853
N           -5.61982972910706        0.07136015001036       -0.48682670395226
N           -2.19007237633250       -0.47065021960675        0.18989307443342
C           -0.93747185303490       -0.16784543603733       -0.25268730794573
C            0.14545531347790       -1.10307727830670        0.18145559671441
O            0.09450732734620       -1.76007889264771        1.20690743248393
N            1.20904819654482       -1.16149238226082       -0.66253676992370
C            2.35219327875372       -1.97837586897649       -0.33506933999025
C            3.60861740127706       -1.19397298408928       -0.23358373018182
C            4.84998319471280       -1.88073670588918       -0.26131506361534
C            6.02377179781728       -1.20507890845928       -0.17061201481277
C            6.02955862698610        0.23969733920517        0.14679759610970
C            6.30040863948704        0.34629173507902        1.68207902321843
F            7.07175838744243        0.88624905629590       -0.45817477912605
C            4.74339841940456        0.93149230173414       -0.08858249907498
C            3.58918919557133        0.22122937241190       -0.18055008882025
C           -0.74112818917068        0.95524988755231       -1.00019169962875
O            0.46318293860859        1.34927489122768       -1.46716813272296
C           -1.85306138226851        1.82553494517046       -1.33003537117828
O           -1.69816463696620        2.84129830980768       -2.00183423345997
H           -4.75815033647831        1.88347209077745       -2.00870639282861
H           -4.87220728254751        2.40806529688708       -0.31623813919073
H           -3.80678064629052        3.27962795691674       -1.44428442750522
H           -5.75075644606970        0.19394154581811        2.21529346404120
H           -4.93386234336980        1.63559751617045        1.59615748668044
H           -4.00919690564176        0.40438869543270        2.47045316069659
H           -3.73090745148361       -1.90060921572924        1.50876916188203
H           -4.21026984232074       -2.23337299503393       -0.16346618631572
H           -5.45112658906972       -2.04362563042123        1.08954548431753
H           -5.55848546082255       -0.54993686183484       -1.28034448178759
H           -6.52244085294879       -0.03289268256757       -0.04855417102464
H            1.22730490393217       -0.64413538848952       -1.52411981899369
H            2.14688273523356       -2.45187922628356        0.63820986524757
H            2.47271559845460       -2.78875847533046       -1.06301343048685
H            4.84701389213697       -2.95433018697433       -0.41140530962822
H            6.98210485958075       -1.70502607187975       -0.24126053950988
H            5.50592158776522       -0.13324953894121        2.24635936764915
H            7.25199895540900       -0.13709713734069        1.89083562266154
H            6.35898664227406        1.40116817655054        1.94011169163182
H            4.75399386337405        2.01465815529906       -0.09431180597110
H            2.63612716328779        0.73165317332473       -0.27009167492301
H            0.33824789528228        2.18016469893900       -1.96720291881494

          :  Hamiltonian                  GFN1-xTB          :
         :: total energy             -79.474667131729 Eh    ::
         :: gradient norm              0.000180737731 Eh/a0 ::
         :: HOMO-LUMO gap              0.139971189028 eV    ::
         :: SCC energy               -80.356405670756 Eh    ::
         :: -> Gsolv                  -0.105102273493 Eh    ::
         :: repulsion energy           0.911581561703 Eh    ::

    * Orbital Energies and Occupations

         #    Occupation            Energy/Eh            Energy/eV
      -------------------------------------------------------------
         1        2.0000           -0.8939763             -24.3263
       ...           ...                  ...                  ...
        55        2.0000           -0.5192229             -14.1288
        56        2.0000           -0.5178077             -14.0903
        57        2.0000           -0.5120950             -13.9348
        58        2.0000           -0.5090934             -13.8531
        59        2.0000           -0.5037486             -13.7077
        60        2.0000           -0.4956988             -13.4887
        61        2.0000           -0.4829794             -13.1425
        62        2.0000           -0.4763584             -12.9624
        63        2.0000           -0.4650698             -12.6552
        64        2.0000           -0.4620137             -12.5720
        65        2.0000           -0.4476541             -12.1813
        66        1.9997           -0.4321459             -11.7593
        67        1.8750           -0.4262945             -11.6001 (HOMO)
        68        0.1252           -0.4211507             -11.4601 (LUMO)
        69                         -0.3251753              -8.8485
        70                         -0.3222737              -8.7695
        71                         -0.2855347              -7.7698
        72                         -0.2518378              -6.8529
        73                         -0.2455884              -6.6828
        74                         -0.1654090              -4.5010
        75                         -0.1576485              -4.2898
        76                         -0.1547147              -4.2100
        77                         -0.1413312              -3.8458
        78                         -0.1378079              -3.7499
       ...                                ...                  ...
       144                          0.7051445              19.1880
      -------------------------------------------------------------
                  HL-Gap            0.0051438 Eh            0.1400 eV

Wiberg/Mayer (AO) data.
largest (>0.10) Wiberg bond orders for each atom

     #   Z sym  total        # sym  WBO       # sym  WBO       # sym  WBO
 ---------------------------------------------------------------------------
     1   6 C    3.914 --    27 H    0.977    28 H    0.974    26 H    0.974
                             2 N    0.925
     2   7 N    3.517 --     3 C    1.182    24 C    1.131     1 C    0.925
                            25 O    0.133
     3   6 C    3.918 --     8 N    1.553     2 N    1.182     4 C    0.975
     4   6 C    3.951 --     7 N    0.984     5 C    0.981     6 C    0.977
                             3 C    0.975
     5   6 C    3.991 --    31 H    0.985    29 H    0.982     4 C    0.981
                            30 H    0.979
     6   6 C    3.972 --    34 H    0.985    33 H    0.985    32 H    0.980
                             4 C    0.977
     7   7 N    2.934 --     4 C    0.984    35 H    0.930    36 H    0.926
     8   7 N    3.024 --     3 C    1.553     9 C    1.204
     9   6 C    3.963 --    22 C    1.505     8 N    1.204    10 C    0.989
    10   6 C    3.896 --    11 O    1.608    12 N    1.217     9 C    0.989
    11   8 O    1.905 --    10 C    1.608    12 N    0.159
    12   7 N    3.324 --    10 C    1.217    13 C    0.969    37 H    0.885
                            11 O    0.159
    13   6 C    3.954 --    14 C    1.061    12 N    0.969    39 H    0.933
                            38 H    0.902
    14   6 C    3.856 --    21 C    1.280    15 C    1.272    13 C    1.061
    15   6 C    3.987 --    16 C    1.649    14 C    1.272    40 H    0.961
    16   6 C    3.894 --    15 C    1.649    17 C    1.038    41 H    0.961
    17   6 C    3.883 --    20 C    1.038    16 C    1.038    19 F    0.898
                            18 C    0.858
    18   6 C    3.939 --    42 H    0.983    44 H    0.975    43 H    0.975
                            17 C    0.858
    19   9 F    1.006 --    17 C    0.898
    20   6 C    3.890 --    21 C    1.638    17 C    1.038    45 H    0.961
    21   6 C    3.985 --    20 C    1.638    14 C    1.280    46 H    0.955
    22   6 C    3.910 --     9 C    1.505    24 C    1.089    23 O    1.069
    23   8 O    2.062 --    22 C    1.069    47 H    0.797
    24   6 C    3.916 --    25 O    1.548     2 N    1.131    22 C    1.089
    25   8 O    1.894 --    24 C    1.548     2 N    0.133
    26   1 H    1.012 --     1 C    0.974
    27   1 H    1.017 --     1 C    0.977
    28   1 H    1.006 --     1 C    0.974
    29   1 H    0.998 --     5 C    0.982
    30   1 H    1.002 --     5 C    0.979
    31   1 H    1.002 --     5 C    0.985
    32   1 H    1.010 --     6 C    0.980
    33   1 H    1.006 --     6 C    0.985
    34   1 H    1.002 --     6 C    0.985
    35   1 H    0.946 --     7 N    0.930
    36   1 H    0.942 --     7 N    0.926
    37   1 H    0.934 --    12 N    0.885
    38   1 H    0.993 --    13 C    0.902
    39   1 H    0.987 --    13 C    0.933
    40   1 H    0.989 --    15 C    0.961
    41   1 H    0.988 --    16 C    0.961
    42   1 H    0.995 --    18 C    0.983
    43   1 H    0.993 --    18 C    0.975
    44   1 H    0.993 --    18 C    0.975
    45   1 H    0.989 --    20 C    0.961
    46   1 H    1.006 --    21 C    0.955
    47   1 H    0.840 --    23 O    0.797
 ---------------------------------------------------------------------------

           -------------------------------------------------
          | TOTAL ENERGY              -79.474667131729 Eh   |
          | GRADIENT NORM               0.000180737731 Eh/α |
          | HOMO-LUMO GAP               0.139971189028 eV   |
           -------------------------------------------------

 * finished run on 2023/06/20 at 15:31:41.070
