   * xtb version 6.5.1 (579679a) compiled by 'ehlert@majestix' on 2022-07-11
          program call               : /lustre/hpc/kemi/ree/PhD/git/ReactivityQM/dep/xtb-6.5.1/bin/xtb --gfn 1 /lustre/hpc/kemi/ree/PhD/git/ReactivityQM/calculations/R02/reac01prodN06/conf10/R02_reac01prodN06_conf10_gfn1.xyz --opt --vfukui --chrg 1 --uhf 0 --alpb DMSO

   ID    Z sym.   atoms
    1    6 C      1, 3, 5, 7-10, 12, 14, 16, 17, 20, 22, 24
    2    8 O      2, 4, 13, 15, 23, 25
    3    7 N      6, 11, 18, 19, 21
    4    1 H      26-43

      * Solvation model:               ALPB
        Solvent                        DMSO
        Solvent mass                       7.8130E+01 g/mol
          :  Hamiltonian                  GFN1-xTB          :
 * total energy  :   -83.1571426 Eh     change       -0.6748735E-10 Eh
 * total energy  :   -83.1747790 Eh     change       -0.1763640E-01 Eh
 * total energy  :   -83.1812088 Eh     change       -0.6429768E-02 Eh
 * total energy  :   -83.1826192 Eh     change       -0.1410435E-02 Eh
 * total energy  :   -83.1838742 Eh     change       -0.1254978E-02 Eh
 * total energy  :   -83.1843980 Eh     change       -0.5238065E-03 Eh
 * total energy  :   -83.1848519 Eh     change       -0.4538689E-03 Eh
 * total energy  :   -83.1852667 Eh     change       -0.4148425E-03 Eh
 * total energy  :   -83.1854694 Eh     change       -0.2026912E-03 Eh
 * total energy  :   -83.1855540 Eh     change       -0.8462951E-04 Eh
 * total energy  :   -83.1860866 Eh     change       -0.8260212E-05 Eh
 * total energy  :   -83.1860979 Eh     change       -0.1135464E-04 Eh
 * total energy  :   -83.1861074 Eh     change       -0.9458143E-05 Eh
 * total energy  :   -83.1861252 Eh     change       -0.1780562E-04 Eh
 * total energy  :   -83.1861367 Eh     change       -0.1149502E-04 Eh
 * total energy  :   -83.1861472 Eh     change       -0.1053968E-04 Eh
 * total energy  :   -83.1861628 Eh     change       -0.1559394E-04 Eh
 * total energy  :   -83.1861729 Eh     change       -0.1013296E-04 Eh
 * total energy  :   -83.1861766 Eh     change       -0.3678638E-05 Eh
   *** GEOMETRY OPTIMIZATION CONVERGED AFTER 30 ITERATIONS ***

 final structure:
================
43
 xtb: 6.5.1 (579679a)
C            5.81264153740706        1.83343765416623        1.70001538733501
O            4.66197041069791        1.16170180043162        1.17700697641478
C            4.81650458190419        0.54806225667419        0.00293263493882
O            5.85740124166571        0.54432741685686       -0.61046234280242
C            3.56102230644373       -0.12465296605513       -0.44478546246711
N            2.46843591871546        0.02569238227601        0.37714017336173
C            1.34920594953346       -0.52600984674914        0.06741033792598
C            0.17130719510107       -0.40409159711680        1.00838803609249
C            0.36859212050493        0.78299598689980        1.95405810061597
C            0.03206962053890       -1.72531053233578        1.77812078801768
N           -1.03516599651544       -0.17838047952398        0.18730293049752
C           -2.26113092681450       -0.10315508162162        0.71126305145567
O           -2.58228355569426       -0.23202810781409        1.87458967923707
C           -3.30776034864653        0.16334542459168       -0.33620042828445
O           -3.02697985731600        0.31284896367501       -1.62195702889069
C           -4.20452694663116        0.50722084349387       -2.24133179364019
C           -4.26692272948982        0.71597711695598       -3.69684213132335
N           -5.18711524853512        0.48307996395545       -1.38773904559167
N           -4.60871929738135        0.26400173835735       -0.19404422276479
C           -5.43684735588772        0.19448455544208        0.99247044452514
N            1.19331800416160       -1.29245325748603       -1.05560517389772
C            2.21030079366469       -1.50701098585859       -1.95894189026011
O            2.06700739493293       -2.18292710678631       -2.96418827040038
C            3.47051080615939       -0.85866168028446       -1.59682818678706
O            4.48275768468059       -1.04574694012399       -2.44525938632682
H            5.50436284094174        2.29288217073416        2.63686824293025
H            6.15411118470351        2.59665670155745        0.99638360743884
H            6.61803891771672        1.11573222032209        1.87546919707880
H            1.29678653326968        0.64724189480567        2.50756794563129
H            0.43073279721101        1.70614033514410        1.38037168227618
H           -0.46223674470114        0.84735739429896        2.65322239388618
H            0.96671136951840       -1.93495895409751        2.29637267072055
H           -0.77105413361009       -1.65622715518508        2.50831688891659
H           -0.18293719990714       -2.53653996350957        1.08587658637493
H           -0.92297799509236        0.00874879386381       -0.79503548114557
H           -5.30207636594035        0.69025904897891       -4.03101917015405
H           -3.68453709373883       -0.05420172606688       -4.20323027457199
H           -3.82649364620882        1.68386838729627       -3.94444565674211
H           -6.34776556213682       -0.34259782431558        0.73665924968047
H           -4.88419294698478       -0.31531414261231        1.77769166505216
H           -5.67951482991913        1.21126407849663        1.30168926007877
H            0.30883686063699       -1.72484141320122       -1.26317870100549
H            4.17861171103721       -1.59221236853103       -3.19194228342568

          :  Hamiltonian                  GFN1-xTB          :
         :: total energy             -83.186176616111 Eh    ::
         :: gradient norm              0.000876375043 Eh/a0 ::
         :: HOMO-LUMO gap              1.723960865789 eV    ::
         :: SCC energy               -83.997333856142 Eh    ::
         :: -> Gsolv                  -0.126069741313 Eh    ::
         :: repulsion energy           0.836713378841 Eh    ::

    * Orbital Energies and Occupations

         #    Occupation            Energy/Eh            Energy/eV
      -------------------------------------------------------------
         1        2.0000           -0.9384800             -25.5373
       ...           ...                  ...                  ...
        55        2.0000           -0.5293583             -14.4046
        56        2.0000           -0.5224122             -14.2156
        57        2.0000           -0.5187280             -14.1153
        58        2.0000           -0.5174106             -14.0795
        59        2.0000           -0.5169198             -14.0661
        60        2.0000           -0.5015935             -13.6491
        61        2.0000           -0.5012948             -13.6409
        62        2.0000           -0.4956779             -13.4881
        63        2.0000           -0.4908032             -13.3554
        64        2.0000           -0.4865442             -13.2395
        65        2.0000           -0.4701378             -12.7931
        66        2.0000           -0.4575253             -12.4499
        67        2.0000           -0.4403349             -11.9821 (HOMO)
        68                         -0.3769805             -10.2582 (LUMO)
        69                         -0.3314632              -9.0196
        70                         -0.3237483              -8.8096
        71                         -0.2950227              -8.0280
        72                         -0.2576976              -7.0123
        73                         -0.2465312              -6.7085
        74                         -0.1706992              -4.6450
        75                         -0.1663677              -4.5271
        76                         -0.1660858              -4.5194
        77                         -0.1441163              -3.9216
        78                         -0.1400532              -3.8110
       ...                                ...                  ...
       136                          0.7388795              20.1059
      -------------------------------------------------------------
                  HL-Gap            0.0633544 Eh            1.7240 eV

Wiberg/Mayer (AO) data.
largest (>0.10) Wiberg bond orders for each atom

     #   Z sym  total        # sym  WBO       # sym  WBO       # sym  WBO
 ---------------------------------------------------------------------------
     1   6 C    3.870 --    26 H    0.986    27 H    0.979    28 H    0.979
                             2 O    0.896
     2   8 O    2.200 --     3 C    1.113     1 C    0.896     4 O    0.136
     3   6 C    3.854 --     4 O    1.663     2 O    1.113     5 C    0.998
     4   8 O    1.929 --     3 C    1.663     2 O    0.136
     5   6 C    3.962 --    24 C    1.504     6 N    1.171     3 C    0.998
     6   7 N    3.031 --     7 C    1.606     5 C    1.171
     7   6 C    3.935 --     6 N    1.606    21 N    1.157     8 C    0.982
     8   6 C    3.914 --     9 C    0.989     7 C    0.982    10 C    0.975
                            11 N    0.901
     9   6 C    3.984 --     8 C    0.989    30 H    0.984    31 H    0.982
                            29 H    0.981
    10   6 C    3.983 --    34 H    0.984    32 H    0.983    33 H    0.977
                             8 C    0.975
    11   7 N    3.391 --    12 C    1.306     8 C    0.901    35 H    0.885
                            13 O    0.199
    12   6 C    3.928 --    13 O    1.593    11 N    1.306    14 C    0.954
    13   8 O    1.952 --    12 C    1.593    11 N    0.199
    14   6 C    3.841 --    19 N    1.458    15 O    1.124    12 C    0.954
    15   8 O    2.370 --    14 C    1.124    16 C    1.067
    16   6 C    3.838 --    18 N    1.573    15 O    1.067    17 C    1.044
    17   6 C    3.969 --    16 C    1.044    36 H    0.976    37 H    0.954
                            38 H    0.943
    18   7 N    2.965 --    16 C    1.573    19 N    1.158
    19   7 N    3.662 --    14 C    1.458    18 N    1.158    20 C    0.908
    20   6 C    3.877 --    39 H    0.971    40 H    0.971    41 H    0.958
                            19 N    0.908
    21   7 N    3.459 --     7 C    1.157    22 C    1.130    42 H    0.881
                            23 O    0.134
    22   6 C    3.908 --    23 O    1.589    21 N    1.130    24 C    1.058
    23   8 O    1.913 --    22 C    1.589    21 N    0.134
    24   6 C    3.921 --     5 C    1.504    25 O    1.118    22 C    1.058
    25   8 O    2.097 --    24 C    1.118    43 H    0.805
    26   1 H    1.011 --     1 C    0.986
    27   1 H    1.007 --     1 C    0.979
    28   1 H    1.007 --     1 C    0.979
    29   1 H    1.009 --     9 C    0.981
    30   1 H    1.002 --     9 C    0.984
    31   1 H    1.003 --     9 C    0.982
    32   1 H    0.999 --    10 C    0.983
    33   1 H    1.004 --    10 C    0.977
    34   1 H    0.999 --    10 C    0.984
    35   1 H    0.925 --    11 N    0.885
    36   1 H    0.990 --    17 C    0.976
    37   1 H    0.988 --    17 C    0.954
    38   1 H    0.988 --    17 C    0.943
    39   1 H    0.992 --    20 C    0.971
    40   1 H    1.003 --    20 C    0.971
    41   1 H    0.990 --    20 C    0.958
    42   1 H    0.922 --    21 N    0.881
    43   1 H    0.842 --    25 O    0.805
 ---------------------------------------------------------------------------

           -------------------------------------------------
          | TOTAL ENERGY              -83.186176616111 Eh   |
          | GRADIENT NORM               0.000876375043 Eh/α |
          | HOMO-LUMO GAP               1.723960865789 eV   |
           -------------------------------------------------

 * finished run on 2023/06/20 at 15:25:18.507
