                         Program Version 5.0.1 -  RELEASE  -
|  1> # ORCA input file
|  2> ! SP r2SCAN-3c CPCM
|  3>
|  4> %maxcore 1875.0
|  5> %pal nprocs 4 end
|  6> %cpcm smd true SMDsolvent "DMSO" end
|  7>
|  8> *xyz 0 1
|  9> C      -6.284852    1.159396    0.976939
| 10> O      -5.082473    0.442171    0.700928
| 11> C      -3.991007    1.178756    0.473826
| 12> O      -4.005153    2.393782    0.512990
| 13> C      -2.778498    0.385720    0.159265
| 14> N      -1.702317    1.157238   -0.122729
| 15> C      -0.570193    0.629874   -0.452443
| 16> C       0.625323    1.475974   -0.824572
| 17> C       0.535615    2.845886   -0.145297
| 18> C       0.680348    1.622510   -2.349071
| 19> N       1.843206    0.778247   -0.403697
| 20> C       2.035793    0.387124    0.876602
| 21> O       1.199502    0.476664    1.759624
| 22> C       3.373730   -0.210568    1.099600
| 23> N       3.867477   -0.668266    2.207678
| 24> N       5.116260   -1.130501    1.920418
| 25> C       5.308226   -0.928115    0.653924
| 26> C       6.503618   -1.261514   -0.149863
| 27> O       4.244205   -0.347070    0.075643
| 28> N      -0.444088   -0.732821   -0.548828
| 29> C      -1.435912   -1.569372   -0.262402
| 30> O      -1.108526   -2.843330   -0.410539
| 31> C      -2.035729   -3.908095   -0.161743
| 32> C      -2.744230   -1.045310    0.146461
| 33> O      -3.680167   -1.809174    0.430833
| 34> H      -6.547998    1.795649    0.127910
| 35> H      -7.062141    0.415977    1.143532
| 36> H      -6.160618    1.782279    1.866700
| 37> H      -0.376998    3.346453   -0.466218
| 38> H       0.512623    2.728458    0.937392
| 39> H       1.395995    3.450160   -0.423725
| 40> H       0.748741    0.642667   -2.817380
| 41> H      -0.220024    2.122447   -2.703008
| 42> H       1.548497    2.213302   -2.634141
| 43> H       2.609366    0.729239   -1.052147
| 44> H       7.242066   -1.756930    0.475923
| 45> H       6.932077   -0.353280   -0.573076
| 46> H       6.222928   -1.915058   -0.975280
| 47> H       0.434056   -1.127975   -0.854646
| 48> H      -1.483922   -4.824548   -0.369697
| 49> H      -2.367217   -3.897079    0.878388
| 50> H      -2.897587   -3.830964   -0.826765
| 51> **                         ****END OF INPUT****

CARTESIAN COORDINATES (ANGSTROEM)
---------------------------------
  C     -6.284852    1.159396    0.976939
  O     -5.082473    0.442171    0.700928
  C     -3.991007    1.178756    0.473826
  O     -4.005153    2.393782    0.512990
  C     -2.778498    0.385720    0.159265
  N     -1.702317    1.157238   -0.122729
  C     -0.570193    0.629874   -0.452443
  C      0.625323    1.475974   -0.824572
  C      0.535615    2.845886   -0.145297
  C      0.680348    1.622510   -2.349071
  N      1.843206    0.778247   -0.403697
  C      2.035793    0.387124    0.876602
  O      1.199502    0.476664    1.759624
  C      3.373730   -0.210568    1.099600
  N      3.867477   -0.668266    2.207678
  N      5.116260   -1.130501    1.920418
  C      5.308226   -0.928115    0.653924
  C      6.503618   -1.261514   -0.149863
  O      4.244205   -0.347070    0.075643
  N     -0.444088   -0.732821   -0.548828
  C     -1.435912   -1.569372   -0.262402
  O     -1.108526   -2.843330   -0.410539
  C     -2.035729   -3.908095   -0.161743
  C     -2.744230   -1.045310    0.146461
  O     -3.680167   -1.809174    0.430833
  H     -6.547998    1.795649    0.127910
  H     -7.062141    0.415977    1.143532
  H     -6.160618    1.782279    1.866700
  H     -0.376998    3.346453   -0.466218
  H      0.512623    2.728458    0.937392
  H      1.395995    3.450160   -0.423725
  H      0.748741    0.642667   -2.817380
  H     -0.220024    2.122447   -2.703008
  H      1.548497    2.213302   -2.634141
  H      2.609366    0.729239   -1.052147
  H      7.242066   -1.756930    0.475923
  H      6.932077   -0.353280   -0.573076
  H      6.222928   -1.915058   -0.975280
  H      0.434056   -1.127975   -0.854646
  H     -1.483922   -4.824548   -0.369697
  H     -2.367217   -3.897079    0.878388
  H     -2.897587   -3.830964   -0.826765

 Total Charge           Charge          ....    0
 Multiplicity           Mult            ....    1
 Number of Electrons    NEL             ....  184
 Basis Dimension        Dim             ....  615

ORBITAL ENERGIES
----------------

  NO   OCC          E(Eh)            E(eV)
   0   2.0000     -19.067890      -518.8637
   1   2.0000     -19.027496      -517.7645
   2   2.0000     -18.987635      -516.6798
   3   2.0000     -18.940989      -515.4105
   4   2.0000     -18.921980      -514.8932
   5   2.0000     -18.896830      -514.2089
   6   2.0000     -14.250963      -387.7884
   7   2.0000     -14.207256      -386.5991
   8   2.0000     -14.206446      -386.5771
   9   2.0000     -14.199096      -386.3770
  10   2.0000     -14.167263      -385.5108
  11   2.0000     -10.170243      -276.7464
  12   2.0000     -10.161776      -276.5160
  13   2.0000     -10.149208      -276.1740
  14   2.0000     -10.145916      -276.0844
  15   2.0000     -10.145217      -276.0654
  16   2.0000     -10.117079      -275.2997
  17   2.0000     -10.106762      -275.0190
  18   2.0000     -10.105870      -274.9947
  19   2.0000     -10.082596      -274.3614
  20   2.0000     -10.072796      -274.0947
  21   2.0000     -10.070408      -274.0297
  22   2.0000     -10.046211      -273.3713
  23   2.0000     -10.028429      -272.8874
  24   2.0000     -10.019378      -272.6411
  25   2.0000      -1.157518       -31.4977
  26   2.0000      -1.086350       -29.5611
  27   2.0000      -1.062751       -28.9189
  28   2.0000      -1.030612       -28.0444
  29   2.0000      -0.991888       -26.9907
  30   2.0000      -0.977825       -26.6080
  31   2.0000      -0.969969       -26.3942
  32   2.0000      -0.965874       -26.2828
  33   2.0000      -0.918475       -24.9930
  34   2.0000      -0.891634       -24.2626
  35   2.0000      -0.834005       -22.6944
  36   2.0000      -0.786268       -21.3954
  37   2.0000      -0.741859       -20.1870
  38   2.0000      -0.715386       -19.4666
  39   2.0000      -0.712783       -19.3958
  40   2.0000      -0.684117       -18.6158
  41   2.0000      -0.670060       -18.2333
  42   2.0000      -0.665748       -18.1159
  43   2.0000      -0.650806       -17.7093
  44   2.0000      -0.627984       -17.0883
  45   2.0000      -0.604428       -16.4473
  46   2.0000      -0.587981       -15.9998
  47   2.0000      -0.567975       -15.4554
  48   2.0000      -0.544307       -14.8113
  49   2.0000      -0.539652       -14.6847
  50   2.0000      -0.529974       -14.4213
  51   2.0000      -0.524309       -14.2672
  52   2.0000      -0.496843       -13.5198
  53   2.0000      -0.495402       -13.4806
  54   2.0000      -0.478525       -13.0213
  55   2.0000      -0.471514       -12.8306
  56   2.0000      -0.461367       -12.5544
  57   2.0000      -0.448019       -12.1912
  58   2.0000      -0.441526       -12.0145
  59   2.0000      -0.430782       -11.7222
  60   2.0000      -0.425808       -11.5868
  61   2.0000      -0.421322       -11.4647
  62   2.0000      -0.415530       -11.3072
  63   2.0000      -0.410644       -11.1742
  64   2.0000      -0.409893       -11.1538
  65   2.0000      -0.401276       -10.9193
  66   2.0000      -0.389506       -10.5990
  67   2.0000      -0.384292       -10.4571
  68   2.0000      -0.382548       -10.4097
  69   2.0000      -0.376275       -10.2390
  70   2.0000      -0.367663       -10.0046
  71   2.0000      -0.365830        -9.9547
  72   2.0000      -0.359724        -9.7886
  73   2.0000      -0.353814        -9.6278
  74   2.0000      -0.346448        -9.4273
  75   2.0000      -0.338101        -9.2002
  76   2.0000      -0.335427        -9.1274
  77   2.0000      -0.334335        -9.0977
  78   2.0000      -0.332124        -9.0376
  79   2.0000      -0.322861        -8.7855
  80   2.0000      -0.316341        -8.6081
  81   2.0000      -0.313027        -8.5179
  82   2.0000      -0.286923        -7.8076
  83   2.0000      -0.269994        -7.3469
  84   2.0000      -0.267321        -7.2742
  85   2.0000      -0.264750        -7.2042
  86   2.0000      -0.264024        -7.1844
  87   2.0000      -0.253589        -6.9005
  88   2.0000      -0.250702        -6.8220
  89   2.0000      -0.234888        -6.3916
  90   2.0000      -0.196470        -5.3462
  91   2.0000      -0.184153        -5.0110
  92   0.0000      -0.096862        -2.6358
  93   0.0000      -0.090622        -2.4660
  94   0.0000      -0.033913        -0.9228
  95   0.0000      -0.022036        -0.5996
  96   0.0000       0.012412         0.3378

MULLIKEN ATOMIC CHARGES
-----------------------
   0 C :   -0.319779
   1 O :   -0.144212
   2 C :    0.115332
   3 O :   -0.417558
   4 C :    0.170164
   5 N :   -0.156780
   6 C :    0.198330
   7 C :    0.098048
   8 C :   -0.606835
   9 C :   -0.543986
  10 N :   -0.185413
  11 C :   -0.118916
  12 O :   -0.424295
  13 C :    0.435562
  14 N :   -0.170237
  15 N :   -0.281489
  16 C :    0.397137
  17 C :   -0.632414
  18 O :   -0.056583
  19 N :   -0.017162
  20 C :    0.091416
  21 O :   -0.159328
  22 C :   -0.305084
  23 C :   -0.016387
  24 O :   -0.424187
  25 H :    0.170365
  26 H :    0.171342
  27 H :    0.170302
  28 H :    0.187587
  29 H :    0.195369
  30 H :    0.188102
  31 H :    0.190748
  32 H :    0.197319
  33 H :    0.189183
  34 H :    0.321592
  35 H :    0.205393
  36 H :    0.202689
  37 H :    0.200968
  38 H :    0.340105
  39 H :    0.171974
  40 H :    0.186244
  41 H :    0.185373
Sum of atomic charges:    0.0000000

LOEWDIN ATOMIC CHARGES
----------------------
   0 C :   -0.044871
   1 O :   -0.581015
   2 C :    0.393106
   3 O :   -0.440650
   4 C :    0.186928
   5 N :   -0.541683
   6 C :    0.334962
   7 C :    0.106565
   8 C :   -0.344772
   9 C :   -0.338334
  10 N :   -0.576120
  11 C :    0.380680
  12 O :   -0.434963
  13 C :    0.413747
  14 N :   -0.331749
  15 N :   -0.357951
  16 C :    0.380608
  17 C :   -0.316580
  18 O :   -0.390999
  19 N :   -0.404671
  20 C :    0.445396
  21 O :   -0.546966
  22 C :   -0.013335
  23 C :    0.237839
  24 O :   -0.571119
  25 H :    0.178839
  26 H :    0.182162
  27 H :    0.178884
  28 H :    0.177819
  29 H :    0.181019
  30 H :    0.169811
  31 H :    0.174621
  32 H :    0.178763
  33 H :    0.174314
  34 H :    0.301030
  35 H :    0.191389
  36 H :    0.192651
  37 H :    0.192096
  38 H :    0.320909
  39 H :    0.183911
  40 H :    0.188990
  41 H :    0.188741

  Mayer bond orders larger than 0.100000
B(  0-C ,  1-O ) :   0.8372 B(  0-C , 25-H ) :   0.9574 B(  0-C , 26-H ) :   0.9668
B(  0-C , 27-H ) :   0.9577 B(  1-O ,  2-C ) :   1.1592 B(  2-C ,  3-O ) :   1.9038
B(  2-C ,  4-C ) :   1.0520 B(  2-C ,  5-N ) :   0.1081 B(  4-C ,  5-N ) :   1.0283
B(  4-C , 23-C ) :   1.0212 B(  5-N ,  6-C ) :   1.6635 B(  6-C ,  7-C ) :   0.7712
B(  6-C , 19-N ) :   1.0322 B(  7-C ,  8-C ) :   0.9106 B(  7-C ,  9-C ) :   0.9421
B(  7-C , 10-N ) :   0.7948 B(  8-C , 28-H ) :   0.9598 B(  8-C , 29-H ) :   0.9643
B(  8-C , 30-H ) :   0.9705 B(  9-C , 31-H ) :   0.9552 B(  9-C , 32-H ) :   0.9655
B(  9-C , 33-H ) :   0.9604 B( 10-N , 11-C ) :   1.1506 B( 10-N , 34-H ) :   0.8905
B( 11-C , 12-O ) :   1.8847 B( 11-C , 13-C ) :   0.7932 B( 12-O , 13-C ) :  -0.1050
B( 13-C , 14-N ) :   1.7247 B( 13-C , 16-C ) :   0.1186 B( 13-C , 18-O ) :   1.0721
B( 14-N , 15-N ) :   1.2686 B( 15-N , 16-C ) :   1.6202 B( 16-C , 17-C ) :   0.8275
B( 16-C , 18-O ) :   1.0666 B( 17-C , 35-H ) :   0.9894 B( 17-C , 36-H ) :   0.9402
B( 17-C , 37-H ) :   0.9437 B( 19-N , 20-C ) :   1.3860 B( 19-N , 38-H ) :   0.8637
B( 20-C , 21-O ) :   1.3738 B( 20-C , 23-C ) :   0.9532 B( 21-O , 22-C ) :   0.8240
B( 22-C , 39-H ) :   0.9560 B( 22-C , 40-H ) :   0.9508 B( 22-C , 41-H ) :   0.9506
B( 23-C , 24-O ) :   1.7956

Dispersion correction           -0.018473856
FINAL SINGLE POINT ENERGY     -1268.621568122597

DIPOLE MOMENT
-------------
                                X             Y             Z
Electronic contribution:      2.47148      -4.03409       6.95696
Nuclear contribution   :      1.43227       2.52578     -11.53566
                        -----------------------------------------
Total Dipole Moment    :      3.90375      -1.50830      -4.57870
                        -----------------------------------------
Magnitude (a.u.)       :      6.20312
Magnitude (Debye)      :     15.76708

Rotational constants in cm-1:     0.014066     0.003735     0.003327
Rotational constants in MHz :   421.701785   111.985843    99.748421

                             ****ORCA TERMINATED NORMALLY****
TOTAL RUN TIME: 0 days 0 hours 1 minutes 37 seconds 47 msec
