   * xtb version 6.5.1 (579679a) compiled by 'ehlert@majestix' on 2022-07-11
          program call               : /lustre/hpc/kemi/ree/PhD/git/ReactivityQM/dep/xtb-6.5.1/bin/xtb --gfn 1 /lustre/hpc/kemi/ree/PhD/git/ReactivityQM/calculations/R02deprot/reac01prodE13/conf07/R02deprot_reac01prodE13_conf07_gfn1.xyz --opt --vfukui --chrg -2 --uhf 0 --alpb DMSO

   ID    Z sym.   atoms
    1    6 C      1, 3, 5, 6, 8, 10, 12-15, 17, 19, 22, 23
    2    8 O      2, 4, 7, 9, 18, 24
    3    7 N      11, 16, 20, 21, 25
    4    1 H      26-42

      * Solvation model:               ALPB
        Solvent                        DMSO
        Solvent mass                       7.8130E+01 g/mol
          :  Hamiltonian                  GFN1-xTB          :
 * total energy  :   -83.5683073 Eh     change       -0.3315819E-08 Eh
 * total energy  :   -83.5829122 Eh     change       -0.1460491E-01 Eh
 * total energy  :   -83.5883334 Eh     change       -0.5421192E-02 Eh
 * total energy  :   -83.5892700 Eh     change       -0.9366190E-03 Eh
 * total energy  :   -83.5897269 Eh     change       -0.4569070E-03 Eh
 * total energy  :   -83.5898435 Eh     change       -0.1165958E-03 Eh
 * total energy  :   -83.5899148 Eh     change       -0.7127558E-04 Eh
 * total energy  :   -83.5899571 Eh     change       -0.4236909E-04 Eh
 * total energy  :   -83.5899958 Eh     change       -0.3861707E-04 Eh
 * total energy  :   -83.5900394 Eh     change       -0.4367834E-04 Eh
 * total energy  :   -83.5904494 Eh     change       -0.1328417E-04 Eh
 * total energy  :   -83.5904578 Eh     change       -0.8340934E-05 Eh
 * total energy  :   -83.5904233 Eh     change        0.3451223E-04 Eh
 * total energy  :   -83.5904710 Eh     change       -0.4769140E-04 Eh
 * total energy  :   -83.5904769 Eh     change       -0.5930138E-05 Eh
 * total energy  :   -83.5904840 Eh     change       -0.7110990E-05 Eh
 * total energy  :   -83.5904944 Eh     change       -0.1037937E-04 Eh
 * total energy  :   -83.5904994 Eh     change       -0.5044342E-05 Eh
 * total energy  :   -83.5905037 Eh     change       -0.4306701E-05 Eh
   *** GEOMETRY OPTIMIZATION CONVERGED AFTER 37 ITERATIONS ***

 final structure:
================
42
 xtb: 6.5.1 (579679a)
C           -3.81679673325151       -4.00754126726025        1.20399119237440
O           -3.70899737649795       -2.62345730737331        0.96178171629926
C           -2.38809541901113       -2.16001644843585        0.76316411513739
O           -1.45115998489293       -2.99322648898583        0.83787012998889
C           -2.27986402483492       -0.78430054476064        0.49719884860731
C           -3.34584302887488        0.18328846549112        0.41264439290868
O           -4.66652521363848       -0.18507280996239        0.62119066285897
C           -3.03257949426768        1.48122246277342        0.12331389396509
O           -4.06807890290025        2.40551003983613        0.04163719923698
C           -3.68169387428771        3.74058178297133       -0.21329571954558
N           -1.76478769132274        1.92932975709742       -0.08755720262957
C           -0.81311475804004        0.97399263435950        0.02110468025381
C            0.60680265611985        1.48522737962967       -0.23161343503007
C            0.87085267464862        2.69866786368430        0.67490821118739
C            0.69897620428886        1.90435362999597       -1.71217982923165
N            1.54424562558750        0.41847297698013        0.07760539601349
C            2.90160383206810        0.50118988501612       -0.18059804200898
O            3.47852227462545        1.57882972033217       -0.46682219252972
C            3.56044344216013       -0.75847598948874       -0.02218041942482
N            2.98591208919092       -1.92954990185298        0.28130108602705
N            3.99108008241204       -2.85640135919296        0.32100383871589
C            5.09567475387869       -2.24325775061496        0.04996887527425
C            6.45483033468167       -2.83756821092244       -0.01570991906469
O            4.92856952526848       -0.91668062802423       -0.18257452138170
N           -0.98065138504387       -0.28805943643219        0.28334583388373
H           -3.42684693068576       -4.59727098495044        0.36263071635847
H           -3.27362999054461       -4.30466434576961        2.11190753557565
H           -4.87656575366780       -4.23517673236368        1.33482616480899
H           -5.22113101837028        0.60020479979167        0.54280735624120
H           -3.01962326757085        4.12166237651658        0.57489941705192
H           -4.59364455492759        4.33873442891748       -0.23994032492881
H           -3.16113942788984        3.82820371197769       -1.17554309946387
H            0.10402033181451        3.45277866433262        0.49928580301091
H            0.83289129844042        2.39724415428000        1.72250838788697
H            1.84830114174073        3.13214434875420        0.46645933877903
H            0.57064743161561        1.03424214692702       -2.35698949309479
H            1.66105733610268        2.36812036759768       -1.92737095218286
H           -0.09501805000942        2.61948513865441       -1.92713430733286
H            1.13286155800586       -0.51428901338050        0.10655531565117
H            7.11353515117221       -2.36464166914591        0.71393058489794
H            6.39531085586288       -3.90315033955073        0.19488246788098
H            6.88964828083815       -2.69068650743496       -1.00532670303544

          :  Hamiltonian                  GFN1-xTB          :
         :: total energy             -83.590503736190 Eh    ::
         :: gradient norm              0.000674900826 Eh/a0 ::
         :: HOMO-LUMO gap              0.034758835637 eV    ::
         :: SCC energy               -84.313959780673 Eh    ::
         :: -> Gsolv                  -0.278919567052 Eh    ::
         :: repulsion energy           0.748315897836 Eh    ::

    * Orbital Energies and Occupations

         #    Occupation            Energy/Eh            Energy/eV
      -------------------------------------------------------------
         1        2.0000           -0.7933960             -21.5894
       ...           ...                  ...                  ...
        56        2.0000           -0.4373802             -11.9017
        57        2.0000           -0.4253138             -11.5734
        58        2.0000           -0.4229109             -11.5080
        59        2.0000           -0.3994704             -10.8701
        60        2.0000           -0.3959105             -10.7733
        61        2.0000           -0.3906668             -10.6306
        62        2.0000           -0.3876976             -10.5498
        63        2.0000           -0.3839755             -10.4485
        64        2.0000           -0.3831314             -10.4255
        65        2.0000           -0.3757317             -10.2242
        66        2.0000           -0.3626840              -9.8691
        67        2.0000           -0.3500142              -9.5244
        68        1.3240           -0.2579254              -7.0185 (HOMO)
        69        0.6760           -0.2566480              -6.9837 (LUMO)
        70                         -0.2040742              -5.5531
        71                         -0.1958894              -5.3304
        72                         -0.1551235              -4.2211
        73                         -0.1300025              -3.5375
        74                         -0.1227264              -3.3396
        75                         -0.1117586              -3.0411
        76                         -0.1061567              -2.8887
        77                         -0.0891811              -2.4267
        78                         -0.0850920              -2.3155
        79                         -0.0719355              -1.9575
       ...                                ...                  ...
       134                          0.6924798              18.8433
      -------------------------------------------------------------
                  HL-Gap            0.0012774 Eh            0.0348 eV

Wiberg/Mayer (AO) data.
largest (>0.10) Wiberg bond orders for each atom

     #   Z sym  total        # sym  WBO       # sym  WBO       # sym  WBO
 ---------------------------------------------------------------------------
     1   6 C    3.924 --    28 H    0.987    26 H    0.980    27 H    0.980
                             2 O    0.958
     2   8 O    2.039 --     1 C    0.958     3 C    0.921
     3   6 C    3.733 --     4 O    1.417     5 C    1.295     2 O    0.921
     4   8 O    1.650 --     3 C    1.417
     5   6 C    3.759 --     3 C    1.295     6 C    1.158    25 N    1.096
     6   6 C    3.803 --     8 C    1.480     5 C    1.158     7 O    0.989
     7   8 O    1.956 --     6 C    0.989    29 H    0.856
     8   6 C    3.804 --     6 C    1.480    11 N    1.200     9 O    0.955
     9   8 O    2.065 --     8 C    0.955    10 C    0.941
    10   6 C    3.912 --    31 H    0.986    30 H    0.980    32 H    0.980
                             9 O    0.941
    11   7 N    2.783 --    12 C    1.278     8 C    1.200
    12   6 C    3.953 --    25 N    1.549    11 N    1.278    13 C    0.968
    13   6 C    3.947 --    14 C    0.987    15 C    0.978    12 C    0.968
                            16 N    0.949
    14   6 C    3.994 --    34 H    0.987    13 C    0.987    33 H    0.985
                            35 H    0.983
    15   6 C    3.992 --    36 H    0.987    38 H    0.986    37 H    0.983
                            13 C    0.978
    16   7 N    3.180 --    17 C    1.125    13 C    0.949    39 H    0.898
                            18 O    0.119
    17   6 C    3.770 --    18 O    1.422    19 C    1.151    16 N    1.125
    18   8 O    1.673 --    17 C    1.422    16 N    0.119
    19   6 C    3.670 --    20 N    1.385    17 C    1.151    24 O    0.968
    20   7 N    2.735 --    19 C    1.385    21 N    1.186
    21   7 N    2.981 --    22 C    1.628    20 N    1.186
    22   6 C    3.815 --    21 N    1.628    24 O    1.045    23 C    1.022
    23   6 C    3.995 --    22 C    1.022    41 H    0.986    42 H    0.972
                            40 H    0.972
    24   8 O    2.168 --    22 C    1.045    19 C    0.968
    25   7 N    2.920 --    12 C    1.549     5 C    1.096
    26   1 H    1.021 --     1 C    0.980
    27   1 H    1.022 --     1 C    0.980
    28   1 H    1.021 --     1 C    0.987
    29   1 H    0.888 --     7 O    0.856
    30   1 H    1.021 --    10 C    0.980
    31   1 H    1.018 --    10 C    0.986
    32   1 H    1.022 --    10 C    0.980
    33   1 H    1.024 --    14 C    0.985
    34   1 H    1.011 --    14 C    0.987
    35   1 H    1.022 --    14 C    0.983
    36   1 H    1.009 --    15 C    0.987
    37   1 H    1.019 --    15 C    0.983
    38   1 H    1.019 --    15 C    0.986
    39   1 H    1.001 --    16 N    0.898
    40   1 H    1.002 --    23 C    0.972
    41   1 H    1.005 --    23 C    0.986
    42   1 H    1.002 --    23 C    0.972
 ---------------------------------------------------------------------------

           -------------------------------------------------
          | TOTAL ENERGY              -83.590503736190 Eh   |
          | GRADIENT NORM               0.000674900826 Eh/α |
          | HOMO-LUMO GAP               0.034758835637 eV   |
           -------------------------------------------------

 * finished run on 2023/06/20 at 18:00:50.635
