                         Program Version 5.0.1 -  RELEASE  -
|  1> # ORCA input file
|  2> ! SP r2SCAN-3c CPCM
|  3>
|  4> %maxcore 1875.0
|  5> %pal nprocs 4 end
|  6> %cpcm smd true SMDsolvent "DMSO" end
|  7>
|  8> *xyz 1 1
|  9> C      -3.842847   -1.658477   -0.271279
| 10> N      -2.536287   -1.055380   -0.547661
| 11> C      -1.448476   -1.972687   -0.613423
| 12> O      -1.609069   -3.141520   -0.425326
| 13> C      -0.131019   -1.366439   -1.091963
| 14> C      -0.262731   -1.273974   -2.638211
| 15> O       0.941837   -2.173503   -0.727799
| 16> C      -0.002823    0.008114   -0.522311
| 17> C       1.274806    0.674919   -0.055327
| 18> O       1.220399    1.677582    0.635335
| 19> N       2.408701    0.119444   -0.497221
| 20> C       3.700106    0.704191   -0.136415
| 21> C       4.095526    0.243350    1.250002
| 22> C       3.826425    1.045235    2.356247
| 23> C       4.158041    0.615079    3.633405
| 24> C       4.751350   -0.627110    3.773840
| 25> F       5.069602   -1.052529    5.005297
| 26> C       5.027039   -1.449950    2.695981
| 27> C       4.691344   -1.003541    1.425619
| 28> N      -1.070376    0.727447   -0.437738
| 29> C      -2.314615    0.253883   -0.656412
| 30> C      -3.361681    1.310348   -0.861857
| 31> C      -2.723472    2.521673   -1.568690
| 32> C      -3.866071    1.726197    0.534544
| 33> N      -4.469769    0.795005   -1.638737
| 34> H      -3.854113   -2.657707   -0.702761
| 35> H      -3.976095   -1.719267    0.808417
| 36> H      -4.617958   -1.034713   -0.712770
| 37> H      -1.048648   -0.574002   -2.909688
| 38> H       0.689755   -0.935134   -3.038439
| 39> H      -0.491526   -2.260317   -3.035308
| 40> H       0.770828   -3.101594   -0.946097
| 41> H       2.403209   -0.748278   -1.007093
| 42> H       3.597941    1.792723   -0.168096
| 43> H       4.426397    0.380520   -0.883282
| 44> H       3.349003    2.008560    2.218121
| 45> H       3.956274    1.226672    4.503454
| 46> H       5.489931   -2.416338    2.848141
| 47> H       4.894428   -1.629912    0.565891
| 48> H      -3.492559    3.272764   -1.735210
| 49> H      -2.311970    2.216455   -2.528896
| 50> H      -1.929564    2.950213   -0.959022
| 51> H      -4.372490    0.891149    1.014494
| 52> H      -3.032436    2.050189    1.155855
| 53> H      -4.568583    2.549331    0.417079
| 54> H      -4.182033    0.626282   -2.591553
| 55> H      -5.225730    1.465049   -1.643716
| 56> **                         ****END OF INPUT****

CARTESIAN COORDINATES (ANGSTROEM)
---------------------------------
  C     -3.842847   -1.658477   -0.271279
  N     -2.536287   -1.055380   -0.547661
  C     -1.448476   -1.972687   -0.613423
  O     -1.609069   -3.141520   -0.425326
  C     -0.131019   -1.366439   -1.091963
  C     -0.262731   -1.273974   -2.638211
  O      0.941837   -2.173503   -0.727799
  C     -0.002823    0.008114   -0.522311
  C      1.274806    0.674919   -0.055327
  O      1.220399    1.677582    0.635335
  N      2.408701    0.119444   -0.497221
  C      3.700106    0.704191   -0.136415
  C      4.095526    0.243350    1.250002
  C      3.826425    1.045235    2.356247
  C      4.158041    0.615079    3.633405
  C      4.751350   -0.627110    3.773840
  F      5.069602   -1.052529    5.005297
  C      5.027039   -1.449950    2.695981
  C      4.691344   -1.003541    1.425619
  N     -1.070376    0.727447   -0.437738
  C     -2.314615    0.253883   -0.656412
  C     -3.361681    1.310348   -0.861857
  C     -2.723472    2.521673   -1.568690
  C     -3.866071    1.726197    0.534544
  N     -4.469769    0.795005   -1.638737
  H     -3.854113   -2.657707   -0.702761
  H     -3.976095   -1.719267    0.808417
  H     -4.617958   -1.034713   -0.712770
  H     -1.048648   -0.574002   -2.909688
  H      0.689755   -0.935134   -3.038439
  H     -0.491526   -2.260317   -3.035308
  H      0.770828   -3.101594   -0.946097
  H      2.403209   -0.748278   -1.007093
  H      3.597941    1.792723   -0.168096
  H      4.426397    0.380520   -0.883282
  H      3.349003    2.008560    2.218121
  H      3.956274    1.226672    4.503454
  H      5.489931   -2.416338    2.848141
  H      4.894428   -1.629912    0.565891
  H     -3.492559    3.272764   -1.735210
  H     -2.311970    2.216455   -2.528896
  H     -1.929564    2.950213   -0.959022
  H     -4.372490    0.891149    1.014494
  H     -3.032436    2.050189    1.155855
  H     -4.568583    2.549331    0.417079
  H     -4.182033    0.626282   -2.591553
  H     -5.225730    1.465049   -1.643716

 Total Charge           Charge          ....    1
 Multiplicity           Mult            ....    1
 Number of Electrons    NEL             ....  184
 Basis Dimension        Dim             ....  625

ORBITAL ENERGIES
----------------

  NO   OCC          E(Eh)            E(eV)
   0   2.0000     -24.505664      -666.8330
   1   2.0000     -18.996619      -516.9243
   2   2.0000     -18.995144      -516.8841
   3   2.0000     -18.937177      -515.3068
   4   2.0000     -14.279718      -388.5709
   5   2.0000     -14.217225      -386.8703
   6   2.0000     -14.210707      -386.6930
   7   2.0000     -14.151100      -385.0710
   8   2.0000     -10.194255      -277.3998
   9   2.0000     -10.186608      -277.1917
  10   2.0000     -10.157155      -276.3902
  11   2.0000     -10.156958      -276.3849
  12   2.0000     -10.154584      -276.3203
  13   2.0000     -10.122499      -275.4472
  14   2.0000     -10.108855      -275.0759
  15   2.0000     -10.078083      -274.2386
  16   2.0000     -10.070064      -274.0204
  17   2.0000     -10.055433      -273.6222
  18   2.0000     -10.050368      -273.4844
  19   2.0000     -10.046073      -273.3675
  20   2.0000     -10.044466      -273.3238
  21   2.0000     -10.044241      -273.3177
  22   2.0000     -10.043585      -273.2998
  23   2.0000     -10.037291      -273.1286
  24   2.0000     -10.027565      -272.8639
  25   2.0000      -1.197308       -32.5804
  26   2.0000      -1.090809       -29.6824
  27   2.0000      -1.042791       -28.3758
  28   2.0000      -1.031440       -28.0669
  29   2.0000      -1.017560       -27.6892
  30   2.0000      -0.935960       -25.4688
  31   2.0000      -0.914905       -24.8958
  32   2.0000      -0.888142       -24.1676
  33   2.0000      -0.838637       -22.8205
  34   2.0000      -0.804865       -21.9015
  35   2.0000      -0.759355       -20.6631
  36   2.0000      -0.749259       -20.3884
  37   2.0000      -0.730377       -19.8746
  38   2.0000      -0.726349       -19.7650
  39   2.0000      -0.696368       -18.9491
  40   2.0000      -0.686686       -18.6857
  41   2.0000      -0.670695       -18.2505
  42   2.0000      -0.652256       -17.7488
  43   2.0000      -0.639461       -17.4006
  44   2.0000      -0.600121       -16.3301
  45   2.0000      -0.593181       -16.1413
  46   2.0000      -0.579144       -15.7593
  47   2.0000      -0.576458       -15.6862
  48   2.0000      -0.562989       -15.3197
  49   2.0000      -0.531141       -14.4531
  50   2.0000      -0.524881       -14.2827
  51   2.0000      -0.518054       -14.0970
  52   2.0000      -0.498324       -13.5601
  53   2.0000      -0.484925       -13.1955
  54   2.0000      -0.474896       -12.9226
  55   2.0000      -0.467601       -12.7241
  56   2.0000      -0.464406       -12.6371
  57   2.0000      -0.460932       -12.5426
  58   2.0000      -0.450873       -12.2689
  59   2.0000      -0.445130       -12.1126
  60   2.0000      -0.438660       -11.9365
  61   2.0000      -0.435260       -11.8440
  62   2.0000      -0.428562       -11.6618
  63   2.0000      -0.424995       -11.5647
  64   2.0000      -0.414084       -11.2678
  65   2.0000      -0.411084       -11.1862
  66   2.0000      -0.406493       -11.0612
  67   2.0000      -0.400664       -10.9026
  68   2.0000      -0.396330       -10.7847
  69   2.0000      -0.390589       -10.6285
  70   2.0000      -0.384888       -10.4733
  71   2.0000      -0.382455       -10.4071
  72   2.0000      -0.377955       -10.2847
  73   2.0000      -0.370021       -10.0688
  74   2.0000      -0.362339        -9.8597
  75   2.0000      -0.359331        -9.7779
  76   2.0000      -0.357223        -9.7205
  77   2.0000      -0.350063        -9.5257
  78   2.0000      -0.347106        -9.4452
  79   2.0000      -0.344244        -9.3673
  80   2.0000      -0.339850        -9.2478
  81   2.0000      -0.327623        -8.9151
  82   2.0000      -0.314951        -8.5702
  83   2.0000      -0.308731        -8.4010
  84   2.0000      -0.303542        -8.2598
  85   2.0000      -0.289322        -7.8729
  86   2.0000      -0.276466        -7.5230
  87   2.0000      -0.257543        -7.0081
  88   2.0000      -0.252951        -6.8832
  89   2.0000      -0.245463        -6.6794
  90   2.0000      -0.229050        -6.2328
  91   2.0000      -0.224595        -6.1115
  92   0.0000      -0.173668        -4.7257
  93   0.0000      -0.087083        -2.3696
  94   0.0000      -0.045044        -1.2257
  95   0.0000      -0.037379        -1.0171
  96   0.0000      -0.033904        -0.9226

MULLIKEN ATOMIC CHARGES
-----------------------
   0 C :   -0.438273
   1 N :    0.272418
   2 C :    0.193788
   3 O :   -0.359740
   4 C :    0.132698
   5 C :   -0.459852
   6 O :   -0.435520
   7 C :    0.363587
   8 C :    0.072533
   9 O :   -0.420895
  10 N :   -0.067006
  11 C :   -0.343462
  12 C :    0.087767
  13 C :   -0.155479
  14 C :   -0.313336
  15 C :    0.363755
  16 F :   -0.233581
  17 C :   -0.296103
  18 C :   -0.201553
  19 N :   -0.127717
  20 C :    0.087286
  21 C :    0.111292
  22 C :   -0.529104
  23 C :   -0.515931
  24 N :   -0.671575
  25 H :    0.196098
  26 H :    0.214625
  27 H :    0.240811
  28 H :    0.216290
  29 H :    0.207507
  30 H :    0.202036
  31 H :    0.352755
  32 H :    0.314121
  33 H :    0.200931
  34 H :    0.196778
  35 H :    0.197067
  36 H :    0.197732
  37 H :    0.197884
  38 H :    0.191490
  39 H :    0.189549
  40 H :    0.185061
  41 H :    0.185818
  42 H :    0.191254
  43 H :    0.198937
  44 H :    0.197695
  45 H :    0.302362
  46 H :    0.307205
Sum of atomic charges:    1.0000000

LOEWDIN ATOMIC CHARGES
----------------------
   0 C :   -0.069786
   1 N :   -0.596133
   2 C :    0.425790
   3 O :   -0.340656
   4 C :    0.164477
   5 C :   -0.294242
   6 O :   -0.534718
   7 C :    0.353357
   8 C :    0.363236
   9 O :   -0.436272
  10 N :   -0.559234
  11 C :    0.008582
  12 C :   -0.079129
  13 C :   -0.136031
  14 C :   -0.158845
  15 C :    0.203155
  16 F :   -0.293822
  17 C :   -0.158099
  18 C :   -0.137767
  19 N :   -0.491245
  20 C :    0.453956
  21 C :    0.065978
  22 C :   -0.341141
  23 C :   -0.322074
  24 N :   -0.679634
  25 H :    0.210674
  26 H :    0.206506
  27 H :    0.229028
  28 H :    0.188765
  29 H :    0.188748
  30 H :    0.187803
  31 H :    0.303646
  32 H :    0.299279
  33 H :    0.210342
  34 H :    0.207149
  35 H :    0.191926
  36 H :    0.194606
  37 H :    0.194733
  38 H :    0.188462
  39 H :    0.174625
  40 H :    0.174449
  41 H :    0.178035
  42 H :    0.177895
  43 H :    0.179028
  44 H :    0.180546
  45 H :    0.259989
  46 H :    0.264061

  Mayer bond orders larger than 0.100000
B(  0-C ,  1-N ) :   0.8523 B(  0-C , 25-H ) :   0.9357 B(  0-C , 26-H ) :   0.9200
B(  0-C , 27-H ) :   0.9047 B(  1-N ,  2-C ) :   0.9172 B(  1-N , 20-C ) :   1.4629
B(  2-C ,  3-O ) :   1.9815 B(  2-C ,  4-C ) :   0.9241 B(  4-C ,  5-C ) :   1.0764
B(  4-C ,  6-O ) :   0.9107 B(  4-C ,  7-C ) :   0.9315 B(  5-C , 28-H ) :   0.9316
B(  5-C , 29-H ) :   0.9302 B(  5-C , 30-H ) :   0.9144 B(  6-O , 31-H ) :   0.8576
B(  7-C ,  8-C ) :   1.0004 B(  7-C , 19-N ) :   1.3638 B(  8-C ,  9-O ) :   1.8846
B(  8-C , 10-N ) :   1.2034 B( 10-N , 11-C ) :   0.8481 B( 10-N , 32-H ) :   0.8722
B( 11-C , 12-C ) :   0.8093 B( 11-C , 33-H ) :   0.9789 B( 11-C , 34-H ) :   0.9676
B( 12-C , 13-C ) :   1.3936 B( 12-C , 18-C ) :   1.4007 B( 13-C , 14-C ) :   1.3781
B( 13-C , 35-H ) :   0.9363 B( 14-C , 15-C ) :   1.3951 B( 14-C , 36-H ) :   0.9354
B( 15-C , 16-F ) :   0.8854 B( 15-C , 17-C ) :   1.3964 B( 17-C , 18-C ) :   1.3774
B( 17-C , 37-H ) :   0.9359 B( 18-C , 38-H ) :   0.9399 B( 19-N , 20-C ) :   1.1447
B( 20-C , 21-C ) :   0.9564 B( 21-C , 22-C ) :   0.9350 B( 21-C , 23-C ) :   0.9349
B( 21-C , 24-N ) :   0.8024 B( 22-C , 39-H ) :   0.9562 B( 22-C , 40-H ) :   0.9558
B( 22-C , 41-H ) :   0.9672 B( 23-C , 42-H ) :   0.9440 B( 23-C , 43-H ) :   0.9598
B( 23-C , 44-H ) :   0.9495 B( 24-N , 45-H ) :   0.9055 B( 24-N , 46-H ) :   0.9064

Dispersion correction           -0.021719965
FINAL SINGLE POINT ENERGY     -1205.208597703147

DIPOLE MOMENT
-------------
                                X             Y             Z
Electronic contribution:     22.86435      -9.31281      15.54988
Nuclear contribution   :    -27.32511       8.89079     -20.25519
                        -----------------------------------------
Total Dipole Moment    :     -4.46076      -0.42203      -4.70531
                        -----------------------------------------
Magnitude (a.u.)       :      6.49742
Magnitude (Debye)      :     16.51513

Rotational constants in cm-1:     0.013855     0.003525     0.003349
Rotational constants in MHz :   415.370728   105.677419   100.389000

                             ****ORCA TERMINATED NORMALLY****
TOTAL RUN TIME: 0 days 0 hours 2 minutes 7 seconds 8 msec
