   * xtb version 6.5.1 (579679a) compiled by 'ehlert@majestix' on 2022-07-11
          program call               : /lustre/hpc/kemi/ree/PhD/git/ReactivityQM/dep/xtb-6.5.1/bin/xtb --gfn 1 /lustre/hpc/kemi/ree/PhD/git/ReactivityQM/calculations/RaltegravirCLI/reac02prodN12/conf03/RaltegravirCLI_reac02prodN12_conf03_gfn1.xyz --opt --vfukui --chrg 1 --uhf 0 --alpb DMSO

   ID    Z sym.   atoms
    1    6 C      1, 3, 5, 6, 8, 9, 12-16, 18, 19, 21-24
    2    7 N      2, 11, 20, 25
    3    8 O      4, 7, 10
    4    9 F      17
    5    1 H      26-47

      * Solvation model:               ALPB
        Solvent                        DMSO
        Solvent mass                       7.8130E+01 g/mol
          :  Hamiltonian                  GFN1-xTB          :
 * total energy  :   -79.4710872 Eh     change       -0.4746425E-11 Eh
 * total energy  :   -79.4826902 Eh     change       -0.1160303E-01 Eh
 * total energy  :   -79.4877063 Eh     change       -0.5016063E-02 Eh
 * total energy  :   -79.4888533 Eh     change       -0.1146973E-02 Eh
 * total energy  :   -79.4896644 Eh     change       -0.8111479E-03 Eh
 * total energy  :   -79.4900878 Eh     change       -0.4233687E-03 Eh
 * total energy  :   -79.4904944 Eh     change       -0.4066390E-03 Eh
 * total energy  :   -79.4908350 Eh     change       -0.3405934E-03 Eh
 * total energy  :   -79.4910696 Eh     change       -0.2345768E-03 Eh
 * total energy  :   -79.4912086 Eh     change       -0.1390452E-03 Eh
 * total energy  :   -79.4936044 Eh     change       -0.2554918E-04 Eh
 * total energy  :   -79.4936329 Eh     change       -0.2856649E-04 Eh
 * total energy  :   -79.4936666 Eh     change       -0.3370625E-04 Eh
 * total energy  :   -79.4936831 Eh     change       -0.1652116E-04 Eh
 * total energy  :   -79.4937148 Eh     change       -0.3168949E-04 Eh
 * total energy  :   -79.4937322 Eh     change       -0.1732923E-04 Eh
 * total energy  :   -79.4937426 Eh     change       -0.1043951E-04 Eh
 * total energy  :   -79.4937552 Eh     change       -0.1256741E-04 Eh
 * total energy  :   -79.4937593 Eh     change       -0.4173279E-05 Eh
   *** GEOMETRY OPTIMIZATION CONVERGED AFTER 48 ITERATIONS ***

 final structure:
================
47
 xtb: 6.5.1 (579679a)
C           -3.84284747960011       -1.65847660322184       -0.27127920370965
N           -2.53628726980396       -1.05538009168318       -0.54766094633629
C           -1.44847587521779       -1.97268720524825       -0.61342336660485
O           -1.60906917338572       -3.14152014346061       -0.42532594600650
C           -0.13101881408312       -1.36643891510394       -1.09196277356832
C           -0.26273135363294       -1.27397419073184       -2.63821064013518
O            0.94183679992821       -2.17350320143123       -0.72779949501372
C           -0.00282303510793        0.00811418087022       -0.52231132770101
C            1.27480589551204        0.67491897364330       -0.05532657628055
O            1.22039888717486        1.67758161843168        0.63533493562834
N            2.40870144905819        0.11944435970154       -0.49722107697483
C            3.70010567040530        0.70419074091021       -0.13641490191724
C            4.09552597241009        0.24334978939812        1.25000225462015
C            3.82642514356851        1.04523537159687        2.35624662953757
C            4.15804085662993        0.61507890252597        3.63340540548957
C            4.75135029718112       -0.62711013340766        3.77383975759551
F            5.06960208950000       -1.05252897911901        5.00529728654776
C            5.02703925396926       -1.44995041551036        2.69598121293081
C            4.69134350594152       -1.00354071430597        1.42561928434893
N           -1.07037569609406        0.72744699491755       -0.43773821943874
C           -2.31461490686388        0.25388275119112       -0.65641232519043
C           -3.36168070854423        1.31034753022906       -0.86185655108041
C           -2.72347243998106        2.52167337612526       -1.56868967694479
C           -3.86607081595857        1.72619675185656        0.53454414564570
N           -4.46976925983977        0.79500471699778       -1.63873678682809
H           -3.85411345010594       -2.65770656244792       -0.70276096472311
H           -3.97609488724343       -1.71926684976699        0.80841744582918
H           -4.61795820772269       -1.03471339157212       -0.71276978973009
H           -1.04864763796069       -0.57400224136354       -2.90968825163407
H            0.68975534499017       -0.93513410557592       -3.03843880113802
H           -0.49152587745021       -2.26031678052474       -3.03530795270757
H            0.77082814037395       -3.10159444394240       -0.94609747572221
H            2.40320944264841       -0.74827766465224       -1.00709337226512
H            3.59794055792192        1.79272299726217       -0.16809605440429
H            4.42639703441961        0.38051985119255       -0.88328180782324
H            3.34900295094663        2.00855981636659        2.21812073219657
H            3.95627379772748        1.22667237751288        4.50345420725704
H            5.48993131278646       -2.41633816040348        2.84814103211215
H            4.89442754266046       -1.62991180917936        0.56589089541833
H           -3.49255891677552        3.27276438367883       -1.73521028976597
H           -2.31196997100406        2.21645476466136       -2.52889556408295
H           -1.92956373522512        2.95021257135633       -0.95902163955680
H           -4.37249026364323        0.89114856590158        1.01449393837499
H           -3.03243648446007        2.05018911283753        1.15585515659567
H           -4.56858300807258        2.54933110942110        0.41707905859300
H           -4.18203300971354        0.62628167073845       -2.59155297293435
H           -5.22572966825869        1.46504932333297       -1.64371562850484

          :  Hamiltonian                  GFN1-xTB          :
         :: total energy             -79.493759348223 Eh    ::
         :: gradient norm              0.000749543009 Eh/a0 ::
         :: HOMO-LUMO gap              0.797349138702 eV    ::
         :: SCC energy               -80.386550649055 Eh    ::
         :: -> Gsolv                  -0.110003720599 Eh    ::
         :: repulsion energy           0.923941175685 Eh    ::

    * Orbital Energies and Occupations

         #    Occupation            Energy/Eh            Energy/eV
      -------------------------------------------------------------
         1        2.0000           -0.8847248             -24.0746
       ...           ...                  ...                  ...
        55        2.0000           -0.5226774             -14.2228
        56        2.0000           -0.5194537             -14.1351
        57        2.0000           -0.5177984             -14.0900
        58        2.0000           -0.5138429             -13.9824
        59        2.0000           -0.5111469             -13.9090
        60        2.0000           -0.5040246             -13.7152
        61        2.0000           -0.4962312             -13.5031
        62        2.0000           -0.4811141             -13.0918
        63        2.0000           -0.4772649             -12.9870
        64        2.0000           -0.4660578             -12.6821
        65        2.0000           -0.4585915             -12.4789
        66        2.0000           -0.4455862             -12.1250
        67        2.0000           -0.4429613             -12.0536 (HOMO)
        68        0.0000           -0.4136593             -11.2562 (LUMO)
        69                         -0.3408234              -9.2743
        70                         -0.3005716              -8.1790
        71                         -0.2806565              -7.6371
        72                         -0.2753760              -7.4934
        73                         -0.2437654              -6.6332
        74                         -0.1604089              -4.3649
        75                         -0.1557906              -4.2393
        76                         -0.1539415              -4.1890
        77                         -0.1453047              -3.9539
        78                         -0.1386506              -3.7729
       ...                                ...                  ...
       144                          0.6874469              18.7064
      -------------------------------------------------------------
                  HL-Gap            0.0293020 Eh            0.7973 eV

Wiberg/Mayer (AO) data.
largest (>0.10) Wiberg bond orders for each atom

     #   Z sym  total        # sym  WBO       # sym  WBO       # sym  WBO
 ---------------------------------------------------------------------------
     1   6 C    3.881 --    26 H    0.975    27 H    0.965    28 H    0.953
                             2 N    0.903
     2   7 N    3.549 --    21 C    1.361     3 C    1.010     1 C    0.903
     3   6 C    3.859 --     4 O    1.777     2 N    1.010     5 C    0.925
     4   8 O    2.037 --     3 C    1.777
     5   6 C    3.933 --     8 C    1.002     7 O    0.989     3 C    0.925
                             6 C    0.898
     6   6 C    3.970 --    29 H    0.984    31 H    0.978    30 H    0.976
                             5 C    0.898
     7   8 O    1.927 --     5 C    0.989    32 H    0.815
     8   6 C    3.903 --    20 N    1.636     5 C    1.002     9 C    0.959
     9   6 C    3.922 --    10 O    1.588    11 N    1.299     8 C    0.959
    10   8 O    1.911 --     9 C    1.588    11 N    0.201
    11   7 N    3.415 --     9 C    1.299    12 C    0.928    33 H    0.880
                            10 O    0.201
    12   6 C    3.929 --    13 C    0.986    35 H    0.974    34 H    0.970
                            11 N    0.928
    13   6 C    3.981 --    14 C    1.419    19 C    1.418    12 C    0.986
    14   6 C    3.992 --    15 C    1.443    13 C    1.419    36 H    0.969
                            18 C    0.110
    15   6 C    3.991 --    14 C    1.443    16 C    1.400    37 H    0.969
                            19 C    0.110
    16   6 C    3.860 --    15 C    1.400    18 C    1.398    17 F    0.929
    17   9 F    1.058 --    16 C    0.929
    18   6 C    3.990 --    19 C    1.445    16 C    1.398    38 H    0.969
                            14 C    0.110
    19   6 C    3.993 --    18 C    1.445    13 C    1.418    39 H    0.971
                            15 C    0.110
    20   7 N    3.135 --     8 C    1.636    21 C    1.251
    21   6 C    3.876 --     2 N    1.361    20 N    1.251    22 C    1.006
    22   6 C    3.957 --    21 C    1.006    25 N    0.998    23 C    0.965
                            24 C    0.938
    23   6 C    3.985 --    41 H    0.984    40 H    0.981    42 H    0.981
                            22 C    0.965
    24   6 C    3.978 --    44 H    0.984    43 H    0.984    45 H    0.975
                            22 C    0.938
    25   7 N    3.021 --    22 C    0.998    46 H    0.929    47 H    0.924
    26   1 H    0.997 --     1 C    0.975
    27   1 H    0.994 --     1 C    0.965
    28   1 H    1.018 --     1 C    0.953
    29   1 H    0.996 --     6 C    0.984
    30   1 H    0.995 --     6 C    0.976
    31   1 H    0.992 --     6 C    0.978
    32   1 H    0.835 --     7 O    0.815
    33   1 H    0.938 --    11 N    0.880
    34   1 H    1.003 --    12 C    0.970
    35   1 H    1.000 --    12 C    0.974
    36   1 H    1.008 --    14 C    0.969
    37   1 H    0.997 --    15 C    0.969
    38   1 H    0.997 --    18 C    0.969
    39   1 H    0.998 --    19 C    0.971
    40   1 H    0.998 --    23 C    0.981
    41   1 H    0.999 --    23 C    0.984
    42   1 H    1.006 --    23 C    0.981
    43   1 H    0.999 --    24 C    0.984
    44   1 H    0.999 --    24 C    0.984
    45   1 H    0.993 --    24 C    0.975
    46   1 H    0.944 --    25 N    0.929
    47   1 H    0.940 --    25 N    0.924
 ---------------------------------------------------------------------------

           -------------------------------------------------
          | TOTAL ENERGY              -79.493759348223 Eh   |
          | GRADIENT NORM               0.000749543009 Eh/α |
          | HOMO-LUMO GAP               0.797349138702 eV   |
           -------------------------------------------------

 * finished run on 2023/06/20 at 15:33:25.629
