   * xtb version 6.5.1 (579679a) compiled by 'ehlert@majestix' on 2022-07-11
          program call               : /lustre/hpc/kemi/ree/PhD/git/ReactivityQM/dep/xtb-6.5.1/bin/xtb --gfn 1 /lustre/hpc/kemi/ree/PhD/git/ReactivityQM/calculations/RaltegravirCLI/reac02prodN09/conf12/RaltegravirCLI_reac02prodN09_conf12_gfn1.xyz --opt --vfukui --chrg 1 --uhf 0 --alpb DMSO

   ID    Z sym.   atoms
    1    6 C      1-4, 6-9, 11, 13, 15-18, 21, 22, 24
    2    9 F      5
    3    7 N      10, 14, 19, 20
    4    8 O      12, 23, 25
    5    1 H      26-47

      * Solvation model:               ALPB
        Solvent                        DMSO
        Solvent mass                       7.8130E+01 g/mol
          :  Hamiltonian                  GFN1-xTB          :
 * total energy  :   -79.4638720 Eh     change       -0.3434764E-10 Eh
 * total energy  :   -79.4730138 Eh     change       -0.9141762E-02 Eh
 * total energy  :   -79.4753583 Eh     change       -0.2344510E-02 Eh
 * total energy  :   -79.4757324 Eh     change       -0.3741217E-03 Eh
 * total energy  :   -79.4760343 Eh     change       -0.3019393E-03 Eh
 * total energy  :   -79.4761473 Eh     change       -0.1129410E-03 Eh
 * total energy  :   -79.4762216 Eh     change       -0.7429255E-04 Eh
 * total energy  :   -79.4762573 Eh     change       -0.3576584E-04 Eh
 * total energy  :   -79.4762862 Eh     change       -0.2884777E-04 Eh
 * total energy  :   -79.4763041 Eh     change       -0.1788230E-04 Eh
 * total energy  :   -79.4823975 Eh     change       -0.2899475E-04 Eh
 * total energy  :   -79.4824257 Eh     change       -0.2813538E-04 Eh
 * total energy  :   -79.4824535 Eh     change       -0.2780764E-04 Eh
 * total energy  :   -79.4824841 Eh     change       -0.3066993E-04 Eh
 * total energy  :   -79.4824922 Eh     change       -0.8114779E-05 Eh
 * total energy  :   -79.4825134 Eh     change       -0.2111471E-04 Eh
 * total energy  :   -79.4825301 Eh     change       -0.1675256E-04 Eh
 * total energy  :   -79.4825400 Eh     change       -0.9893663E-05 Eh
 * total energy  :   -79.4825447 Eh     change       -0.4717150E-05 Eh
   *** GEOMETRY OPTIMIZATION CONVERGED AFTER 68 ITERATIONS ***

 final structure:
================
47
 xtb: 6.5.1 (579679a)
C            5.45763558994920       -1.47091235487237       -1.78936709861153
C            5.07991785598424       -0.09545851455779       -1.15657777640737
C            6.16259108627808        0.31535666722743       -0.24039151307633
C            5.89794307115935        0.59623942535652        1.06195042541441
F            6.88627133589902        0.94529416761945        1.87598628881490
C            4.60205532702665        0.52424906133333        1.59658243962041
C            3.53548104609031        0.18638152294427        0.77442404578908
C            3.71883720072434       -0.09809507693715       -0.56724975285425
C            2.55787155143328       -0.39798297385617       -1.45720887775182
N            1.34082033522447       -0.61682795999500       -0.71411150526138
C            0.31934290513329        0.27730983596214       -0.78514893481111
O            0.34144960545784        1.23092102662851       -1.54413700060207
C           -0.81940889029079       -0.00919045893781        0.14216146448485
N           -2.03641040361458        0.45775101107141       -0.25535092268812
C           -3.09493693578880        0.31082022986211        0.48185098761229
C           -4.40437514571849        0.80586700703205       -0.12163955394652
C           -4.10422555399888        1.61578003586365       -1.39460270767670
C           -5.28674681762772       -0.39694975869642       -0.48306417310348
N           -5.10755477750360        1.65464339090729        0.83124686373711
N           -3.04029248349794       -0.30042236501543        1.70736290420455
C           -4.19001622886750       -0.49457609761148        2.59640968628903
C           -1.85295325269864       -0.80851840942978        2.20378727583326
O           -1.77913265636329       -1.36934716935781        3.29379725010179
C           -0.69821792142437       -0.63462722682084        1.34749965061937
O            0.46983739424594       -1.10760200562451        1.83659609043077
H            5.40448710615448       -2.24569127884363       -1.02826986628179
H            4.77287766404863       -1.70305884665846       -2.60061350421903
H            6.47015783345790       -1.41556525223308       -2.18319466702081
H            5.08113483064029        0.60257293999699       -2.00941708139192
H            7.17273727880503        0.35284481397748       -0.62890130761334
H            4.44849621759805        0.74087210130960        2.64719742551809
H            2.53776174844832        0.14451510882158        1.19834867460540
H            2.38734828179651        0.45751092039320       -2.12722350985752
H            2.77235990425723       -1.26629758660718       -2.08776767594372
H            1.31249545550676       -1.39811276846564       -0.08260727757750
H           -3.62914812978131        0.98121805595814       -2.14141792643824
H           -3.43898713948796        2.44610211814647       -1.16361553604680
H           -5.03605485669843        2.00824154923032       -1.79772726987327
H           -4.74096372578683       -1.07135203817038       -1.14168260762120
H           -5.58871370978341       -0.94304947720300        0.40785481385291
H           -6.18203404318211       -0.05039145129340       -0.99735445492751
H           -6.02346602191112        1.89002595383242        0.47831352500291
H           -4.58917051145757        2.50415169131800        1.00257217288026
H           -4.96389256623756        0.23281040298506        2.36782086803198
H           -4.57069734979664       -1.50887973419082        2.47513659408325
H           -3.84758095265442       -0.36199011952742        3.62294825470910
H            0.29507144886339       -1.51657911286725        2.70649079997034

          :  Hamiltonian                  GFN1-xTB          :
         :: total energy             -79.482544721084 Eh    ::
         :: gradient norm              0.000364950894 Eh/a0 ::
         :: HOMO-LUMO gap              0.157712653887 eV    ::
         :: SCC energy               -80.365165389035 Eh    ::
         :: -> Gsolv                  -0.108285146023 Eh    ::
         :: repulsion energy           0.912805124638 Eh    ::

    * Orbital Energies and Occupations

         #    Occupation            Energy/Eh            Energy/eV
      -------------------------------------------------------------
         1        2.0000           -0.9131557             -24.8482
       ...           ...                  ...                  ...
        55        2.0000           -0.5209935             -14.1770
        56        2.0000           -0.5174005             -14.0792
        57        2.0000           -0.5091318             -13.8542
        58        2.0000           -0.5019412             -13.6585
        59        2.0000           -0.4985328             -13.5658
        60        2.0000           -0.4938733             -13.4390
        61        2.0000           -0.4808583             -13.0848
        62        2.0000           -0.4751247             -12.9288
        63        2.0000           -0.4633948             -12.6096
        64        2.0000           -0.4593408             -12.4993
        65        2.0000           -0.4456179             -12.1259
        66        2.0000           -0.4310044             -11.7282
        67        1.9096           -0.4229935             -11.5102 (HOMO)
        68        0.0904           -0.4171976             -11.3525 (LUMO)
        69                         -0.3229391              -8.7876
        70                         -0.3206683              -8.7258
        71                         -0.2837613              -7.7215
        72                         -0.2440396              -6.6407
        73                         -0.2403528              -6.5403
        74                         -0.1656618              -4.5079
        75                         -0.1633173              -4.4441
        76                         -0.1514945              -4.1224
        77                         -0.1463801              -3.9832
        78                         -0.1395375              -3.7970
       ...                                ...                  ...
       144                          0.7060904              19.2137
      -------------------------------------------------------------
                  HL-Gap            0.0057958 Eh            0.1577 eV

Wiberg/Mayer (AO) data.
largest (>0.10) Wiberg bond orders for each atom

     #   Z sym  total        # sym  WBO       # sym  WBO       # sym  WBO
 ---------------------------------------------------------------------------
     1   6 C    3.955 --    26 H    0.985    28 H    0.981    27 H    0.977
                             2 C    0.895
     2   6 C    3.988 --     3 C    1.079     8 C    1.075     1 C    0.895
                            29 H    0.873
     3   6 C    3.928 --     4 C    1.548     2 C    1.079    30 H    0.960
     4   6 C    3.882 --     3 C    1.548     6 C    1.281     5 F    0.964
     5   9 F    1.105 --     4 C    0.964
     6   6 C    3.905 --     7 C    1.426     4 C    1.281    31 H    0.961
     7   6 C    3.982 --     8 C    1.465     6 C    1.426    32 H    0.954
     8   6 C    3.894 --     7 C    1.465     2 C    1.075     9 C    1.047
     9   6 C    3.957 --     8 C    1.047    10 N    0.970    34 H    0.936
                            33 H    0.915
    10   7 N    3.321 --    11 C    1.218     9 C    0.970    35 H    0.886
                            12 O    0.161
    11   6 C    3.896 --    12 O    1.609    10 N    1.218    13 C    0.989
    12   8 O    1.904 --    11 C    1.609    10 N    0.161
    13   6 C    3.965 --    24 C    1.507    14 N    1.205    11 C    0.989
    14   7 N    3.026 --    15 C    1.553    13 C    1.205
    15   6 C    3.920 --    14 N    1.553    20 N    1.183    16 C    0.974
    16   6 C    3.955 --    17 C    0.984    18 C    0.983    19 N    0.980
                            15 C    0.974
    17   6 C    3.979 --    38 H    0.985    37 H    0.984    16 C    0.984
                            36 H    0.982
    18   6 C    3.991 --    39 H    0.985    16 C    0.983    41 H    0.982
                            40 H    0.982
    19   7 N    2.962 --    16 C    0.980    43 H    0.932    42 H    0.930
    20   7 N    3.518 --    15 C    1.183    22 C    1.130    21 C    0.925
                            23 O    0.133
    21   6 C    3.910 --    46 H    0.975    45 H    0.975    44 H    0.966
                            20 N    0.925
    22   6 C    3.917 --    23 O    1.547    20 N    1.130    24 C    1.092
    23   8 O    1.890 --    22 C    1.547    20 N    0.133
    24   6 C    3.913 --    13 C    1.507    22 C    1.092    25 O    1.065
    25   8 O    2.061 --    24 C    1.065    47 H    0.798
    26   1 H    0.994 --     1 C    0.985
    27   1 H    0.997 --     1 C    0.977
    28   1 H    0.993 --     1 C    0.981
    29   1 H    0.977 --     2 C    0.873
    30   1 H    0.986 --     3 C    0.960
    31   1 H    0.988 --     6 C    0.961
    32   1 H    1.006 --     7 C    0.954
    33   1 H    0.999 --     9 C    0.915
    34   1 H    0.995 --     9 C    0.936
    35   1 H    0.934 --    10 N    0.886
    36   1 H    1.009 --    17 C    0.982
    37   1 H    1.009 --    17 C    0.984
    38   1 H    1.002 --    17 C    0.985
    39   1 H    1.002 --    18 C    0.985
    40   1 H    1.002 --    18 C    0.982
    41   1 H    0.999 --    18 C    0.982
    42   1 H    0.945 --    19 N    0.930
    43   1 H    0.948 --    19 N    0.932
    44   1 H    1.022 --    21 C    0.966
    45   1 H    1.002 --    21 C    0.975
    46   1 H    1.006 --    21 C    0.975
    47   1 H    0.840 --    25 O    0.798
 ---------------------------------------------------------------------------

           -------------------------------------------------
          | TOTAL ENERGY              -79.482544721084 Eh   |
          | GRADIENT NORM               0.000364950894 Eh/α |
          | HOMO-LUMO GAP               0.157712653887 eV   |
           -------------------------------------------------

 * finished run on 2023/06/20 at 15:28:50.065
