   * xtb version 6.5.1 (579679a) compiled by 'ehlert@majestix' on 2022-07-11
          program call               : /lustre/hpc/kemi/ree/PhD/git/ReactivityQM/dep/xtb-6.5.1/bin/xtb --gfn 1 /lustre/hpc/kemi/ree/PhD/git/ReactivityQM/calculations/R03/reac02prodE07/conf16/R03_reac02prodE07_conf16_gfn1.xyz --opt --vfukui --chrg -1 --uhf 0 --alpb DMSO

   ID    Z sym.   atoms
    1    6 C      1, 3, 5, 7-10, 12, 14, 15, 18, 19, 22, 23, 25
    2    8 O      2, 4, 13, 20, 24, 26
    3    7 N      6, 11, 16, 17, 21
    4    1 H      27-46

      * Solvation model:               ALPB
        Solvent                        DMSO
        Solvent mass                       7.8130E+01 g/mol
          :  Hamiltonian                  GFN1-xTB          :
 * total energy  :   -86.9909838 Eh     change       -0.6654943E-10 Eh
 * total energy  :   -87.0035343 Eh     change       -0.1255054E-01 Eh
 * total energy  :   -87.0089349 Eh     change       -0.5400618E-02 Eh
 * total energy  :   -87.0100632 Eh     change       -0.1128275E-02 Eh
 * total energy  :   -87.0107342 Eh     change       -0.6709799E-03 Eh
 * total energy  :   -87.0109920 Eh     change       -0.2577754E-03 Eh
 * total energy  :   -87.0112283 Eh     change       -0.2363062E-03 Eh
 * total energy  :   -87.0114217 Eh     change       -0.1933904E-03 Eh
 * total energy  :   -87.0115670 Eh     change       -0.1453522E-03 Eh
 * total energy  :   -87.0116956 Eh     change       -0.1285734E-03 Eh
 * total energy  :   -87.0146626 Eh     change       -0.1560633E-04 Eh
 * total energy  :   -87.0146710 Eh     change       -0.8375881E-05 Eh
 * total energy  :   -87.0146798 Eh     change       -0.8816812E-05 Eh
 * total energy  :   -87.0146932 Eh     change       -0.1333386E-04 Eh
 * total energy  :   -87.0147039 Eh     change       -0.1073176E-04 Eh
 * total energy  :   -87.0147121 Eh     change       -0.8258284E-05 Eh
 * total energy  :   -87.0147186 Eh     change       -0.6485250E-05 Eh
 * total energy  :   -87.0147261 Eh     change       -0.7487394E-05 Eh
 * total energy  :   -87.0147289 Eh     change       -0.2813743E-05 Eh
   *** GEOMETRY OPTIMIZATION CONVERGED AFTER 94 ITERATIONS ***

 final structure:
================
46
 xtb: 6.5.1 (579679a)
C           -4.40587818945390        3.77221684339606       -0.97629178552657
O           -4.23210832095272        2.37510455085176       -0.77794294053790
C           -2.96402419950753        1.97037393381487       -0.50162473278004
O           -2.04091045040514        2.77246894702203       -0.43742192876122
C           -2.83688851409548        0.53201340767637       -0.29615323116536
N           -1.55758577205360        0.09492491648481       -0.04977364446895
C           -1.26757797834919       -1.14251305468042        0.17132893485116
C            0.21652633063337       -1.45693657127504        0.40355089266119
C            0.80575744278181       -2.03625072856479       -0.89785494740906
C            0.46033724528376       -2.38978558150027        1.60120586578290
N            0.87351911941382       -0.17270756124418        0.72647283416306
C            2.25015550179409       -0.04169641381538        0.39109474354329
O            3.13903973666712       -0.94180984223932        0.95809776450284
C            4.03045638231144       -0.42484687803643        1.94362490864885
C            2.64368392218625        1.04373880293498       -0.35291081321479
N            1.82169568072171        1.94233173819463       -0.92945931507276
N            2.63530275461138        2.83881160146643       -1.57880778587944
C            3.85519129960854        2.47582338368563       -1.38724834023876
C            5.08575936768933        3.13026769709069       -1.90058343487339
O            3.96461774532736        1.34882958149216       -0.62015612114598
N           -2.24305137418390       -2.12592103601142        0.14469559532160
C           -2.00570013135763       -3.54940110513548        0.35692771387512
C           -3.58853763944297       -1.78491155335155       -0.06586048230646
O           -4.48662652869218       -2.64414525054519       -0.05226187478787
C           -3.86234038352020       -0.40619194821645       -0.30276873273862
O           -5.16994013795155       -0.09642081852261       -0.51377583915607
H           -4.11427103029501        4.32904364988906       -0.08001106656588
H           -3.80455279857687        4.12143166232351       -1.82195805755393
H           -5.46263704417978        3.93397827363411       -1.18354534711430
H            0.24819862800378       -2.90981317016899       -1.22644240869152
H            0.76828353015192       -1.28370084739418       -1.68557609930289
H            1.84177949139293       -2.32931205838440       -0.73647897015413
H            0.37618573153603       -3.43800898223262        1.32936994686937
H           -0.23974047545321       -2.16614579812886        2.40529349991217
H            1.46994883241573       -2.22729370680532        1.97327573933599
H            0.36596931755590        0.59161493446044        0.26213643311529
H            4.69424421310376        0.33568668557236        1.51676750917420
H            3.48054470819809        0.01011563901620        2.78736944557847
H            4.62905603087639       -1.26501713862387        2.29854114281014
H            5.66910605281771        2.42886280241919       -2.49783832461003
H            4.81264232152743        3.98485395212862       -2.51586278978270
H            5.71256556725041        3.46917828022372       -1.07501627457605
H           -1.91624214904519       -3.76775511444808        1.42128219076161
H           -1.11362420966004       -3.87854374381599       -0.16710855399602
H           -2.86318470475608       -4.09465019051891       -0.03825299413656
H           -5.67514592189505       -0.92789619013569       -0.46697132436338

          :  Hamiltonian                  GFN1-xTB          :
         :: total energy             -87.014728934822 Eh    ::
         :: gradient norm              0.000256866388 Eh/a0 ::
         :: HOMO-LUMO gap              0.061542216017 eV    ::
         :: SCC energy               -87.798263263168 Eh    ::
         :: -> Gsolv                  -0.116044598010 Eh    ::
         :: repulsion energy           0.812580825227 Eh    ::

    * Orbital Energies and Occupations

         #    Occupation            Energy/Eh            Energy/eV
      -------------------------------------------------------------
         1        2.0000           -0.8073867             -21.9701
       ...           ...                  ...                  ...
        59        2.0000           -0.4717871             -12.8380
        60        2.0000           -0.4516942             -12.2912
        61        2.0000           -0.4436202             -12.0715
        62        2.0000           -0.4429762             -12.0540
        63        2.0000           -0.4397262             -11.9656
        64        2.0000           -0.4298657             -11.6972
        65        2.0000           -0.4263912             -11.6027
        66        2.0000           -0.4190116             -11.4019
        67        2.0000           -0.4140381             -11.2665
        68        2.0000           -0.3982856             -10.8379
        69        2.0000           -0.3955766             -10.7642
        70        2.0000           -0.3918978             -10.6641
        71        1.5336           -0.3016727              -8.2089 (HOMO)
        72        0.4664           -0.2994110              -8.1474 (LUMO)
        73                         -0.2515892              -6.8461
        74                         -0.2091599              -5.6915
        75                         -0.2053197              -5.5870
        76                         -0.1608593              -4.3772
        77                         -0.1329729              -3.6184
        78                         -0.1274037              -3.4668
        79                         -0.1257654              -3.4223
        80                         -0.1232749              -3.3545
        81                         -0.1160388              -3.1576
        82                         -0.1120538              -3.0491
       ...                                ...                  ...
       144                          0.7082453              19.2723
      -------------------------------------------------------------
                  HL-Gap            0.0022616 Eh            0.0615 eV

Wiberg/Mayer (AO) data.
largest (>0.10) Wiberg bond orders for each atom

     #   Z sym  total        # sym  WBO       # sym  WBO       # sym  WBO
 ---------------------------------------------------------------------------
     1   6 C    3.894 --    29 H    0.987    27 H    0.980    28 H    0.980
                             2 O    0.921
     2   8 O    2.133 --     3 C    1.041     1 C    0.921     4 O    0.111
     3   6 C    3.766 --     4 O    1.574     5 C    1.085     2 O    1.041
     4   8 O    1.806 --     3 C    1.574     2 O    0.111
     5   6 C    3.841 --    25 C    1.360     6 N    1.162     3 C    1.085
     6   7 N    3.045 --     7 C    1.597     5 C    1.162
     7   6 C    3.898 --     6 N    1.597    21 N    1.132     8 C    0.974
     8   6 C    3.953 --    10 C    0.991     9 C    0.977     7 C    0.974
                            11 N    0.952
     9   6 C    3.989 --    31 H    0.985    32 H    0.981    30 H    0.979
                             8 C    0.977
    10   6 C    3.992 --     8 C    0.991    34 H    0.986    33 H    0.983
                            35 H    0.978
    11   7 N    3.024 --    12 C    1.018     8 C    0.952    36 H    0.908
    12   6 C    3.570 --    15 C    1.412    11 N    1.018    13 O    0.962
    13   8 O    2.027 --    12 C    0.962    14 C    0.924
    14   6 C    3.904 --    39 H    0.986    38 H    0.983    37 H    0.982
                            13 O    0.924
    15   6 C    3.854 --    12 C    1.412    16 N    1.313    20 O    0.972
    16   7 N    2.706 --    15 C    1.313    17 N    1.167
    17   7 N    2.982 --    18 C    1.655    16 N    1.167
    18   6 C    3.823 --    17 N    1.655    19 C    1.023    20 O    1.014
    19   6 C    3.994 --    18 C    1.023    41 H    0.986    40 H    0.973
                            42 H    0.972
    20   8 O    2.187 --    18 C    1.014    15 C    0.972
    21   7 N    3.382 --     7 C    1.132    23 C    1.070    22 C    0.943
                            24 O    0.110
    22   6 C    3.938 --    43 H    0.978    44 H    0.977    45 H    0.973
                            21 N    0.943
    23   6 C    3.848 --    24 O    1.477    25 C    1.173    21 N    1.070
    24   8 O    1.798 --    23 C    1.477    21 N    0.110
    25   6 C    3.775 --     5 C    1.360    23 C    1.173    26 O    1.052
    26   8 O    2.005 --    25 C    1.052    46 H    0.824
    27   1 H    1.012 --     1 C    0.980
    28   1 H    1.012 --     1 C    0.980
    29   1 H    1.015 --     1 C    0.987
    30   1 H    1.006 --     9 C    0.979
    31   1 H    1.007 --     9 C    0.985
    32   1 H    1.008 --     9 C    0.981
    33   1 H    1.006 --    10 C    0.983
    34   1 H    1.006 --    10 C    0.986
    35   1 H    1.019 --    10 C    0.978
    36   1 H    1.002 --    11 N    0.908
    37   1 H    1.021 --    14 C    0.982
    38   1 H    1.012 --    14 C    0.983
    39   1 H    1.017 --    14 C    0.986
    40   1 H    1.002 --    19 C    0.973
    41   1 H    1.005 --    19 C    0.986
    42   1 H    1.002 --    19 C    0.972
    43   1 H    1.004 --    22 C    0.978
    44   1 H    1.010 --    22 C    0.977
    45   1 H    1.012 --    22 C    0.973
    46   1 H    0.869 --    26 O    0.824
 ---------------------------------------------------------------------------

           -------------------------------------------------
          | TOTAL ENERGY              -87.014728934822 Eh   |
          | GRADIENT NORM               0.000256866388 Eh/α |
          | HOMO-LUMO GAP               0.061542216017 eV   |
           -------------------------------------------------

 * finished run on 2023/06/20 at 15:22:48.205
