                         Program Version 5.0.1 -  RELEASE  -
|  1> # ORCA input file
|  2> ! SP r2SCAN-3c CPCM
|  3>
|  4> %maxcore 1875.0
|  5> %pal nprocs 4 end
|  6> %cpcm smd true SMDsolvent "DMSO" end
|  7>
|  8> *xyz 0 1
|  9> C      -3.553425    1.709719   -1.143277
| 10> O      -4.325604    0.858907   -0.298199
| 11> C      -3.881300   -0.227989    0.310706
| 12> O      -4.806454   -0.848445    1.014109
| 13> C      -6.139257   -0.334453    1.030152
| 14> C      -2.588978   -0.758969    0.272797
| 15> N      -1.631077   -0.061338   -0.460185
| 16> C      -0.434559   -0.502321   -0.543750
| 17> C       0.616326    0.219803   -1.361005
| 18> C       0.220538    1.676710   -1.609049
| 19> C       0.816966   -0.524713   -2.684630
| 20> N       1.883321    0.171521   -0.627152
| 21> C       1.978771    0.625288    0.642803
| 22> O       1.033079    0.986412    1.322799
| 23> C       3.368735    0.599495    1.159045
| 24> N       3.784019    0.920178    2.344549
| 25> N       5.131951    0.719601    2.356900
| 26> C       5.456353    0.288431    1.177834
| 27> C       6.800865   -0.074024    0.680440
| 28> O       4.386951    0.188964    0.371872
| 29> N      -0.028146   -1.679458    0.042567
| 30> C      -0.834907   -2.474169    0.809355
| 31> O      -0.413637   -3.501691    1.309880
| 32> C      -2.264770   -1.980298    0.973842
| 33> O      -3.041611   -2.631951    1.663595
| 34> H      -2.741669    2.175991   -0.582779
| 35> H      -4.245410    2.470838   -1.503907
| 36> H      -3.142382    1.149406   -1.984006
| 37> H      -6.152465    0.675728    1.444198
| 38> H      -6.716027   -1.008902    1.660731
| 39> H      -6.549756   -0.317962    0.018769
| 40> H      -0.672645    1.710171   -2.229536
| 41> H       1.029183    2.192885   -2.122174
| 42> H       0.016111    2.177633   -0.663419
| 43> H       1.578386   -0.024687   -3.279800
| 44> H      -0.117255   -0.535642   -3.243592
| 45> H       1.130601   -1.550332   -2.497526
| 46> H       2.723025   -0.003949   -1.151087
| 47> H       7.085454    0.591238   -0.134554
| 48> H       7.526213    0.007001    1.486418
| 49> H       6.790856   -1.092397    0.293339
| 50> H       0.923628   -1.982228   -0.096382
| 51> **                         ****END OF INPUT****

CARTESIAN COORDINATES (ANGSTROEM)
---------------------------------
  C     -3.553425    1.709719   -1.143277
  O     -4.325604    0.858907   -0.298199
  C     -3.881300   -0.227989    0.310706
  O     -4.806454   -0.848445    1.014109
  C     -6.139257   -0.334453    1.030152
  C     -2.588978   -0.758969    0.272797
  N     -1.631077   -0.061338   -0.460185
  C     -0.434559   -0.502321   -0.543750
  C      0.616326    0.219803   -1.361005
  C      0.220538    1.676710   -1.609049
  C      0.816966   -0.524713   -2.684630
  N      1.883321    0.171521   -0.627152
  C      1.978771    0.625288    0.642803
  O      1.033079    0.986412    1.322799
  C      3.368735    0.599495    1.159045
  N      3.784019    0.920178    2.344549
  N      5.131951    0.719601    2.356900
  C      5.456353    0.288431    1.177834
  C      6.800865   -0.074024    0.680440
  O      4.386951    0.188964    0.371872
  N     -0.028146   -1.679458    0.042567
  C     -0.834907   -2.474169    0.809355
  O     -0.413637   -3.501691    1.309880
  C     -2.264770   -1.980298    0.973842
  O     -3.041611   -2.631951    1.663595
  H     -2.741669    2.175991   -0.582779
  H     -4.245410    2.470838   -1.503907
  H     -3.142382    1.149406   -1.984006
  H     -6.152465    0.675728    1.444198
  H     -6.716027   -1.008902    1.660731
  H     -6.549756   -0.317962    0.018769
  H     -0.672645    1.710171   -2.229536
  H      1.029183    2.192885   -2.122174
  H      0.016111    2.177633   -0.663419
  H      1.578386   -0.024687   -3.279800
  H     -0.117255   -0.535642   -3.243592
  H      1.130601   -1.550332   -2.497526
  H      2.723025   -0.003949   -1.151087
  H      7.085454    0.591238   -0.134554
  H      7.526213    0.007001    1.486418
  H      6.790856   -1.092397    0.293339
  H      0.923628   -1.982228   -0.096382

 Total Charge           Charge          ....    0
 Multiplicity           Mult            ....    1
 Number of Electrons    NEL             ....  184
 Basis Dimension        Dim             ....  615

ORBITAL ENERGIES
----------------

  NO   OCC          E(Eh)            E(eV)
   0   2.0000     -19.066082      -518.8145
   1   2.0000     -19.023816      -517.6643
   2   2.0000     -19.017242      -517.4855
   3   2.0000     -18.938568      -515.3446
   4   2.0000     -18.925826      -514.9979
   5   2.0000     -18.915361      -514.7131
   6   2.0000     -14.209664      -386.6646
   7   2.0000     -14.206510      -386.5788
   8   2.0000     -14.202396      -386.4669
   9   2.0000     -14.198172      -386.3519
  10   2.0000     -14.152312      -385.1040
  11   2.0000     -10.185287      -277.1557
  12   2.0000     -10.159135      -276.4441
  13   2.0000     -10.148293      -276.1491
  14   2.0000     -10.144129      -276.0358
  15   2.0000     -10.134376      -275.7704
  16   2.0000     -10.109027      -275.0806
  17   2.0000     -10.106167      -275.0028
  18   2.0000     -10.099979      -274.8344
  19   2.0000     -10.083602      -274.3888
  20   2.0000     -10.081852      -274.3411
  21   2.0000     -10.070437      -274.0305
  22   2.0000     -10.046146      -273.3695
  23   2.0000     -10.027676      -272.8669
  24   2.0000     -10.018427      -272.6153
  25   2.0000      -1.156428       -31.4680
  26   2.0000      -1.109273       -30.1848
  27   2.0000      -1.035009       -28.1640
  28   2.0000      -1.028118       -27.9765
  29   2.0000      -1.019571       -27.7439
  30   2.0000      -0.978475       -26.6256
  31   2.0000      -0.976822       -26.5807
  32   2.0000      -0.953144       -25.9364
  33   2.0000      -0.912952       -24.8427
  34   2.0000      -0.867058       -23.5939
  35   2.0000      -0.832799       -22.6616
  36   2.0000      -0.780603       -21.2413
  37   2.0000      -0.753623       -20.5071
  38   2.0000      -0.714710       -19.4482
  39   2.0000      -0.707330       -19.2474
  40   2.0000      -0.688785       -18.7428
  41   2.0000      -0.668649       -18.1949
  42   2.0000      -0.664862       -18.0918
  43   2.0000      -0.645972       -17.5778
  44   2.0000      -0.620118       -16.8743
  45   2.0000      -0.603154       -16.4126
  46   2.0000      -0.585003       -15.9187
  47   2.0000      -0.558850       -15.2071
  48   2.0000      -0.551571       -15.0090
  49   2.0000      -0.534355       -14.5406
  50   2.0000      -0.529817       -14.4171
  51   2.0000      -0.515399       -14.0247
  52   2.0000      -0.500999       -13.6329
  53   2.0000      -0.495590       -13.4857
  54   2.0000      -0.481259       -13.0957
  55   2.0000      -0.476996       -12.9797
  56   2.0000      -0.461628       -12.5615
  57   2.0000      -0.448378       -12.2010
  58   2.0000      -0.431338       -11.7373
  59   2.0000      -0.424674       -11.5560
  60   2.0000      -0.423483       -11.5235
  61   2.0000      -0.418712       -11.3937
  62   2.0000      -0.413851       -11.2615
  63   2.0000      -0.409250       -11.1363
  64   2.0000      -0.405820       -11.0429
  65   2.0000      -0.401229       -10.9180
  66   2.0000      -0.393833       -10.7167
  67   2.0000      -0.388042       -10.5592
  68   2.0000      -0.383269       -10.4293
  69   2.0000      -0.382167       -10.3993
  70   2.0000      -0.376515       -10.2455
  71   2.0000      -0.361884        -9.8474
  72   2.0000      -0.359274        -9.7763
  73   2.0000      -0.353378        -9.6159
  74   2.0000      -0.345552        -9.4029
  75   2.0000      -0.338625        -9.2145
  76   2.0000      -0.337296        -9.1783
  77   2.0000      -0.334454        -9.1009
  78   2.0000      -0.331826        -9.0295
  79   2.0000      -0.323729        -8.8091
  80   2.0000      -0.320793        -8.7292
  81   2.0000      -0.315429        -8.5833
  82   2.0000      -0.289875        -7.8879
  83   2.0000      -0.269096        -7.3225
  84   2.0000      -0.266968        -7.2646
  85   2.0000      -0.263698        -7.1756
  86   2.0000      -0.261676        -7.1206
  87   2.0000      -0.254398        -6.9225
  88   2.0000      -0.247469        -6.7340
  89   2.0000      -0.233192        -6.3455
  90   2.0000      -0.197851        -5.3838
  91   2.0000      -0.187348        -5.0980
  92   0.0000      -0.091484        -2.4894
  93   0.0000      -0.088921        -2.4197
  94   0.0000      -0.022511        -0.6126
  95   0.0000      -0.020625        -0.5612
  96   0.0000       0.006307         0.1716

MULLIKEN ATOMIC CHARGES
-----------------------
   0 C :   -0.329006
   1 O :   -0.158950
   2 C :    0.282421
   3 O :   -0.127344
   4 C :   -0.315585
   5 C :   -0.108174
   6 N :   -0.111046
   7 C :    0.169046
   8 C :    0.116190
   9 C :   -0.626822
  10 C :   -0.542359
  11 N :   -0.190488
  12 C :   -0.127888
  13 O :   -0.419230
  14 C :    0.437622
  15 N :   -0.172566
  16 N :   -0.281897
  17 C :    0.396734
  18 C :   -0.632496
  19 O :   -0.057299
  20 N :   -0.032033
  21 C :    0.037886
  22 O :   -0.378221
  23 C :    0.046612
  24 O :   -0.347382
  25 H :    0.185506
  26 H :    0.172893
  27 H :    0.184367
  28 H :    0.181658
  29 H :    0.183467
  30 H :    0.182122
  31 H :    0.185571
  32 H :    0.185361
  33 H :    0.198527
  34 H :    0.188552
  35 H :    0.196317
  36 H :    0.188162
  37 H :    0.319444
  38 H :    0.202851
  39 H :    0.205353
  40 H :    0.200014
  41 H :    0.312112
Sum of atomic charges:   -0.0000000

LOEWDIN ATOMIC CHARGES
----------------------
   0 C :   -0.012306
   1 O :   -0.562326
   2 C :    0.477282
   3 O :   -0.545590
   4 C :   -0.019986
   5 C :    0.136731
   6 N :   -0.600886
   7 C :    0.336720
   8 C :    0.105030
   9 C :   -0.343977
  10 C :   -0.339493
  11 N :   -0.579062
  12 C :    0.380822
  13 O :   -0.433992
  14 C :    0.414030
  15 N :   -0.332883
  16 N :   -0.359174
  17 C :    0.379652
  18 C :   -0.316547
  19 O :   -0.391830
  20 N :   -0.468256
  21 C :    0.367855
  22 O :   -0.437758
  23 C :    0.275774
  24 O :   -0.486379
  25 H :    0.189705
  26 H :    0.182727
  27 H :    0.190135
  28 H :    0.185855
  29 H :    0.190013
  30 H :    0.186191
  31 H :    0.174735
  32 H :    0.169639
  33 H :    0.180401
  34 H :    0.173888
  35 H :    0.178025
  36 H :    0.174270
  37 H :    0.300275
  38 H :    0.192670
  39 H :    0.191324
  40 H :    0.191497
  41 H :    0.305198

  Mayer bond orders larger than 0.100000
B(  0-C ,  1-O ) :   0.8526 B(  0-C , 25-H ) :   0.9410 B(  0-C , 26-H ) :   0.9556
B(  0-C , 27-H ) :   0.9439 B(  1-O ,  2-C ) :   1.2252 B(  2-C ,  3-O ) :   1.2711
B(  2-C ,  5-C ) :   1.3026 B(  3-O ,  4-C ) :   0.8144 B(  4-C , 28-H ) :   0.9513
B(  4-C , 29-H ) :   0.9605 B(  4-C , 30-H ) :   0.9517 B(  5-C ,  6-N ) :   0.9627
B(  5-C , 23-C ) :   1.0019 B(  5-C , 24-O ) :  -0.1014 B(  6-N ,  7-C ) :   1.7502
B(  7-C ,  8-C ) :   0.7940 B(  7-C , 20-N ) :   0.9776 B(  8-C ,  9-C ) :   0.8837
B(  8-C , 10-C ) :   0.9586 B(  8-C , 11-N ) :   0.7728 B(  9-C , 31-H ) :   0.9561
B(  9-C , 32-H ) :   0.9748 B(  9-C , 33-H ) :   0.9662 B( 10-C , 34-H ) :   0.9626
B( 10-C , 35-H ) :   0.9675 B( 10-C , 36-H ) :   0.9511 B( 11-N , 12-C ) :   1.1661
B( 11-N , 37-H ) :   0.8910 B( 12-C , 13-O ) :   1.8794 B( 12-C , 14-C ) :   0.7852
B( 13-O , 14-C ) :  -0.1016 B( 14-C , 15-N ) :   1.7245 B( 14-C , 17-C ) :   0.1188
B( 14-C , 19-O ) :   1.0719 B( 15-N , 16-N ) :   1.2699 B( 16-N , 17-C ) :   1.6227
B( 17-C , 18-C ) :   0.8267 B( 17-C , 19-O ) :   1.0666 B( 18-C , 38-H ) :   0.9389
B( 18-C , 39-H ) :   0.9895 B( 18-C , 40-H ) :   0.9458 B( 20-N , 21-C ) :   1.0255
B( 20-N , 41-H ) :   0.8820 B( 21-C , 22-O ) :   2.0740 B( 21-C , 23-C ) :   0.8580
B( 23-C , 24-O ) :   1.9552

Dispersion correction           -0.019112201
FINAL SINGLE POINT ENERGY     -1268.618793312647

DIPOLE MOMENT
-------------
                                X             Y             Z
Electronic contribution:      2.83334      -7.98982      13.40628
Nuclear contribution   :     -1.79407      10.38598     -19.03633
                        -----------------------------------------
Total Dipole Moment    :      1.03927       2.39616      -5.63006
                        -----------------------------------------
Magnitude (a.u.)       :      6.20638
Magnitude (Debye)      :     15.77537

Rotational constants in cm-1:     0.015258     0.003654     0.003395
Rotational constants in MHz :   457.412071   109.530667   101.772614

                             ****ORCA TERMINATED NORMALLY****
TOTAL RUN TIME: 0 days 0 hours 1 minutes 17 seconds 618 msec
