   * xtb version 6.5.1 (579679a) compiled by 'ehlert@majestix' on 2022-07-11
          program call               : /lustre/hpc/kemi/ree/PhD/git/ReactivityQM/dep/xtb-6.5.1/bin/xtb --gfn 1 /lustre/hpc/kemi/ree/PhD/git/ReactivityQM/calculations/R02oxygendeprot/reac01prodN04/conf19/R02oxygendeprot_reac01prodN04_conf19_gfn1.xyz --opt --vfukui --chrg 0 --uhf 0 --alpb DMSO

   ID    Z sym.   atoms
    1    6 C      1, 3, 5, 6, 8-11, 13, 15, 18, 19, 22, 24
    2    8 O      2, 4, 14, 20, 23, 25
    3    7 N      7, 12, 16, 17, 21
    4    1 H      26-42

      * Solvation model:               ALPB
        Solvent                        DMSO
        Solvent mass                       7.8130E+01 g/mol
          :  Hamiltonian                  GFN1-xTB          :
 * total energy  :   -82.9724057 Eh     change       -0.1075762E-10 Eh
 * total energy  :   -82.9886076 Eh     change       -0.1620183E-01 Eh
 * total energy  :   -82.9942549 Eh     change       -0.5647303E-02 Eh
 * total energy  :   -82.9958591 Eh     change       -0.1604189E-02 Eh
 * total energy  :   -82.9969651 Eh     change       -0.1106067E-02 Eh
 * total energy  :   -82.9976771 Eh     change       -0.7119917E-03 Eh
 * total energy  :   -82.9982530 Eh     change       -0.5759223E-03 Eh
 * total energy  :   -82.9986940 Eh     change       -0.4409365E-03 Eh
 * total energy  :   -82.9989372 Eh     change       -0.2432301E-03 Eh
 * total energy  :   -82.9990565 Eh     change       -0.1193146E-03 Eh
 * total energy  :   -83.0005556 Eh     change       -0.2127049E-04 Eh
 * total energy  :   -83.0005846 Eh     change       -0.2908143E-04 Eh
 * total energy  :   -83.0006146 Eh     change       -0.2994082E-04 Eh
 * total energy  :   -83.0006281 Eh     change       -0.1348730E-04 Eh
 * total energy  :   -83.0006525 Eh     change       -0.2441463E-04 Eh
 * total energy  :   -83.0006849 Eh     change       -0.3240525E-04 Eh
 * total energy  :   -83.0006977 Eh     change       -0.1281216E-04 Eh
 * total energy  :   -83.0007153 Eh     change       -0.1764220E-04 Eh
 * total energy  :   -83.0007197 Eh     change       -0.4401590E-05 Eh
   *** GEOMETRY OPTIMIZATION CONVERGED AFTER 44 ITERATIONS ***

 final structure:
================
42
 xtb: 6.5.1 (579679a)
C           -3.55342466362213        1.70971936729740       -1.14327674381433
O           -4.32560383126210        0.85890709836354       -0.29819859153387
C           -3.88129962965117       -0.22798943307137        0.31070601679227
O           -4.80645433106423       -0.84844511623787        1.01410860773873
C           -6.13925749103037       -0.33445313897072        1.03015175130036
C           -2.58897759139739       -0.75896918102207        0.27279713774379
N           -1.63107690772330       -0.06133806679941       -0.46018517699484
C           -0.43455912834367       -0.50232064652596       -0.54375023530260
C            0.61632644633172        0.21980325782683       -1.36100504575644
C            0.22053756184550        1.67671026091875       -1.60904928513737
C            0.81696551220838       -0.52471261805850       -2.68463005526572
N            1.88332127938859        0.17152146624259       -0.62715214816125
C            1.97877082974874        0.62528788975095        0.64280348306458
O            1.03307916000911        0.98641161509401        1.32279894900825
C            3.36873482590921        0.59949538782473        1.15904492096233
N            3.78401946909313        0.92017757363945        2.34454918585697
N            5.13195055770608        0.71960127166342        2.35689981606744
C            5.45635323132422        0.28843070156176        1.17783437428003
C            6.80086530517550       -0.07402436506714        0.68043998079387
O            4.38695148589018        0.18896389366443        0.37187214109724
N           -0.02814551689853       -1.67945833413678        0.04256746165638
C           -0.83490688055491       -2.47416927651657        0.80935452760676
O           -0.41363660991370       -3.50169134898274        1.30988012645596
C           -2.26477017896994       -1.98029818476948        0.97384189824910
O           -3.04161064272848       -2.63195117565869        1.66359454239972
H           -2.74166910072790        2.17599146500597       -0.58277868932308
H           -4.24540951352909        2.47083764687913       -1.50390743770313
H           -3.14238227877670        1.14940639862866       -1.98400576893705
H           -6.15246495931169        0.67572771148906        1.44419833496899
H           -6.71602746367482       -1.00890154535125        1.66073115986188
H           -6.54975609251817       -0.31796190788967        0.01876885892553
H           -0.67264501190030        1.71017100341596       -2.22953591584547
H            1.02918252796529        2.19288491718703       -2.12217424818110
H            0.01611141392980        2.17763340600862       -0.66341926628793
H            1.57838637227027       -0.02468691738110       -3.27980046072717
H           -0.11725479893686       -0.53564225166901       -3.24359182197058
H            1.13060084024742       -1.55033151590995       -2.49752603235097
H            2.72302452851696       -0.00394883413120       -1.15108726008517
H            7.08545374475012        0.59123764045248       -0.13455374595570
H            7.52621344343959        0.00700079769241        1.48641849576696
H            6.79085646984306       -1.09239680189688        0.29333898410402
H            0.92362761694819       -1.98222811055297       -0.09638182536056

          :  Hamiltonian                  GFN1-xTB          :
         :: total energy             -83.000719739434 Eh    ::
         :: gradient norm              0.000442880815 Eh/a0 ::
         :: HOMO-LUMO gap              2.367214202346 eV    ::
         :: SCC energy               -83.781299779204 Eh    ::
         :: -> Gsolv                  -0.073929517495 Eh    ::
         :: repulsion energy           0.807028723608 Eh    ::

    * Orbital Energies and Occupations

         #    Occupation            Energy/Eh            Energy/eV
      -------------------------------------------------------------
         1        2.0000           -0.8649337             -23.5360
       ...           ...                  ...                  ...
        55        2.0000           -0.5062356             -13.7754
        56        2.0000           -0.5046434             -13.7320
        57        2.0000           -0.4991988             -13.5839
        58        2.0000           -0.4929002             -13.4125
        59        2.0000           -0.4799855             -13.0611
        60        2.0000           -0.4756396             -12.9428
        61        2.0000           -0.4673042             -12.7160
        62        2.0000           -0.4612683             -12.5517
        63        2.0000           -0.4531099             -12.3297
        64        2.0000           -0.4517362             -12.2924
        65        2.0000           -0.4447566             -12.1024
        66        2.0000           -0.4183380             -11.3836
        67        2.0000           -0.4120052             -11.2112 (HOMO)
        68                         -0.3250117              -8.8440 (LUMO)
        69                         -0.3110965              -8.4654
        70                         -0.2702973              -7.3552
        71                         -0.2560759              -6.9682
        72                         -0.2454659              -6.6795
        73                         -0.1984481              -5.4000
        74                         -0.1533909              -4.1740
        75                         -0.1513604              -4.1187
        76                         -0.1425839              -3.8799
        77                         -0.1409211              -3.8347
        78                         -0.1319369              -3.5902
       ...                                ...                  ...
       134                          0.7555704              20.5601
      -------------------------------------------------------------
                  HL-Gap            0.0869935 Eh            2.3672 eV

Wiberg/Mayer (AO) data.
largest (>0.10) Wiberg bond orders for each atom

     #   Z sym  total        # sym  WBO       # sym  WBO       # sym  WBO
 ---------------------------------------------------------------------------
     1   6 C    3.854 --    27 H    0.981    26 H    0.976    28 H    0.976
                             2 O    0.883
     2   8 O    2.222 --     3 C    1.129     1 C    0.883
     3   6 C    3.833 --     6 C    1.339     4 O    1.150     2 O    1.129
     4   8 O    2.236 --     3 C    1.150     5 C    0.890
     5   6 C    3.863 --    30 H    0.984    29 H    0.978    31 H    0.978
                             4 O    0.890
     6   6 C    3.924 --     3 C    1.339    24 C    1.163     7 N    1.106
     7   7 N    3.044 --     8 C    1.655     6 C    1.106
     8   6 C    3.931 --     7 N    1.655    21 N    1.105     9 C    0.976
     9   6 C    3.937 --    10 C    0.991    11 C    0.985     8 C    0.976
                            12 N    0.925
    10   6 C    3.989 --     9 C    0.991    33 H    0.985    32 H    0.983
                            34 H    0.981
    11   6 C    3.988 --     9 C    0.985    36 H    0.984    37 H    0.984
                            35 H    0.982
    12   7 N    3.341 --    13 C    1.248     9 C    0.925    38 H    0.891
                            14 O    0.174
    13   6 C    3.917 --    14 O    1.590    12 N    1.248    15 C    0.994
    14   8 O    1.892 --    13 C    1.590    12 N    0.174
    15   6 C    3.872 --    16 N    1.622    20 O    1.047    13 C    0.994
    16   7 N    3.000 --    15 C    1.622    17 N    1.199
    17   7 N    2.981 --    18 C    1.610    16 N    1.199
    18   6 C    3.868 --    17 N    1.610    20 O    1.074    19 C    1.032
    19   6 C    3.986 --    18 C    1.032    40 H    0.982    41 H    0.964
                            39 H    0.961
    20   8 O    2.317 --    18 C    1.074    15 C    1.047
    21   7 N    3.440 --    22 C    1.166     8 C    1.105    42 H    0.887
                            23 O    0.139
    22   6 C    3.884 --    23 O    1.631    21 N    1.166    24 C    0.940
    23   8 O    1.909 --    22 C    1.631    21 N    0.139
    24   6 C    3.919 --    25 O    1.631     6 C    1.163    22 C    0.940
    25   8 O    1.916 --    24 C    1.631
    26   1 H    1.019 --     1 C    0.976
    27   1 H    1.008 --     1 C    0.981
    28   1 H    1.020 --     1 C    0.976
    29   1 H    1.006 --     5 C    0.978
    30   1 H    1.009 --     5 C    0.984
    31   1 H    1.005 --     5 C    0.978
    32   1 H    1.006 --    10 C    0.983
    33   1 H    1.001 --    10 C    0.985
    34   1 H    1.010 --    10 C    0.981
    35   1 H    0.996 --    11 C    0.982
    36   1 H    1.000 --    11 C    0.984
    37   1 H    0.999 --    11 C    0.984
    38   1 H    0.932 --    12 N    0.891
    39   1 H    0.996 --    19 C    0.961
    40   1 H    0.998 --    19 C    0.982
    41   1 H    0.996 --    19 C    0.964
    42   1 H    0.937 --    21 N    0.887
 ---------------------------------------------------------------------------

           -------------------------------------------------
          | TOTAL ENERGY              -83.000719739434 Eh   |
          | GRADIENT NORM               0.000442880815 Eh/α |
          | HOMO-LUMO GAP               2.367214202346 eV   |
           -------------------------------------------------

 * finished run on 2023/06/21 at 17:20:09.305
