   * xtb version 6.5.1 (579679a) compiled by 'ehlert@majestix' on 2022-07-11
          program call               : /lustre/hpc/kemi/ree/PhD/git/ReactivityQM/dep/xtb-6.5.1/bin/xtb --gfn 1 /lustre/hpc/kemi/ree/PhD/git/ReactivityQM/calculations/R01/reac02prodN04/conf02/R01_reac02prodN04_conf02_gfn1.xyz --opt --vfukui --chrg 1 --uhf 0 --alpb DMSO

   ID    Z sym.   atoms
    1    6 C      1, 3, 5, 6, 8, 11-14, 17
    2    8 O      2, 4, 7, 9
    3    7 N      10, 15, 16
    4    1 H      18-33

      * Solvation model:               ALPB
        Solvent                        DMSO
        Solvent mass                       7.8130E+01 g/mol
          :  Hamiltonian                  GFN1-xTB          :
 * total energy  :   -57.8325704 Eh     change       -0.2037837E-10 Eh
 * total energy  :   -57.8483259 Eh     change       -0.1575543E-01 Eh
 * total energy  :   -57.8534143 Eh     change       -0.5088403E-02 Eh
 * total energy  :   -57.8543003 Eh     change       -0.8860342E-03 Eh
 * total energy  :   -57.8546450 Eh     change       -0.3447157E-03 Eh
 * total energy  :   -57.8548322 Eh     change       -0.1871609E-03 Eh
 * total energy  :   -57.8551391 Eh     change       -0.3069213E-03 Eh
 * total energy  :   -57.8554853 Eh     change       -0.3461711E-03 Eh
 * total energy  :   -57.8559346 Eh     change       -0.4493748E-03 Eh
 * total energy  :   -57.8562580 Eh     change       -0.3233847E-03 Eh
 * total energy  :   -57.8579996 Eh     change       -0.1377635E-04 Eh
 * total energy  :   -57.8580068 Eh     change       -0.7231121E-05 Eh
 * total energy  :   -57.8580132 Eh     change       -0.6346125E-05 Eh
 * total energy  :   -57.8580201 Eh     change       -0.6874693E-05 Eh
 * total energy  :   -57.8580252 Eh     change       -0.5109467E-05 Eh
 * total energy  :   -57.8580318 Eh     change       -0.6609346E-05 Eh
 * total energy  :   -57.8580368 Eh     change       -0.5041478E-05 Eh
 * total energy  :   -57.8580429 Eh     change       -0.6068869E-05 Eh
 * total energy  :   -57.8580464 Eh     change       -0.3481677E-05 Eh
   *** GEOMETRY OPTIMIZATION CONVERGED AFTER 38 ITERATIONS ***

 final structure:
================
33
 xtb: 6.5.1 (579679a)
C            4.25028965626178        1.58218632876025       -0.58866696818995
O            2.98748847225011        1.00681705117176       -0.20357480143829
C            2.80366422530098       -0.27441023597160       -0.46980133305403
O            3.60061622411006       -0.99206830651593       -1.00656119324183
C            1.46104667719435       -0.76414224417524        0.04249171996630
C            1.40013246917314       -1.86758059480115        0.83639588901242
O            2.47679431034244       -2.56957028868488        1.16851747612277
C            0.12295535755814       -2.30152494484564        1.39616955594568
O           -0.02774849568071       -3.27958955690648        2.08925538663592
N           -0.92827355628928       -1.45209695636102        1.07162296319740
C           -0.86951953520765       -0.36940736115303        0.27962202933839
C           -2.16968074893850        0.38984680530118        0.05501051066554
C           -2.83094715075597       -0.16378619195119       -1.21838456895942
C           -3.12894737567404        0.21597830507697        1.24525522970871
N           -1.87294447772139        1.80363764603402       -0.11289842921130
N            0.29603724820768       -0.06250956548266       -0.27132252751073
C            0.43022194456909        1.00194868041509       -1.27772767659847
H            4.48042283069286        1.31147144441633       -1.62044045533542
H            4.13672788019975        2.65892871858167       -0.48866456450332
H            5.03393290276460        1.21468111921811        0.07590079426413
H            2.23636325760395       -3.31174696115937        1.75121132034261
H           -1.81391427505214       -1.71236183007809        1.48590953200408
H           -2.20098035612082       -0.00411551425599       -2.09116925165271
H           -3.01726694923182       -1.23067576067602       -1.10661085215148
H           -3.77944666711335        0.34797465160016       -1.37106065788269
H           -3.94928517597712        0.92081250338779        1.12192778649567
H           -2.62202878272574        0.43425923021479        2.18288146732115
H           -3.55044032394456       -0.78746012955706        1.28064141530939
H           -2.69256329630922        2.26983145486328       -0.47743005723839
H           -1.65687335537490        2.21271798437646        0.78654188335546
H            1.21305444875377        0.71860388821136       -1.97720199282426
H           -0.50518355828802        1.12002464201080       -1.80980785121572
H            0.68629617542086        1.93332398893600       -0.77803277867760

          :  Hamiltonian                  GFN1-xTB          :
         :: total energy             -57.858046372891 Eh    ::
         :: gradient norm              0.000736233388 Eh/a0 ::
         :: HOMO-LUMO gap              2.312433029703 eV    ::
         :: SCC energy               -58.442447794965 Eh    ::
         :: -> Gsolv                  -0.103314879322 Eh    ::
         :: repulsion energy           0.604040845174 Eh    ::

    * Orbital Energies and Occupations

         #    Occupation            Energy/Eh            Energy/eV
      -------------------------------------------------------------
         1        2.0000           -0.8905317             -24.2326
       ...           ...                  ...                  ...
        35        2.0000           -0.5617378             -15.2857
        36        2.0000           -0.5440951             -14.8056
        37        2.0000           -0.5400961             -14.6968
        38        2.0000           -0.5364695             -14.5981
        39        2.0000           -0.5320841             -14.4787
        40        2.0000           -0.5298810             -14.4188
        41        2.0000           -0.5279821             -14.3671
        42        2.0000           -0.5231337             -14.2352
        43        2.0000           -0.5197450             -14.1430
        44        2.0000           -0.5161567             -14.0453
        45        2.0000           -0.4982526             -13.5581
        46        2.0000           -0.4778725             -13.0036
        47        2.0000           -0.4420962             -12.0301 (HOMO)
        48                         -0.3571159              -9.7176 (LUMO)
        49                         -0.3525561              -9.5935
        50                         -0.2900581              -7.8929
        51                         -0.2211499              -6.0178
        52                         -0.1621490              -4.4123
        53                         -0.1558762              -4.2416
        54                         -0.1528873              -4.1603
        55                         -0.1462216              -3.9789
        56                         -0.1326437              -3.6094
        57                         -0.1238318              -3.3696
        58                         -0.1103329              -3.0023
       ...                                ...                  ...
       100                          0.7183331              19.5468
      -------------------------------------------------------------
                  HL-Gap            0.0849804 Eh            2.3124 eV

Wiberg/Mayer (AO) data.
largest (>0.10) Wiberg bond orders for each atom

     #   Z sym  total        # sym  WBO       # sym  WBO       # sym  WBO
 ---------------------------------------------------------------------------
     1   6 C    3.845 --    19 H    0.984    18 H    0.980    20 H    0.978
                             2 O    0.870
     2   8 O    2.220 --     3 C    1.142     1 C    0.870     4 O    0.147
     3   6 C    3.862 --     4 O    1.706     2 O    1.142     5 C    0.945
     4   8 O    1.968 --     3 C    1.706     2 O    0.147
     5   6 C    3.925 --     6 C    1.546    16 N    1.086     3 C    0.945
     6   6 C    3.928 --     5 C    1.546     7 O    1.134     8 C    1.043
     7   8 O    2.103 --     6 C    1.134    21 H    0.794
     8   6 C    3.903 --     9 O    1.653    10 N    1.077     6 C    1.043
     9   8 O    1.964 --     8 C    1.653    10 N    0.118
    10   7 N    3.490 --    11 C    1.274     8 C    1.077    22 H    0.863
                             9 O    0.118
    11   6 C    3.883 --    16 N    1.395    10 N    1.274    12 C    0.973
    12   6 C    3.954 --    15 N    0.994    14 C    0.984    11 C    0.973
                            13 C    0.966
    13   6 C    3.985 --    24 H    0.984    23 H    0.979    25 H    0.977
                            12 C    0.966
    14   6 C    3.988 --    12 C    0.984    27 H    0.983    26 H    0.977
                            28 H    0.976
    15   7 N    2.975 --    12 C    0.994    30 H    0.933    29 H    0.927
    16   7 N    3.584 --    11 C    1.395     5 C    1.086    17 C    0.904
    17   6 C    3.890 --    31 H    0.977    32 H    0.972    33 H    0.968
                            16 N    0.904
    18   1 H    1.003 --     1 C    0.980
    19   1 H    1.006 --     1 C    0.984
    20   1 H    1.002 --     1 C    0.978
    21   1 H    0.823 --     7 O    0.794
    22   1 H    0.916 --    10 N    0.863
    23   1 H    0.999 --    13 C    0.979
    24   1 H    0.998 --    13 C    0.984
    25   1 H    0.994 --    13 C    0.977
    26   1 H    0.997 --    14 C    0.977
    27   1 H    0.996 --    14 C    0.983
    28   1 H    0.996 --    14 C    0.976
    29   1 H    0.941 --    15 N    0.927
    30   1 H    0.946 --    15 N    0.933
    31   1 H    0.996 --    17 C    0.977
    32   1 H    1.019 --    17 C    0.972
    33   1 H    1.011 --    17 C    0.968
 ---------------------------------------------------------------------------

           -------------------------------------------------
          | TOTAL ENERGY              -57.858046372891 Eh   |
          | GRADIENT NORM               0.000736233388 Eh/α |
          | HOMO-LUMO GAP               2.312433029703 eV   |
           -------------------------------------------------

 * finished run on 2023/06/20 at 15:05:21.584
