   * xtb version 6.5.1 (579679a) compiled by 'ehlert@majestix' on 2022-07-11
          program call               : /lustre/hpc/kemi/ree/PhD/git/ReactivityQM/dep/xtb-6.5.1/bin/xtb --gfn 1 /lustre/hpc/kemi/ree/PhD/git/ReactivityQM/calculations/R02oxygendeprot/reac01prodE02/conf20/R02oxygendeprot_reac01prodE02_conf20_gfn1.xyz --opt --vfukui --chrg -2 --uhf 0 --alpb DMSO

   ID    Z sym.   atoms
    1    6 C      1, 3, 4, 6, 8-11, 13, 15, 18, 19, 22, 24
    2    8 O      2, 5, 14, 20, 23, 25
    3    7 N      7, 12, 16, 17, 21
    4    1 H      26-42

      * Solvation model:               ALPB
        Solvent                        DMSO
        Solvent mass                       7.8130E+01 g/mol
          :  Hamiltonian                  GFN1-xTB          :
 * total energy  :   -83.5911020 Eh     change       -0.3980603E-09 Eh
 * total energy  :   -83.6052879 Eh     change       -0.1418585E-01 Eh
 * total energy  :   -83.6114140 Eh     change       -0.6126184E-02 Eh
 * total energy  :   -83.6127731 Eh     change       -0.1359047E-02 Eh
 * total energy  :   -83.6135248 Eh     change       -0.7516779E-03 Eh
 * total energy  :   -83.6138819 Eh     change       -0.3571074E-03 Eh
 * total energy  :   -83.6141136 Eh     change       -0.2317426E-03 Eh
 * total energy  :   -83.6142898 Eh     change       -0.1761282E-03 Eh
 * total energy  :   -83.6144415 Eh     change       -0.1517246E-03 Eh
 * total energy  :   -83.6145813 Eh     change       -0.1398361E-03 Eh
 * total energy  :   -83.6158848 Eh     change       -0.2447808E-04 Eh
 * total energy  :   -83.6159041 Eh     change       -0.1935608E-04 Eh
 * total energy  :   -83.6159253 Eh     change       -0.2114598E-04 Eh
 * total energy  :   -83.6159484 Eh     change       -0.2313487E-04 Eh
 * total energy  :   -83.6159667 Eh     change       -0.1834076E-04 Eh
 * total energy  :   -83.6159792 Eh     change       -0.1249370E-04 Eh
 * total energy  :   -83.6159871 Eh     change       -0.7858729E-05 Eh
 * total energy  :   -83.6159939 Eh     change       -0.6788115E-05 Eh
 * total energy  :   -83.6159971 Eh     change       -0.3230116E-05 Eh
   *** GEOMETRY OPTIMIZATION CONVERGED AFTER 40 ITERATIONS ***

 final structure:
================
42
 xtb: 6.5.1 (579679a)
C           -4.52591028194504        0.44665105633183        1.61536808622875
O           -4.18916839650622        1.45948863882749        0.72069087058668
C           -3.88411792703007        1.05825961911246       -0.77242218582360
C           -5.24309903539334        0.46483902547005       -1.27907180573000
O           -3.50359281287254        2.10875105836991       -1.42343289244043
C           -2.76915771611619       -0.05003876334039       -0.65746476244115
N           -1.73099985481361        0.32632082105146        0.14762958697524
C           -0.68205718940396       -0.41127776107498        0.27983522488947
C            0.45730453775000        0.00034787945816        1.18897836416979
C            0.19519748034896        1.40687869655371        1.73501700468382
C            0.61795610930938       -1.00698328888317        2.33677028650277
N            1.68863953261469        0.00482390182188        0.37188534182350
C            2.90763712029507        0.32084924999093        0.83297791638897
O            3.18173764028605        0.67135887635216        1.97108389026632
C            3.92679426071191        0.21191704937109       -0.24986253054941
N            3.69003437824985       -0.07152471018740       -1.49522571359039
N            4.89254636363191       -0.05103039374190       -2.13984232194458
C            5.78430180461893        0.24371300610383       -1.24597112969868
C            7.24395296768577        0.38646479725950       -1.43937539127767
O            5.23905533417125        0.42434440716769       -0.03302903057598
N           -0.55486339289399       -1.60356688050272       -0.40512543626722
C           -1.51860074296971       -2.08472412364771       -1.26227603679314
O           -1.31374541175951       -3.17070194136427       -1.83246234119407
C           -2.73629905450039       -1.23344987992638       -1.42070224349315
O           -3.64495133074917       -1.63738744650711       -2.21122022754629
H           -5.58789115700080        0.14777005261007        1.54930378373583
H           -4.35451506543063        0.81106398398819        2.63822438088623
H           -3.91446210808731       -0.46416646753329        1.48377485271810
H           -5.50146411878984       -0.47817471662420       -0.80074598497576
H           -6.02566383483441        1.19890688981530       -1.08254152584598
H           -5.17421125739492        0.31247323316238       -2.35532774631939
H            0.15941558747062        2.12541078491740        0.91609311039101
H           -0.76677273117584        1.41349404621882        2.24703147570209
H            0.97385267065539        1.69894628756497        2.43600267671307
H            1.41416952926507       -0.69655081891478        3.01066260651669
H            0.85663023618410       -1.99315373086659        1.94260269768072
H           -0.31452209180279       -1.06727913801890        2.89650508748530
H            1.62100407347942       -0.31077122237266       -0.58624427698637
H            7.55959883041407        1.39581064399896       -1.17451868436515
H            7.77533641344540       -0.31239385808632       -0.79347306136329
H            7.49668014437175        0.18673598174469       -2.47822609465884
H            0.25421949651140       -2.18244484567086       -0.26535782045243

          :  Hamiltonian                  GFN1-xTB          :
         :: total energy             -83.615997112439 Eh    ::
         :: gradient norm              0.000858397968 Eh/a0 ::
         :: HOMO-LUMO gap              0.282462330475 eV    ::
         :: SCC energy               -84.354404333492 Eh    ::
         :: -> Gsolv                  -0.311145701271 Eh    ::
         :: repulsion energy           0.764681324545 Eh    ::

    * Orbital Energies and Occupations

         #    Occupation            Energy/Eh            Energy/eV
      -------------------------------------------------------------
         1        2.0000           -0.8559123             -23.2906
       ...           ...                  ...                  ...
        56        2.0000           -0.4427729             -12.0485
        57        2.0000           -0.4380383             -11.9196
        58        2.0000           -0.4309784             -11.7275
        59        2.0000           -0.4252184             -11.5708
        60        2.0000           -0.4179303             -11.3725
        61        2.0000           -0.4108848             -11.1807
        62        2.0000           -0.4029111             -10.9638
        63        2.0000           -0.3830015             -10.4220
        64        2.0000           -0.3802662             -10.3476
        65        2.0000           -0.3486892              -9.4883
        66        2.0000           -0.3327009              -9.0533
        67        2.0000           -0.3181904              -8.6584
        68        1.9916           -0.3091573              -8.4126 (HOMO)
        69        0.0084           -0.2987770              -8.1301 (LUMO)
        70                         -0.2501535              -6.8070
        71                         -0.2184419              -5.9441
        72                         -0.2023890              -5.5073
        73                         -0.1872306              -5.0948
        74                         -0.1396296              -3.7995
        75                         -0.1100879              -2.9956
        76                         -0.1048232              -2.8524
        77                         -0.0942096              -2.5636
        78                         -0.0905901              -2.4651
        79                         -0.0888939              -2.4189
       ...                                ...                  ...
       134                          0.7437147              20.2375
      -------------------------------------------------------------
                  HL-Gap            0.0103803 Eh            0.2825 eV

Wiberg/Mayer (AO) data.
largest (>0.10) Wiberg bond orders for each atom

     #   Z sym  total        # sym  WBO       # sym  WBO       # sym  WBO
 ---------------------------------------------------------------------------
     1   6 C    3.954 --     2 O    1.004    27 H    0.980    26 H    0.977
                            28 H    0.972
     2   8 O    1.907 --     1 C    1.004     3 C    0.712
     3   6 C    3.882 --     5 O    1.265     4 C    0.943     6 C    0.908
                             2 O    0.712
     4   6 C    3.988 --    30 H    0.988    29 H    0.988    31 H    0.984
                             3 C    0.943
     5   8 O    1.513 --     3 C    1.265
     6   6 C    3.921 --    24 C    1.340     7 N    1.237     3 C    0.908
                            25 O    0.136
     7   7 N    3.036 --     8 C    1.561     6 C    1.237
     8   6 C    3.923 --     7 N    1.561    21 N    1.091     9 C    0.977
     9   6 C    3.923 --    10 C    0.996    11 C    0.985     8 C    0.977
                            12 N    0.899
    10   6 C    3.994 --     9 C    0.996    32 H    0.985    34 H    0.985
                            33 H    0.984
    11   6 C    3.992 --    37 H    0.986     9 C    0.985    36 H    0.984
                            35 H    0.982
    12   7 N    3.364 --    13 C    1.284     9 C    0.899    38 H    0.898
                            14 O    0.184
    13   6 C    3.919 --    14 O    1.573    12 N    1.284    15 C    0.982
    14   8 O    1.891 --    13 C    1.573    12 N    0.184
    15   6 C    3.866 --    16 N    1.614    20 O    1.061    13 C    0.982
    16   7 N    3.009 --    15 C    1.614    17 N    1.192
    17   7 N    2.980 --    18 C    1.614    16 N    1.192
    18   6 C    3.872 --    17 N    1.614    20 O    1.080    19 C    1.030
    19   6 C    3.988 --    18 C    1.030    41 H    0.983    40 H    0.965
                            39 H    0.964
    20   8 O    2.324 --    18 C    1.080    15 C    1.061
    21   7 N    3.414 --    22 C    1.143     8 C    1.091    42 H    0.907
                            23 O    0.127
    22   6 C    3.880 --    23 O    1.503    21 N    1.143    24 C    1.023
    23   8 O    1.795 --    22 C    1.503    21 N    0.127
    24   6 C    3.955 --    25 O    1.398     6 C    1.340    22 C    1.023
    25   8 O    1.740 --    24 C    1.398     6 C    0.136
    26   1 H    1.022 --     1 C    0.977
    27   1 H    1.027 --     1 C    0.980
    28   1 H    1.028 --     1 C    0.972
    29   1 H    1.021 --     4 C    0.988
    30   1 H    1.022 --     4 C    0.988
    31   1 H    1.040 --     4 C    0.984
    32   1 H    1.013 --    10 C    0.985
    33   1 H    1.018 --    10 C    0.984
    34   1 H    1.013 --    10 C    0.985
    35   1 H    1.011 --    11 C    0.982
    36   1 H    1.005 --    11 C    0.984
    37   1 H    1.006 --    11 C    0.986
    38   1 H    0.962 --    12 N    0.898
    39   1 H    0.998 --    19 C    0.964
    40   1 H    0.997 --    19 C    0.965
    41   1 H    0.999 --    19 C    0.983
    42   1 H    0.958 --    21 N    0.907
 ---------------------------------------------------------------------------

           -------------------------------------------------
          | TOTAL ENERGY              -83.615997112439 Eh   |
          | GRADIENT NORM               0.000858397968 Eh/α |
          | HOMO-LUMO GAP               0.282462330475 eV   |
           -------------------------------------------------

 * finished run on 2023/06/21 at 17:02:36.103
