   * xtb version 6.5.1 (579679a) compiled by 'ehlert@majestix' on 2022-07-11
          program call               : /lustre/hpc/kemi/ree/PhD/git/ReactivityQM/dep/xtb-6.5.1/bin/xtb --gfn 1 /lustre/hpc/kemi/ree/PhD/git/ReactivityQM/calculations/RaltegravirCLI/reac01prodE05/conf02/RaltegravirCLI_reac01prodE05_conf02_gfn1.xyz --opt --vfukui --chrg -1 --uhf 0 --alpb DMSO

   ID    Z sym.   atoms
    1    6 C      1, 2, 5-7
    2    7 N      3, 4
    3    8 O      8, 10
    4   17 Cl     9
    5    1 H      11-16

      * Solvation model:               ALPB
        Solvent                        DMSO
        Solvent mass                       7.8130E+01 g/mol
          :  Hamiltonian                  GFN1-xTB          :
 * total energy  :   -34.1233629 Eh     change       -0.1506351E-11 Eh
 * total energy  :   -34.1328370 Eh     change       -0.9474055E-02 Eh
 * total energy  :   -34.1374921 Eh     change       -0.4655110E-02 Eh
 * total energy  :   -34.1390313 Eh     change       -0.1539193E-02 Eh
 * total energy  :   -34.1402708 Eh     change       -0.1239558E-02 Eh
 * total energy  :   -34.1411924 Eh     change       -0.9215450E-03 Eh
 * total energy  :   -34.1423166 Eh     change       -0.1124241E-02 Eh
 * total energy  :   -34.1460043 Eh     change       -0.3687651E-02 Eh
 * total energy  :   -34.1233587 Eh     change        0.2264561E-01 Eh
 * total energy  :   -34.1466200 Eh     change       -0.2326135E-01 Eh
 * total energy  :   -34.1545762 Eh     change       -0.9039790E-05 Eh
 * total energy  :   -34.1545965 Eh     change       -0.2030161E-04 Eh
 * total energy  :   -34.1546091 Eh     change       -0.1259174E-04 Eh
 * total energy  :   -34.1546391 Eh     change       -0.3001109E-04 Eh
 * total energy  :   -34.1546572 Eh     change       -0.1807917E-04 Eh
 * total energy  :   -34.1546726 Eh     change       -0.1549611E-04 Eh
 * total energy  :   -34.1546578 Eh     change        0.1484379E-04 Eh
 * total energy  :   -34.1546841 Eh     change       -0.2625361E-04 Eh
 * total energy  :   -34.1546878 Eh     change       -0.3783598E-05 Eh
   *** GEOMETRY OPTIMIZATION CONVERGED AFTER 32 ITERATIONS ***

 final structure:
================
16
 xtb: 6.5.1 (579679a)
C            2.65268084425572       -0.16453725515405        0.05478684269005
C            1.20600868162754       -0.02787823415569       -0.25557313369398
N            0.71926057388060        0.30031888583263       -1.38272036911907
N           -0.69890709885857        0.30489423319693       -1.26030237341056
C           -0.95135891386079       -0.04740895203470        0.17696305758431
C           -1.97571660177993       -1.11556322833411        0.46846262302769
C           -1.29058205031508        1.30478347028209       -0.33464630720395
O           -2.39778892533437        1.82097214432209       -0.51994229670629
Cl           0.06571701251394        2.63479222431675        0.26999883295997
O            0.31979720774522       -0.28908182226798        0.74349295856943
H            2.92814216140169        0.52816565169244        0.84953321884734
H            3.24246204362745        0.04873196431174       -0.83292006711912
H            2.86527508174959       -1.17547775864263        0.39941341607795
H           -2.09826888350867       -1.22381297799861        1.54477188048452
H           -1.65951679906894       -2.07199506619540        0.05302838157480
H           -2.92720433407536       -0.82690327917151        0.02565333543693

          :  Hamiltonian                  GFN1-xTB          :
         :: total energy             -34.154687840504 Eh    ::
         :: gradient norm              0.000533023230 Eh/a0 ::
         :: HOMO-LUMO gap              3.364366298579 eV    ::
         :: SCC energy               -34.408994856242 Eh    ::
         :: -> Gsolv                  -0.097830143788 Eh    ::
         :: repulsion energy           0.262084816181 Eh    ::

    * Orbital Energies and Occupations

         #    Occupation            Energy/Eh            Energy/eV
      -------------------------------------------------------------
         1        2.0000           -0.8410815             -22.8870
       ...           ...                  ...                  ...
        16        2.0000           -0.5179165             -14.0932
        17        2.0000           -0.5132015             -13.9649
        18        2.0000           -0.5044632             -13.7271
        19        2.0000           -0.5001740             -13.6104
        20        2.0000           -0.4946597             -13.4604
        21        2.0000           -0.4721689             -12.8484
        22        2.0000           -0.4456850             -12.1277
        23        2.0000           -0.4403536             -11.9826
        24        2.0000           -0.4346422             -11.8272
        25        2.0000           -0.4293502             -11.6832
        26        2.0000           -0.4208952             -11.4531
        27        2.0000           -0.4069303             -11.0731
        28        2.0000           -0.3493506              -9.5063 (HOMO)
        29                         -0.2257124              -6.1419 (LUMO)
        30                         -0.1982080              -5.3935
        31                         -0.1266886              -3.4474
        32                         -0.1172117              -3.1895
        33                         -0.0830543              -2.2600
        34                         -0.0606299              -1.6498
        35                         -0.0587842              -1.5996
        36                         -0.0520590              -1.4166
        37                         -0.0486505              -1.3238
        38                          0.0050715               0.1380
        39                          0.0250670               0.6821
       ...                                ...                  ...
        57                          0.6558428              17.8464
      -------------------------------------------------------------
                  HL-Gap            0.1236382 Eh            3.3644 eV

Wiberg/Mayer (AO) data.
largest (>0.10) Wiberg bond orders for each atom

     #   Z sym  total        # sym  WBO       # sym  WBO       # sym  WBO
 ---------------------------------------------------------------------------
     1   6 C    3.993 --     2 C    1.020    12 H    0.986    13 H    0.971
                            11 H    0.969
     2   6 C    3.897 --     3 N    1.759    10 O    1.026     1 C    1.020
     3   7 N    2.973 --     2 C    1.759     4 N    1.003    10 O    0.112
     4   7 N    2.949 --     3 N    1.003     5 C    0.876     7 C    0.847
     5   6 C    3.812 --     6 C    0.996    10 O    0.914     7 C    0.895
                             4 N    0.876
     6   6 C    3.995 --     5 C    0.996    16 H    0.984    14 H    0.982
                            15 H    0.981
     7   6 C    3.870 --     8 O    1.479     5 C    0.895     4 N    0.847
                             9 Cl   0.567
     8   8 O    1.793 --     7 C    1.479     9 Cl   0.119
     9  17 Cl   0.755 --     7 C    0.567     8 O    0.119
    10   8 O    2.150 --     2 C    1.026     5 C    0.914     3 N    0.112
    11   1 H    1.003 --     1 C    0.969
    12   1 H    1.004 --     1 C    0.986
    13   1 H    1.002 --     1 C    0.971
    14   1 H    1.007 --     6 C    0.982
    15   1 H    1.008 --     6 C    0.981
    16   1 H    1.008 --     6 C    0.984
 ---------------------------------------------------------------------------

           -------------------------------------------------
          | TOTAL ENERGY              -34.154687840504 Eh   |
          | GRADIENT NORM               0.000533023230 Eh/α |
          | HOMO-LUMO GAP               3.364366298579 eV   |
           -------------------------------------------------

 * finished run on 2023/06/20 at 14:53:34.105
