   * xtb version 6.5.1 (579679a) compiled by 'ehlert@majestix' on 2022-07-11
          program call               : /lustre/hpc/kemi/ree/PhD/git/ReactivityQM/dep/xtb-6.5.1/bin/xtb --gfn 1 /lustre/hpc/kemi/ree/PhD/git/ReactivityQM/calculations/R03/reac02prodE10/conf20/R03_reac02prodE10_conf20_gfn1.xyz --opt --vfukui --chrg -1 --uhf 0 --alpb DMSO

   ID    Z sym.   atoms
    1    6 C      1, 3, 5, 7-10, 12, 14, 17-19, 22, 23, 25
    2    8 O      2, 4, 13, 20, 24, 26
    3    7 N      6, 11, 15, 16, 21
    4    1 H      27-46

      * Solvation model:               ALPB
        Solvent                        DMSO
        Solvent mass                       7.8130E+01 g/mol
          :  Hamiltonian                  GFN1-xTB          :
 * total energy  :   -86.9815778 Eh     change       -0.1869438E-09 Eh
 * total energy  :   -86.9961717 Eh     change       -0.1459387E-01 Eh
 * total energy  :   -87.0019781 Eh     change       -0.5806377E-02 Eh
 * total energy  :   -87.0027978 Eh     change       -0.8197459E-03 Eh
 * total energy  :   -87.0032876 Eh     change       -0.4898053E-03 Eh
 * total energy  :   -87.0033834 Eh     change       -0.9581527E-04 Eh
 * total energy  :   -87.0034665 Eh     change       -0.8306537E-04 Eh
 * total energy  :   -87.0035104 Eh     change       -0.4391454E-04 Eh
 * total energy  :   -87.0035467 Eh     change       -0.3633831E-04 Eh
 * total energy  :   -87.0035727 Eh     change       -0.2591956E-04 Eh
 * total energy  :   -87.0035924 Eh     change       -0.1968985E-04 Eh
 * total energy  :   -87.0036074 Eh     change       -0.1505152E-04 Eh
 * total energy  :   -87.0036214 Eh     change       -0.1395662E-04 Eh
 * total energy  :   -87.0036301 Eh     change       -0.8704818E-05 Eh
 * total energy  :   -87.0036388 Eh     change       -0.8712734E-05 Eh
 * total energy  :   -87.0036435 Eh     change       -0.4667348E-05 Eh
   *** GEOMETRY OPTIMIZATION CONVERGED AFTER 16 ITERATIONS ***

 final structure:
================
46
 xtb: 6.5.1 (579679a)
C           -6.31144351385268       -2.62557522609869        0.94449003231802
O           -5.46337045186238       -1.48315506549280        0.91527171694766
C           -4.29248852244188       -1.64167537205391        0.20058213001696
O           -4.04125432103665       -2.71662048635302       -0.34324113997045
C           -3.45769076589433       -0.46596071338640        0.16785280048172
N           -2.30125291815577       -0.62450190470807       -0.56797527902910
C           -1.44682134251885        0.32956438888404       -0.71976924431597
C           -0.24741054983680        0.02023015868578       -1.61991821995028
C           -0.21450108838520       -1.49382916647163       -1.90041124190176
C           -0.42913849829462        0.77826778235829       -2.94629926091328
N            0.97668600457852        0.43489310523809       -0.92722347196717
C            2.25069324677544        0.11870310562425       -1.50562037970260
O            2.40276690684828       -0.04916097072901       -2.74329004583225
C            3.25364995261504        0.10270747001508       -0.54005476903827
N            3.10659032998247        0.27600463372507        0.82365301472686
N            4.34885962864287        0.15154355010085        1.29770994572494
C            4.57195169893816        0.28497139454657        2.71897713662145
C            5.23792802083308       -0.08246074320633        0.36110454527704
C            6.70121132265047       -0.26361379195572        0.49849711139529
O            4.63122338764662       -0.12950734053642       -0.83967614801275
N           -1.64015182197962        1.56948424572392       -0.15181661728532
C           -0.75094762590547        2.71961047106211       -0.29266161414723
C           -2.79734334707216        1.85722498963178        0.61597122858985
O           -2.93036515188221        3.00190071742774        1.08446392368234
C           -3.71023408440622        0.77808283831345        0.77019531617787
O           -4.82210615160537        1.05713966422869        1.52090756514770
H           -7.17912245534520       -2.36591677032994        1.54877695708896
H           -6.63249629270670       -2.89331358420276       -0.06751739458235
H           -5.79245990413253       -3.48039765831625        1.38995085095550
H           -1.13849211638430       -1.80473148287854       -2.38669711429884
H           -0.10905048606697       -2.04558779836123       -0.96661172924507
H            0.62474304138043       -1.73100571075499       -2.55235497881575
H            0.32289025657451        0.46536013944081       -3.66834447230470
H           -0.34127098327742        1.85307052498465       -2.80075772546244
H           -1.41736311957786        0.56042783462328       -3.35128923939578
H            0.95331460429713        0.17271429189657        0.05318078118209
H            3.60963400693255        0.46480281326155        3.19247363301393
H            5.01357492969977       -0.63059883433283        3.10891939824278
H            5.24259061637077        1.12153688881728        2.90799351092493
H            7.23146164150253        0.61861151113449        0.13365224382144
H            7.02484558457877       -1.11924775235063       -0.09450485270634
H            6.96627303024058       -0.42499573201171        1.53981586766951
H           -0.57115717614459        3.14617634351580        0.69642135197748
H           -1.23130889306244        3.47880506585298       -0.91474243915073
H            0.19901243597953        2.42970570078228       -0.73052136982785
H           -5.40066006524073        0.28031647465501        1.58428068587258

          :  Hamiltonian                  GFN1-xTB          :
         :: total energy             -87.003643451610 Eh    ::
         :: gradient norm              0.000977085987 Eh/a0 ::
         :: HOMO-LUMO gap              0.039612358397 eV    ::
         :: SCC energy               -87.793568568925 Eh    ::
         :: -> Gsolv                  -0.128284076280 Eh    ::
         :: repulsion energy           0.818396437404 Eh    ::

    * Orbital Energies and Occupations

         #    Occupation            Energy/Eh            Energy/eV
      -------------------------------------------------------------
         1        2.0000           -0.8395692             -22.8458
       ...           ...                  ...                  ...
        59        2.0000           -0.4710247             -12.8172
        60        2.0000           -0.4652679             -12.6606
        61        2.0000           -0.4641775             -12.6309
        62        2.0000           -0.4464553             -12.1487
        63        2.0000           -0.4375132             -11.9053
        64        2.0000           -0.4275542             -11.6343
        65        2.0000           -0.4198086             -11.4236
        66        2.0000           -0.4139289             -11.2636
        67        2.0000           -0.4035086             -10.9800
        68        2.0000           -0.4025865             -10.9549
        69        2.0000           -0.3874690             -10.5436
        70        2.0000           -0.3822995             -10.4029
        71        1.3654           -0.2903201              -7.9000 (HOMO)
        72        0.6346           -0.2888643              -7.8604 (LUMO)
        73                         -0.2611835              -7.1072
        74                         -0.2368950              -6.4462
        75                         -0.1955124              -5.3202
        76                         -0.1539198              -4.1884
        77                         -0.1461145              -3.9760
        78                         -0.1398922              -3.8067
        79                         -0.1205937              -3.2815
        80                         -0.1167005              -3.1756
        81                         -0.1115256              -3.0348
        82                         -0.1006455              -2.7387
       ...                                ...                  ...
       144                          0.6976396              18.9837
      -------------------------------------------------------------
                  HL-Gap            0.0014557 Eh            0.0396 eV

Wiberg/Mayer (AO) data.
largest (>0.10) Wiberg bond orders for each atom

     #   Z sym  total        # sym  WBO       # sym  WBO       # sym  WBO
 ---------------------------------------------------------------------------
     1   6 C    3.892 --    27 H    0.987    28 H    0.981    29 H    0.981
                             2 O    0.918
     2   8 O    2.115 --     3 C    0.987     1 C    0.918
     3   6 C    3.733 --     4 O    1.542     5 C    1.137     2 O    0.987
     4   8 O    1.764 --     3 C    1.542
     5   6 C    3.817 --    25 C    1.308     6 N    1.148     3 C    1.137
     6   7 N    3.009 --     7 C    1.596     5 C    1.148
     7   6 C    3.903 --     6 N    1.596    21 N    1.144     8 C    0.972
     8   6 C    3.956 --     9 C    0.990    10 C    0.985     7 C    0.972
                            11 N    0.951
     9   6 C    3.993 --     8 C    0.990    31 H    0.986    30 H    0.985
                            32 H    0.983
    10   6 C    3.992 --    35 H    0.988     8 C    0.985    34 H    0.983
                            33 H    0.978
    11   7 N    3.103 --    12 C    0.996     8 C    0.951    36 H    0.929
    12   6 C    3.806 --    13 O    1.397    14 C    1.311    11 N    0.996
    13   8 O    1.656 --    12 C    1.397
    14   6 C    3.560 --    12 C    1.311    15 N    1.182    20 O    0.885
    15   7 N    2.682 --    14 C    1.182    16 N    1.159    18 C    0.199
    16   7 N    3.639 --    18 C    1.409    15 N    1.159    17 C    0.939
    17   6 C    3.936 --    37 H    0.983    39 H    0.979    38 H    0.978
                            16 N    0.939
    18   6 C    3.792 --    16 N    1.409    20 O    1.079    19 C    1.029
                            15 N    0.199
    19   6 C    3.987 --    18 C    1.029    42 H    0.982    41 H    0.969
                            40 H    0.960
    20   8 O    2.123 --    18 C    1.079    14 C    0.885
    21   7 N    3.360 --     7 C    1.144    23 C    1.032    22 C    0.945
                            24 O    0.102
    22   6 C    3.942 --    44 H    0.980    43 H    0.979    45 H    0.974
                            21 N    0.945
    23   6 C    3.838 --    24 O    1.476    25 C    1.207    21 N    1.032
    24   8 O    1.752 --    23 C    1.476    21 N    0.102
    25   6 C    3.728 --     5 C    1.308    23 C    1.207    26 O    1.031
    26   8 O    1.980 --    25 C    1.031    46 H    0.824
    27   1 H    1.014 --     1 C    0.987
    28   1 H    1.013 --     1 C    0.981
    29   1 H    1.013 --     1 C    0.981
    30   1 H    1.019 --     9 C    0.985
    31   1 H    1.013 --     9 C    0.986
    32   1 H    1.016 --     9 C    0.983
    33   1 H    1.025 --    10 C    0.978
    34   1 H    1.007 --    10 C    0.983
    35   1 H    1.007 --    10 C    0.988
    36   1 H    0.977 --    11 N    0.929
    37   1 H    1.006 --    17 C    0.983
    38   1 H    0.999 --    17 C    0.978
    39   1 H    0.999 --    17 C    0.979
    40   1 H    0.995 --    19 C    0.960
    41   1 H    0.996 --    19 C    0.969
    42   1 H    0.998 --    19 C    0.982
    43   1 H    1.014 --    22 C    0.979
    44   1 H    1.008 --    22 C    0.980
    45   1 H    1.026 --    22 C    0.974
    46   1 H    0.879 --    26 O    0.824
 ---------------------------------------------------------------------------

           -------------------------------------------------
          | TOTAL ENERGY              -87.003643451610 Eh   |
          | GRADIENT NORM               0.000977085987 Eh/α |
          | HOMO-LUMO GAP               0.039612358397 eV   |
           -------------------------------------------------

 * finished run on 2023/06/20 at 15:30:03.305
