   * xtb version 6.5.1 (579679a) compiled by 'ehlert@majestix' on 2022-07-11
          program call               : /lustre/hpc/kemi/ree/PhD/git/ReactivityQM/dep/xtb-6.5.1/bin/xtb --gfn 1 /lustre/hpc/kemi/ree/PhD/git/ReactivityQM/calculations/R01/reac02/conf10/R01_reac02_conf10_gfn1.xyz --opt --vfukui --chrg 0 --uhf 0 --alpb DMSO

   ID    Z sym.   atoms
    1    6 C      1, 3, 5, 7-10, 13, 15
    2    8 O      2, 4, 14, 16
    3    7 N      6, 11, 12
    4    1 H      17-29

      * Solvation model:               ALPB
        Solvent                        DMSO
        Solvent mass                       7.8130E+01 g/mol
          :  Hamiltonian                  GFN1-xTB          :
 * total energy  :   -54.5067105 Eh     change       -0.6046719E-11 Eh
 * total energy  :   -54.5119288 Eh     change       -0.5218353E-02 Eh
 * total energy  :   -54.5132530 Eh     change       -0.1324196E-02 Eh
 * total energy  :   -54.5134836 Eh     change       -0.2305661E-03 Eh
 * total energy  :   -54.5136652 Eh     change       -0.1816010E-03 Eh
 * total energy  :   -54.5137311 Eh     change       -0.6589427E-04 Eh
 * total energy  :   -54.5137780 Eh     change       -0.4688751E-04 Eh
 * total energy  :   -54.5138079 Eh     change       -0.2991793E-04 Eh
 * total energy  :   -54.5138295 Eh     change       -0.2158616E-04 Eh
 * total energy  :   -54.5138392 Eh     change       -0.9762891E-05 Eh
 * total energy  :   -54.5138456 Eh     change       -0.6330517E-05 Eh
 * total energy  :   -54.5138457 Eh     change       -0.1524329E-06 Eh
 * total energy  :   -54.5138496 Eh     change       -0.3827339E-05 Eh
   *** GEOMETRY OPTIMIZATION CONVERGED AFTER 13 ITERATIONS ***

 final structure:
================
29
 xtb: 6.5.1 (579679a)
C            3.85471134537716       -1.23633971735382        1.58727472335059
O            2.62883872728144       -0.79330840988747        0.99919411045516
C            2.73805979245018        0.04009137364811       -0.03947282637350
O            3.80389313368905        0.41056889676756       -0.47537046842307
C            1.40739554442648        0.44527616238023       -0.57701513402033
N            0.30950933322496       -0.07312447140178        0.06467763558569
C           -0.87841730469671        0.22666642308552       -0.34570795233224
C           -2.07764364418155       -0.35110448346067        0.39206503714670
C           -2.18450606069450        0.35538742501122        1.75125534098144
C           -1.85253454097068       -1.85680821894182        0.58532470821427
N           -3.32312173560725       -0.15682577605762       -0.32770916058591
N           -1.09079416302911        1.05951179152525       -1.40452932229068
C           -0.07490385113528        1.63572657908083       -2.12536109620777
O           -0.27273521679559        2.37810430892174       -3.07768943844862
C            1.25955737348696        1.28207352067714       -1.65112552966725
O            2.27931510794354        1.82272646527401       -2.33013958890016
H            3.58609335460960       -1.91715081531462        2.39227457976382
H            4.41180819769043       -0.38363174437312        1.98312326808509
H            4.46547883515768       -1.75252155843063        0.84236111049465
H           -3.03284847618481       -0.04531686127861        2.30445829819053
H           -2.33268820545440        1.42476275144840        1.60615288252578
H           -1.27212204864734        0.19958778579057        2.32600393482178
H           -0.92657096430744       -2.02849914356754        1.13312812045033
H           -1.78621294743105       -2.35125512046890       -0.38318207825455
H           -2.68705316526896       -2.28125158616318        1.14143113189023
H           -3.57732226503954        0.81863325145550       -0.36436477819092
H           -3.26268869603695       -0.51996898306020       -1.26745543226967
H           -2.03363623672628        1.27150958498448       -1.69265443284482
H            1.92113877687089        2.37648056971029       -3.04694764314525

          :  Hamiltonian                  GFN1-xTB          :
         :: total energy             -54.513849550871 Eh    ::
         :: gradient norm              0.000646217634 Eh/a0 ::
         :: HOMO-LUMO gap              2.586248259256 eV    ::
         :: SCC energy               -55.042041201995 Eh    ::
         :: -> Gsolv                  -0.044273971380 Eh    ::
         :: repulsion energy           0.544137297972 Eh    ::

    * Orbital Energies and Occupations

         #    Occupation            Energy/Eh            Energy/eV
      -------------------------------------------------------------
         1        2.0000           -0.8370960             -22.7785
       ...           ...                  ...                  ...
        32        2.0000           -0.5139908             -13.9864
        33        2.0000           -0.5135327             -13.9739
        34        2.0000           -0.5113147             -13.9136
        35        2.0000           -0.5025149             -13.6741
        36        2.0000           -0.4966793             -13.5153
        37        2.0000           -0.4961236             -13.5002
        38        2.0000           -0.4860812             -13.2269
        39        2.0000           -0.4836479             -13.1607
        40        2.0000           -0.4826494             -13.1336
        41        2.0000           -0.4591076             -12.4930
        42        2.0000           -0.4451792             -12.1139
        43        2.0000           -0.4263340             -11.6011
        44        2.0000           -0.4157483             -11.3131 (HOMO)
        45                         -0.3207054              -8.7268 (LUMO)
        46                         -0.2785871              -7.5807
        47                         -0.2371907              -6.4543
        48                         -0.1543887              -4.2011
        49                         -0.1379967              -3.7551
        50                         -0.1296641              -3.5283
        51                         -0.1244690              -3.3870
        52                         -0.1183102              -3.2194
        53                         -0.0955371              -2.5997
        54                         -0.0750425              -2.0420
        55                         -0.0746011              -2.0300
       ...                                ...                  ...
        90                          0.7407196              20.1560
      -------------------------------------------------------------
                  HL-Gap            0.0950429 Eh            2.5862 eV

Wiberg/Mayer (AO) data.
largest (>0.10) Wiberg bond orders for each atom

     #   Z sym  total        # sym  WBO       # sym  WBO       # sym  WBO
 ---------------------------------------------------------------------------
     1   6 C    3.874 --    17 H    0.986    19 H    0.980    18 H    0.980
                             2 O    0.900
     2   8 O    2.197 --     3 C    1.107     1 C    0.900     4 O    0.133
     3   6 C    3.850 --     4 O    1.659     2 O    1.107     5 C    1.002
     4   8 O    1.923 --     3 C    1.659     2 O    0.133
     5   6 C    3.966 --    15 C    1.500     6 N    1.182     3 C    1.002
     6   7 N    3.021 --     7 C    1.578     5 C    1.182
     7   6 C    3.919 --     6 N    1.578    12 N    1.172     8 C    0.968
     8   6 C    3.967 --    11 N    0.996    10 C    0.987     9 C    0.980
                             7 C    0.968
     9   6 C    3.993 --    22 H    0.986    21 H    0.985    20 H    0.984
                             8 C    0.980
    10   6 C    3.994 --     8 C    0.987    24 H    0.985    25 H    0.985
                            23 H    0.985
    11   7 N    2.957 --     8 C    0.996    27 H    0.940    26 H    0.939
    12   7 N    3.472 --     7 C    1.172    13 C    1.141    28 H    0.879
                            14 O    0.133
    13   6 C    3.912 --    14 O    1.569    12 N    1.141    15 C    1.067
    14   8 O    1.896 --    13 C    1.569    12 N    0.133
    15   6 C    3.920 --     5 C    1.500    16 O    1.104    13 C    1.067
    16   8 O    2.083 --    15 C    1.104    29 H    0.810
    17   1 H    1.011 --     1 C    0.986
    18   1 H    1.007 --     1 C    0.980
    19   1 H    1.008 --     1 C    0.980
    20   1 H    1.003 --     9 C    0.984
    21   1 H    1.001 --     9 C    0.985
    22   1 H    1.006 --     9 C    0.986
    23   1 H    1.012 --    10 C    0.985
    24   1 H    1.002 --    10 C    0.985
    25   1 H    1.005 --    10 C    0.985
    26   1 H    0.954 --    11 N    0.939
    27   1 H    0.953 --    11 N    0.940
    28   1 H    0.928 --    12 N    0.879
    29   1 H    0.848 --    16 O    0.810
 ---------------------------------------------------------------------------

           -------------------------------------------------
          | TOTAL ENERGY              -54.513849550871 Eh   |
          | GRADIENT NORM               0.000646217634 Eh/α |
          | HOMO-LUMO GAP               2.586248259256 eV   |
           -------------------------------------------------

 * finished run on 2023/06/20 at 14:51:56.544
