   * xtb version 6.5.1 (579679a) compiled by 'ehlert@majestix' on 2022-07-11
          program call               : /lustre/hpc/kemi/ree/PhD/git/ReactivityQM/dep/xtb-6.5.1/bin/xtb --gfn 1 /lustre/hpc/kemi/ree/PhD/git/ReactivityQM/calculations/R02deprot/reac01prodE04/conf02/R02deprot_reac01prodE04_conf02_gfn1.xyz --opt --vfukui --chrg -2 --uhf 0 --alpb DMSO

   ID    Z sym.   atoms
    1    6 C      1, 3, 5, 6, 8-11, 13, 15, 18, 19, 22, 24
    2    8 O      2, 4, 14, 20, 23, 25
    3    7 N      7, 12, 16, 17, 21
    4    1 H      26-42

      * Solvation model:               ALPB
        Solvent                        DMSO
        Solvent mass                       7.8130E+01 g/mol
          :  Hamiltonian                  GFN1-xTB          :
 * total energy  :   -83.5723549 Eh     change       -0.6536993E-12 Eh
 * total energy  :   -83.5891768 Eh     change       -0.1682192E-01 Eh
 * total energy  :   -83.5949058 Eh     change       -0.5728980E-02 Eh
 * total energy  :   -83.5957668 Eh     change       -0.8610078E-03 Eh
 * total energy  :   -83.5963038 Eh     change       -0.5370340E-03 Eh
 * total energy  :   -83.5966086 Eh     change       -0.3048079E-03 Eh
 * total energy  :   -83.5968916 Eh     change       -0.2829188E-03 Eh
 * total energy  :   -83.5971805 Eh     change       -0.2889050E-03 Eh
 * total energy  :   -83.5974558 Eh     change       -0.2752981E-03 Eh
 * total energy  :   -83.5976885 Eh     change       -0.2327020E-03 Eh
 * total energy  :   -83.6009276 Eh     change       -0.1962743E-04 Eh
 * total energy  :   -83.6009394 Eh     change       -0.1179705E-04 Eh
 * total energy  :   -83.6009504 Eh     change       -0.1098143E-04 Eh
 * total energy  :   -83.6009665 Eh     change       -0.1608804E-04 Eh
 * total energy  :   -83.6009777 Eh     change       -0.1122249E-04 Eh
 * total energy  :   -83.6009892 Eh     change       -0.1152393E-04 Eh
 * total energy  :   -83.6009982 Eh     change       -0.8993998E-05 Eh
 * total energy  :   -83.6010037 Eh     change       -0.5455403E-05 Eh
 * total energy  :   -83.6010072 Eh     change       -0.3524552E-05 Eh
   *** GEOMETRY OPTIMIZATION CONVERGED AFTER 50 ITERATIONS ***

 final structure:
================
42
 xtb: 6.5.1 (579679a)
C           -3.50586902557735        0.83097493901882        2.51362435372839
O           -2.88490007135276        0.48503155430973        1.28438155360148
C           -3.62151219971154       -0.29013991135437        0.44626951626802
O           -4.76630642163546       -0.62041876596409        0.73543085374381
C           -2.82409124984272       -0.84277986290766       -0.74512448266453
C           -3.78908504314401       -1.15018475881233       -1.90312211118329
N           -1.79882420737059        0.08277062305015       -1.18586011168610
C           -0.59021975009123       -0.09057493332737       -0.70110331202843
C            0.40757864669448        0.99144668439001       -1.15430507419440
C            0.61149543428554        0.86205957002765       -2.67238564949176
C           -0.15274761514899        2.37837606466362       -0.80718939619500
N            1.66448743554485        0.76089844039103       -0.45178008940478
C            2.77359822779391        1.51114434848199       -0.58919467166642
O            2.86988597621579        2.49918549039372       -1.33673615588642
C            3.90098046769192        1.07396607810775        0.23862806693697
N            5.09799582916400        1.62017332750629        0.30586022326501
N            5.81227570594396        0.88797409623437        1.21331278345146
C            5.03007966914063       -0.04882042006570        1.64525647377553
C            5.35078165222945       -1.09429341515301        2.64596126867317
O            3.80686350436748       -0.00077832439522        1.07888638130537
N           -0.09281189391742       -1.04525957112430        0.06944309317655
C           -0.92382184204569       -2.14072368923841        0.34520969854798
O           -0.46816824377412       -3.17591534564641        0.92918266464393
C           -2.24059723704083       -2.06595463365639       -0.10780257404971
O           -3.09261685906623       -3.17422983440335        0.08111123365430
H           -4.39338352231839        1.44768097944550        2.33839116517361
H           -2.77958747030416        1.39568216579452        3.09749292548861
H           -3.80705798449671       -0.06510722155147        3.06632843148458
H           -3.25061830668230       -1.66040365171062       -2.70095817300911
H           -4.60400134492807       -1.78610019183778       -1.55808820956952
H           -4.20193558335396       -0.22157270172112       -2.29727379732159
H            1.25114825029489        1.65784452932643       -3.05333836033308
H           -0.36024821436969        0.92116474777383       -3.16329757865438
H            1.06644162188788       -0.10047525796478       -2.90819593605190
H           -1.15541465386199        2.46541141676919       -1.22714716821298
H            0.47420915398024        3.17115223316772       -1.21420797229664
H           -0.21480640711789        2.49628151436684        0.27496667886119
H            1.66204442952909       -0.05968418545978        0.15715383518638
H            4.70026235308077       -0.99843212542488        3.51563294764437
H            6.38597685823171       -0.98781506905684        2.95949293670459
H            5.20235185035215       -2.08640359071197        2.21973070732643
H           -2.54983391927173       -3.83314934172016        0.54690303126949

          :  Hamiltonian                  GFN1-xTB          :
         :: total energy             -83.601007210635 Eh    ::
         :: gradient norm              0.000546131998 Eh/a0 ::
         :: HOMO-LUMO gap              0.091858072671 eV    ::
         :: SCC energy               -84.324140119059 Eh    ::
         :: -> Gsolv                  -0.268764965236 Eh    ::
         :: repulsion energy           0.749637800312 Eh    ::

    * Orbital Energies and Occupations

         #    Occupation            Energy/Eh            Energy/eV
      -------------------------------------------------------------
         1        2.0000           -0.8245059             -22.4359
       ...           ...                  ...                  ...
        56        2.0000           -0.4389838             -11.9454
        57        2.0000           -0.4308813             -11.7249
        58        2.0000           -0.4227062             -11.5024
        59        2.0000           -0.4214595             -11.4685
        60        2.0000           -0.4200721             -11.4307
        61        2.0000           -0.4076890             -11.0938
        62        2.0000           -0.4016920             -10.9306
        63        2.0000           -0.3918264             -10.6621
        64        2.0000           -0.3827132             -10.4142
        65        2.0000           -0.3491355              -9.5005
        66        2.0000           -0.3239455              -8.8150
        67        2.0000           -0.3215925              -8.7510
        68        1.7106           -0.2758349              -7.5058 (HOMO)
        69        0.2894           -0.2724591              -7.4140 (LUMO)
        70                         -0.2259264              -6.1478
        71                         -0.2103405              -5.7237
        72                         -0.1683394              -4.5807
        73                         -0.1537055              -4.1825
        74                         -0.1295984              -3.5266
        75                         -0.1172251              -3.1899
        76                         -0.0942705              -2.5652
        77                         -0.0893164              -2.4304
        78                         -0.0873233              -2.3762
        79                         -0.0793534              -2.1593
       ...                                ...                  ...
       134                          0.7109822              19.3468
      -------------------------------------------------------------
                  HL-Gap            0.0033757 Eh            0.0919 eV

Wiberg/Mayer (AO) data.
largest (>0.10) Wiberg bond orders for each atom

     #   Z sym  total        # sym  WBO       # sym  WBO       # sym  WBO
 ---------------------------------------------------------------------------
     1   6 C    3.903 --    27 H    0.987    26 H    0.981    28 H    0.980
                             2 O    0.927
     2   8 O    2.152 --     3 C    1.048     1 C    0.927     4 O    0.106
     3   6 C    3.767 --     4 O    1.590     2 O    1.048     5 C    0.912
                            24 C    0.110
     4   8 O    1.857 --     3 C    1.590     2 O    0.106
     5   6 C    3.973 --     7 N    0.995     6 C    0.978    24 C    0.962
                             3 C    0.912
     6   6 C    3.985 --    31 H    0.988    29 H    0.988    30 H    0.986
                             5 C    0.978
     7   7 N    2.860 --     8 C    1.490     5 C    0.995    21 N    0.173
     8   6 C    3.958 --     7 N    1.490    21 N    1.398     9 C    0.952
     9   6 C    3.926 --    11 C    0.988    10 C    0.984     8 C    0.952
                            12 N    0.929
    10   6 C    3.993 --    34 H    0.987    33 H    0.986    32 H    0.985
                             9 C    0.984
    11   6 C    3.994 --     9 C    0.988    37 H    0.987    36 H    0.985
                            35 H    0.984
    12   7 N    3.316 --    13 C    1.258     9 C    0.929    38 H    0.874
                            14 O    0.162
    13   6 C    3.851 --    14 O    1.475    12 N    1.258    15 C    1.046
    14   8 O    1.762 --    13 C    1.475    12 N    0.162
    15   6 C    3.748 --    16 N    1.514    13 C    1.046    20 O    1.008
    16   7 N    2.850 --    15 C    1.514    17 N    1.188
    17   7 N    2.979 --    18 C    1.624    16 N    1.188
    18   6 C    3.840 --    17 N    1.624    20 O    1.060    19 C    1.026
    19   6 C    3.992 --    18 C    1.026    40 H    0.985    41 H    0.969
                            39 H    0.968
    20   8 O    2.243 --    18 C    1.060    15 C    1.008
    21   7 N    2.900 --     8 C    1.398    22 C    1.083     7 N    0.173
    22   6 C    3.912 --    23 O    1.361    24 C    1.344    21 N    1.083
    23   8 O    1.657 --    22 C    1.361    24 C    0.103
    24   6 C    3.610 --    22 C    1.344     5 C    0.962    25 O    0.956
                             3 C    0.110    23 O    0.103
    25   8 O    1.899 --    24 C    0.956    42 H    0.853
    26   1 H    1.015 --     1 C    0.981
    27   1 H    1.017 --     1 C    0.987
    28   1 H    1.014 --     1 C    0.980
    29   1 H    1.015 --     6 C    0.988
    30   1 H    1.018 --     6 C    0.986
    31   1 H    1.014 --     6 C    0.988
    32   1 H    1.017 --    10 C    0.985
    33   1 H    1.022 --    10 C    0.986
    34   1 H    1.009 --    10 C    0.987
    35   1 H    1.029 --    11 C    0.984
    36   1 H    1.018 --    11 C    0.985
    37   1 H    1.010 --    11 C    0.987
    38   1 H    0.991 --    12 N    0.874
    39   1 H    0.999 --    19 C    0.968
    40   1 H    1.003 --    19 C    0.985
    41   1 H    0.999 --    19 C    0.969
    42   1 H    0.904 --    25 O    0.853
 ---------------------------------------------------------------------------

           -------------------------------------------------
          | TOTAL ENERGY              -83.601007210635 Eh   |
          | GRADIENT NORM               0.000546131998 Eh/α |
          | HOMO-LUMO GAP               0.091858072671 eV   |
           -------------------------------------------------

 * finished run on 2023/06/20 at 17:37:07.624
