   * xtb version 6.5.1 (579679a) compiled by 'ehlert@majestix' on 2022-07-11
          program call               : /lustre/hpc/kemi/ree/PhD/git/ReactivityQM/dep/xtb-6.5.1/bin/xtb --gfn 1 /lustre/hpc/kemi/ree/PhD/git/ReactivityQM/calculations/R02methylcation/reac01prodN04/conf09/R02methylcation_reac01prodN04_conf09_gfn1.xyz --opt --vfukui --chrg 0 --uhf 0 --alpb DMSO

   ID    Z sym.   atoms
    1    6 C      1, 3, 5, 6, 8-11, 13, 15, 18, 19, 22, 24
    2    8 O      2, 4, 14, 20, 23, 25
    3    7 N      7, 12, 16, 17, 21
    4    1 H      26-42

      * Solvation model:               ALPB
        Solvent                        DMSO
        Solvent mass                       7.8130E+01 g/mol
          :  Hamiltonian                  GFN1-xTB          :
 * total energy  :   -82.9632723 Eh     change       -0.1033129E-10 Eh
 * total energy  :   -82.9796977 Eh     change       -0.1642531E-01 Eh
 * total energy  :   -82.9853465 Eh     change       -0.5648810E-02 Eh
 * total energy  :   -82.9865219 Eh     change       -0.1175406E-02 Eh
 * total energy  :   -82.9872475 Eh     change       -0.7255894E-03 Eh
 * total energy  :   -82.9876609 Eh     change       -0.4134163E-03 Eh
 * total energy  :   -82.9880835 Eh     change       -0.4226139E-03 Eh
 * total energy  :   -82.9884197 Eh     change       -0.3361808E-03 Eh
 * total energy  :   -82.9886591 Eh     change       -0.2394520E-03 Eh
 * total energy  :   -82.9888232 Eh     change       -0.1640541E-03 Eh
 * total energy  :   -82.9898333 Eh     change       -0.1489809E-04 Eh
 * total energy  :   -82.9898551 Eh     change       -0.2186362E-04 Eh
 * total energy  :   -82.9898730 Eh     change       -0.1785145E-04 Eh
 * total energy  :   -82.9898802 Eh     change       -0.7216874E-05 Eh
 * total energy  :   -82.9898879 Eh     change       -0.7686288E-05 Eh
 * total energy  :   -82.9898955 Eh     change       -0.7617724E-05 Eh
 * total energy  :   -82.9898997 Eh     change       -0.4241353E-05 Eh
 * total energy  :   -82.9899032 Eh     change       -0.3446890E-05 Eh
 * total energy  :   -82.9899079 Eh     change       -0.4714931E-05 Eh
   *** GEOMETRY OPTIMIZATION CONVERGED AFTER 44 ITERATIONS ***

 final structure:
================
42
 xtb: 6.5.1 (579679a)
C           -5.24430294416261        0.88460544006573        1.93968894037835
O           -5.06267188419462        0.51354194874133        0.56912257843929
C           -3.93109731709532        0.14451021897747        0.01168793242331
O           -3.90873831533906        0.29250216718821       -1.30135817680732
C           -5.03450250892994        0.87284550647325       -1.96424034449508
C           -2.76355099351905       -0.35704613926014        0.61022874058693
N           -1.68046619888754       -0.38576366649805       -0.26893879314101
C           -0.53779438500567       -0.80580383228630        0.11358800812595
C            0.61691424638183       -0.87492407394100       -0.86283491098672
C            0.87102870704549       -2.35050997732648       -1.20610554199857
C            0.29039576664570       -0.06349547232502       -2.11985491891277
N            1.79107358155557       -0.30385897262201       -0.19150070253775
C            3.01513535834719       -0.24809391997213       -0.76183730185257
O            3.32728978568459       -0.74707314554286       -1.82751428791073
C            3.96356460221658        0.50567343988670        0.09874263004953
N            3.67897329313827        1.09920432414425        1.21886546320565
N            4.83255300793381        1.67135821549704        1.66433268636311
C            5.74721516186246        1.39156525271535        0.78558654493939
C            7.17144820818330        1.79153911365611        0.80534419798079
O            5.25984766651667        0.65916297780147       -0.22657546596677
N           -0.29968617453822       -1.25503732460153        1.39579977253647
C           -1.26249122903591       -1.32487458167590        2.36693338102597
O           -0.99069405050940       -1.69278138136673        3.49461473309247
C           -2.66162359621290       -0.92125992484458        1.92747255657493
O           -3.60370825030440       -1.14079884027255        2.68701488551133
H           -4.32019303545615        1.28047884006853        2.36072123235618
H           -6.01488306003274        1.65620598532976        1.93705720295749
H           -5.58529217774389        0.02364644833073        2.51666845572016
H           -5.91323589141075        0.23535255915419       -1.84621342506114
H           -5.24428998437358        1.86359950515804       -1.55652820695322
H           -4.76060952561622        0.94674987698457       -3.01497975242183
H           -0.04447381977355       -2.78891248588132       -1.60048085857840
H            1.16950993116971       -2.89619635982617       -0.31282544599015
H            1.65571051009935       -2.43618122195241       -1.95496467592753
H            0.11089112415893        0.97703307074435       -1.85419542036580
H           -0.60786733066272       -0.46653409487910       -2.58479036896715
H            1.11652739549558       -0.11816076829836       -2.82603202415590
H            1.64209191601419        0.24333814981798        0.64303030040728
H            7.40468863839879        2.26691385460896        1.75499877930741
H            7.80623659414033        0.91749971259194        0.66369982059753
H            7.37222232267784        2.49015015584340       -0.00750766330871
H            0.62885585514001       -1.55017158040282        1.65564444376077

          :  Hamiltonian                  GFN1-xTB          :
         :: total energy             -82.989907908272 Eh    ::
         :: gradient norm              0.000530347570 Eh/a0 ::
         :: HOMO-LUMO gap              2.339185839102 eV    ::
         :: SCC energy               -83.769452514048 Eh    ::
         :: -> Gsolv                  -0.055171136929 Eh    ::
         :: repulsion energy           0.804792078587 Eh    ::

    * Orbital Energies and Occupations

         #    Occupation            Energy/Eh            Energy/eV
      -------------------------------------------------------------
         1        2.0000           -0.8636248             -23.5004
       ...           ...                  ...                  ...
        55        2.0000           -0.5056721             -13.7600
        56        2.0000           -0.5041822             -13.7195
        57        2.0000           -0.5000476             -13.6070
        58        2.0000           -0.4932056             -13.4208
        59        2.0000           -0.4825431             -13.1307
        60        2.0000           -0.4770749             -12.9819
        61        2.0000           -0.4656769             -12.6717
        62        2.0000           -0.4609613             -12.5434
        63        2.0000           -0.4532657             -12.3340
        64        2.0000           -0.4501011             -12.2479
        65        2.0000           -0.4471498             -12.1676
        66        2.0000           -0.4240632             -11.5393
        67        2.0000           -0.4155715             -11.3083 (HOMO)
        68                         -0.3296080              -8.9691 (LUMO)
        69                         -0.3110243              -8.4634
        70                         -0.2737322              -7.4486
        71                         -0.2568774              -6.9900
        72                         -0.2521006              -6.8600
        73                         -0.1991500              -5.4191
        74                         -0.1601684              -4.3584
        75                         -0.1478032              -4.0219
        76                         -0.1420014              -3.8641
        77                         -0.1377591              -3.7486
        78                         -0.1262657              -3.4359
       ...                                ...                  ...
       134                          0.7504565              20.4210
      -------------------------------------------------------------
                  HL-Gap            0.0859635 Eh            2.3392 eV

Wiberg/Mayer (AO) data.
largest (>0.10) Wiberg bond orders for each atom

     #   Z sym  total        # sym  WBO       # sym  WBO       # sym  WBO
 ---------------------------------------------------------------------------
     1   6 C    3.843 --    26 H    0.982    27 H    0.980    28 H    0.970
                             2 O    0.871
     2   8 O    2.227 --     3 C    1.149     1 C    0.871
     3   6 C    3.830 --     6 C    1.314     2 O    1.149     4 O    1.146
     4   8 O    2.228 --     3 C    1.146     5 C    0.888
     5   6 C    3.861 --    31 H    0.984    29 H    0.978    30 H    0.978
                             4 O    0.888
     6   6 C    3.923 --     3 C    1.314    24 C    1.184     7 N    1.105
     7   7 N    3.027 --     8 C    1.669     6 C    1.105
     8   6 C    3.932 --     7 N    1.669    21 N    1.098     9 C    0.979
     9   6 C    3.933 --    11 C    0.992     8 C    0.979    10 C    0.979
                            12 N    0.919
    10   6 C    3.987 --    32 H    0.985    33 H    0.984     9 C    0.979
                            34 H    0.978
    11   6 C    3.990 --     9 C    0.992    35 H    0.985    36 H    0.984
                            37 H    0.983
    12   7 N    3.335 --    13 C    1.246     9 C    0.919    38 H    0.895
                            14 O    0.175
    13   6 C    3.916 --    14 O    1.599    12 N    1.246    15 C    0.989
    14   8 O    1.915 --    13 C    1.599    12 N    0.175
    15   6 C    3.875 --    16 N    1.610    20 O    1.064    13 C    0.989
    16   7 N    3.017 --    15 C    1.610    17 N    1.200
    17   7 N    2.981 --    18 C    1.605    16 N    1.200
    18   6 C    3.871 --    17 N    1.605    20 O    1.083    19 C    1.031
    19   6 C    3.986 --    18 C    1.031    39 H    0.982    40 H    0.966
                            41 H    0.960
    20   8 O    2.331 --    18 C    1.083    15 C    1.064
    21   7 N    3.432 --    22 C    1.162     8 C    1.098    42 H    0.887
                            23 O    0.139
    22   6 C    3.885 --    23 O    1.636    21 N    1.162    24 C    0.942
    23   8 O    1.912 --    22 C    1.636    21 N    0.139
    24   6 C    3.920 --    25 O    1.602     6 C    1.184    22 C    0.942
    25   8 O    1.924 --    24 C    1.602
    26   1 H    1.007 --     1 C    0.982
    27   1 H    1.009 --     1 C    0.980
    28   1 H    1.022 --     1 C    0.970
    29   1 H    1.005 --     5 C    0.978
    30   1 H    1.004 --     5 C    0.978
    31   1 H    1.009 --     5 C    0.984
    32   1 H    1.002 --    10 C    0.985
    33   1 H    1.001 --    10 C    0.984
    34   1 H    1.010 --    10 C    0.978
    35   1 H    1.006 --    11 C    0.985
    36   1 H    1.010 --    11 C    0.984
    37   1 H    1.007 --    11 C    0.983
    38   1 H    0.952 --    12 N    0.895
    39   1 H    0.998 --    19 C    0.982
    40   1 H    0.997 --    19 C    0.966
    41   1 H    0.997 --    19 C    0.960
    42   1 H    0.933 --    21 N    0.887
 ---------------------------------------------------------------------------

           -------------------------------------------------
          | TOTAL ENERGY              -82.989907908272 Eh   |
          | GRADIENT NORM               0.000530347570 Eh/α |
          | HOMO-LUMO GAP               2.339185839102 eV   |
           -------------------------------------------------

 * finished run on 2023/06/21 at 17:34:12.192
