   * xtb version 6.5.1 (579679a) compiled by 'ehlert@majestix' on 2022-07-11
          program call               : /lustre/hpc/kemi/ree/PhD/git/ReactivityQM/dep/xtb-6.5.1/bin/xtb --gfn 1 /lustre/hpc/kemi/ree/PhD/git/ReactivityQM/calculations/R02/reac01prodN09/conf03/R02_reac01prodN09_conf03_gfn1.xyz --opt --vfukui --chrg 1 --uhf 0 --alpb DMSO

   ID    Z sym.   atoms
    1    6 C      1, 3, 5, 6, 8-11, 13, 15, 18, 19, 22, 24
    2    8 O      2, 4, 14, 20, 23, 25
    3    7 N      7, 12, 16, 17, 21
    4    1 H      26-43

      * Solvation model:               ALPB
        Solvent                        DMSO
        Solvent mass                       7.8130E+01 g/mol
          :  Hamiltonian                  GFN1-xTB          :
 * total energy  :   -83.0950504 Eh     change       -0.8391083E-09 Eh
 * total energy  :   -83.1156084 Eh     change       -0.2055795E-01 Eh
 * total energy  :   -83.1249471 Eh     change       -0.9338733E-02 Eh
 * total energy  :   -83.1270132 Eh     change       -0.2066062E-02 Eh
 * total energy  :   -83.1280582 Eh     change       -0.1045061E-02 Eh
 * total energy  :   -83.1283553 Eh     change       -0.2970665E-03 Eh
 * total energy  :   -83.1285877 Eh     change       -0.2323560E-03 Eh
 * total energy  :   -83.1287003 Eh     change       -0.1126764E-03 Eh
 * total energy  :   -83.1287714 Eh     change       -0.7103521E-04 Eh
 * total energy  :   -83.1288343 Eh     change       -0.6295096E-04 Eh
 * total energy  :   -83.1298244 Eh     change       -0.1450122E-04 Eh
 * total energy  :   -83.1298401 Eh     change       -0.1576662E-04 Eh
 * total energy  :   -83.1298465 Eh     change       -0.6340429E-05 Eh
 * total energy  :   -83.1298542 Eh     change       -0.7779528E-05 Eh
 * total energy  :   -83.1298601 Eh     change       -0.5828605E-05 Eh
 * total energy  :   -83.1298675 Eh     change       -0.7424954E-05 Eh
 * total energy  :   -83.1298721 Eh     change       -0.4612956E-05 Eh
 * total energy  :   -83.1298800 Eh     change       -0.7847872E-05 Eh
 * total energy  :   -83.1298835 Eh     change       -0.3489610E-05 Eh
   *** GEOMETRY OPTIMIZATION CONVERGED AFTER 44 ITERATIONS ***

 final structure:
================
43
 xtb: 6.5.1 (579679a)
C           -2.91448283550135       -3.06322219583024       -0.08133764928555
O           -2.62421553694567       -1.64327521944914       -0.13798826847466
C           -2.74181149970300       -1.04241229489817       -1.27267852730674
O           -3.09422355683731       -1.45330790029460       -2.32760293919543
C           -2.31264737205599        0.53128667903989       -1.12552127724486
C           -2.13235800044604        1.07955663142099       -2.54128442988147
N           -1.08704605049596        0.50189891550292       -0.40510523855797
C           -1.04664369594499        0.66562410930668        0.86126643338837
C            0.26790166248617        0.57399435581591        1.60400444399285
C            0.55964424668472        1.90158944364557        2.31995411257439
C            0.20729754662563       -0.60001574411026        2.59438230404071
N            1.29658418764341        0.31826474103871        0.60568589148546
C            2.60636066896346        0.16811004866553        0.90389202232109
O            3.08791456353309        0.23636789683382        2.01948912780074
C            3.39790992633653       -0.09076237516858       -0.32378588542055
N            2.93256187578018       -0.18129120445846       -1.53403153355881
N            3.99838668896497       -0.42081251274380       -2.34692028403967
C            5.04772546445054       -0.45983859442324       -1.58050327565771
C            6.45332165580771       -0.68679692415333       -1.98251530038067
O            4.73161040295447       -0.25873638881829       -0.29312412182798
N           -2.16999443478586        0.93349111747901        1.62576339397812
C           -3.40491000766045        1.14806425270701        1.10551255104146
O           -4.39715581521315        1.43893757412397        1.73135194993344
C           -3.45145111550804        1.03171522017322       -0.38367763289607
O           -4.55277026756267        1.31520607439437       -0.96009127772281
H           -3.84334471205059       -3.26436144193823       -0.61515589369212
H           -3.00616765164727       -3.30045740169684        0.97532639443483
H           -2.08797849739089       -3.61279310302922       -0.53217164693861
H           -3.07252785410737        1.01140011256471       -3.08418600933071
H           -1.36789202671332        0.50055953507792       -3.05438456714995
H           -1.81875610651495        2.11895072153501       -2.47600788356982
H           -0.22894166493762        2.12373383120555        3.03504721264436
H            1.50585935263198        1.82360580305162        2.85319536772315
H            0.62179423794597        2.70898225649554        1.59246673688307
H            0.00727987684358       -1.52498287058986        2.05634801015288
H           -0.57968293110622       -0.43404080036634        3.32629405859950
H            1.16050611030884       -0.68310412119213        3.11432047966877
H            0.99256025504734        0.22589419408180       -0.35461514884662
H            6.87447635227342       -1.51395050644608       -1.41160996830602
H            6.49808837091349       -0.91269274686079       -3.04511342130767
H            7.04698161506330        0.20391306550461       -1.77504787846566
H           -2.09325612310990        1.01864758687784        2.63137853335318
H           -5.26650630502735        1.56706017992535       -0.32997196495864

          :  Hamiltonian                  GFN1-xTB          :
         :: total energy             -83.129883451203 Eh    ::
         :: gradient norm              0.000342743525 Eh/a0 ::
         :: HOMO-LUMO gap              0.732765399482 eV    ::
         :: SCC energy               -83.931100834083 Eh    ::
         :: -> Gsolv                  -0.113098484988 Eh    ::
         :: repulsion energy           0.828680604376 Eh    ::

    * Orbital Energies and Occupations

         #    Occupation            Energy/Eh            Energy/eV
      -------------------------------------------------------------
         1        2.0000           -0.9210199             -25.0622
       ...           ...                  ...                  ...
        55        2.0000           -0.5358889             -14.5823
        56        2.0000           -0.5310242             -14.4499
        57        2.0000           -0.5269303             -14.3385
        58        2.0000           -0.5195735             -14.1383
        59        2.0000           -0.5128662             -13.9558
        60        2.0000           -0.5113512             -13.9146
        61        2.0000           -0.5013363             -13.6421
        62        2.0000           -0.4974471             -13.5362
        63        2.0000           -0.4885691             -13.2946
        64        2.0000           -0.4729215             -12.8688
        65        2.0000           -0.4685853             -12.7509
        66        2.0000           -0.4584400             -12.4748
        67        2.0000           -0.4556248             -12.3982 (HOMO)
        68        0.0000           -0.4286962             -11.6654 (LUMO)
        69                         -0.3406318              -9.2691
        70                         -0.3178356              -8.6487
        71                         -0.3122948              -8.4980
        72                         -0.2721686              -7.4061
        73                         -0.2619225              -7.1273
        74                         -0.2053871              -5.5889
        75                         -0.1686232              -4.5885
        76                         -0.1620007              -4.4083
        77                         -0.1568941              -4.2693
        78                         -0.1536335              -4.1806
       ...                                ...                  ...
       136                          0.7494701              20.3941
      -------------------------------------------------------------
                  HL-Gap            0.0269286 Eh            0.7328 eV

Wiberg/Mayer (AO) data.
largest (>0.10) Wiberg bond orders for each atom

     #   Z sym  total        # sym  WBO       # sym  WBO       # sym  WBO
 ---------------------------------------------------------------------------
     1   6 C    3.814 --    27 H    0.980    26 H    0.979    28 H    0.976
                             2 O    0.834
     2   8 O    2.254 --     3 C    1.223     1 C    0.834     4 O    0.149
     3   6 C    3.857 --     4 O    1.755     2 O    1.223     5 C    0.693
     4   8 O    2.099 --     3 C    1.755     2 O    0.149
     5   6 C    3.954 --    24 C    1.110     7 N    1.021     6 C    0.955
                             3 C    0.693
     6   6 C    3.966 --    30 H    0.980    29 H    0.980    31 H    0.976
                             5 C    0.955
     7   7 N    3.046 --     8 C    1.684     5 C    1.021
     8   6 C    3.911 --     7 N    1.684    21 N    1.100     9 C    0.985
     9   6 C    3.938 --     8 C    0.985    10 C    0.973    11 C    0.969
                            12 N    0.944
    10   6 C    3.983 --    34 H    0.984    32 H    0.982    33 H    0.975
                             9 C    0.973
    11   6 C    3.984 --    35 H    0.985    36 H    0.982    37 H    0.974
                             9 C    0.969
    12   7 N    3.336 --    13 C    1.240     9 C    0.944    38 H    0.879
                            14 O    0.175
    13   6 C    3.915 --    14 O    1.599    12 N    1.240    15 C    0.992
    14   8 O    1.918 --    13 C    1.599    12 N    0.175
    15   6 C    3.877 --    16 N    1.607    20 O    1.066    13 C    0.992
    16   7 N    3.016 --    15 C    1.607    17 N    1.203
    17   7 N    2.980 --    18 C    1.601    16 N    1.203
    18   6 C    3.869 --    17 N    1.601    20 O    1.084    19 C    1.032
    19   6 C    3.986 --    18 C    1.032    40 H    0.982    39 H    0.965
                            41 H    0.961
    20   8 O    2.333 --    18 C    1.084    15 C    1.066
    21   7 N    3.480 --    22 C    1.195     8 C    1.100    42 H    0.864
                            23 O    0.166
    22   6 C    3.921 --    23 O    1.645    21 N    1.195    24 C    0.972
    23   8 O    1.982 --    22 C    1.645    21 N    0.166
    24   6 C    3.806 --    25 O    1.365     5 C    1.110    22 C    0.972
    25   8 O    2.284 --    24 C    1.365    43 H    0.741
    26   1 H    0.997 --     1 C    0.979
    27   1 H    1.002 --     1 C    0.980
    28   1 H    0.997 --     1 C    0.976
    29   1 H    0.998 --     6 C    0.980
    30   1 H    0.997 --     6 C    0.980
    31   1 H    0.994 --     6 C    0.976
    32   1 H    0.997 --    10 C    0.982
    33   1 H    1.005 --    10 C    0.975
    34   1 H    0.999 --    10 C    0.984
    35   1 H    1.000 --    11 C    0.985
    36   1 H    0.997 --    11 C    0.982
    37   1 H    1.004 --    11 C    0.974
    38   1 H    0.961 --    12 N    0.879
    39   1 H    0.996 --    19 C    0.965
    40   1 H    0.998 --    19 C    0.982
    41   1 H    0.996 --    19 C    0.961
    42   1 H    0.910 --    21 N    0.864
    43   1 H    0.784 --    25 O    0.741
 ---------------------------------------------------------------------------

           -------------------------------------------------
          | TOTAL ENERGY              -83.129883451203 Eh   |
          | GRADIENT NORM               0.000342743525 Eh/α |
          | HOMO-LUMO GAP               0.732765399482 eV   |
           -------------------------------------------------

 * finished run on 2023/06/20 at 15:29:32.340
