   * xtb version 6.5.1 (579679a) compiled by 'ehlert@majestix' on 2022-07-11
          program call               : /lustre/hpc/kemi/ree/PhD/git/ReactivityQM/dep/xtb-6.5.1/bin/xtb --gfn 1 /lustre/hpc/kemi/ree/PhD/git/ReactivityQM/calculations/R02methylcation/reac01prodN05/conf02/R02methylcation_reac01prodN05_conf02_gfn1.xyz --opt --vfukui --chrg 0 --uhf 0 --alpb DMSO

   ID    Z sym.   atoms
    1    6 C      1, 3, 5, 6, 8, 11-14, 16, 18, 21, 22, 25
    2    8 O      2, 4, 7, 9, 17, 23
    3    7 N      10, 15, 19, 20, 24
    4    1 H      26-42

      * Solvation model:               ALPB
        Solvent                        DMSO
        Solvent mass                       7.8130E+01 g/mol
          :  Hamiltonian                  GFN1-xTB          :
 * total energy  :   -82.9715286 Eh     change       -0.2758327E-10 Eh
 * total energy  :   -82.9840643 Eh     change       -0.1253565E-01 Eh
 * total energy  :   -82.9892198 Eh     change       -0.5155534E-02 Eh
 * total energy  :   -82.9903884 Eh     change       -0.1168573E-02 Eh
 * total energy  :   -82.9910140 Eh     change       -0.6256026E-03 Eh
 * total energy  :   -82.9912604 Eh     change       -0.2464430E-03 Eh
 * total energy  :   -82.9913938 Eh     change       -0.1334054E-03 Eh
 * total energy  :   -82.9915004 Eh     change       -0.1065231E-03 Eh
 * total energy  :   -82.9916181 Eh     change       -0.1177682E-03 Eh
 * total energy  :   -82.9917637 Eh     change       -0.1455921E-03 Eh
 * total energy  :   -82.9927286 Eh     change       -0.1415130E-04 Eh
 * total energy  :   -82.9927396 Eh     change       -0.1092556E-04 Eh
 * total energy  :   -82.9927534 Eh     change       -0.1388087E-04 Eh
 * total energy  :   -82.9927709 Eh     change       -0.1749349E-04 Eh
 * total energy  :   -82.9927897 Eh     change       -0.1879096E-04 Eh
 * total energy  :   -82.9928055 Eh     change       -0.1574093E-04 Eh
 * total energy  :   -82.9928169 Eh     change       -0.1148457E-04 Eh
 * total energy  :   -82.9928237 Eh     change       -0.6735659E-05 Eh
 * total energy  :   -82.9928281 Eh     change       -0.4452227E-05 Eh
   *** GEOMETRY OPTIMIZATION CONVERGED AFTER 37 ITERATIONS ***

 final structure:
================
42
 xtb: 6.5.1 (579679a)
C           -4.98847708330505        3.13319554674646       -0.22051548667974
O           -4.52434969657335        1.81851759442177       -0.52768107953604
C           -3.24221107845606        1.56530049813432       -0.25111933699861
O           -2.51797802876763        2.41419266120419        0.24420149793398
C           -2.81752295612257        0.21485338886836       -0.64686490894025
C           -3.53200287822874       -0.50976483750106       -1.64177510503648
O           -4.61149713389776       -0.18825685599084       -2.13893531466462
C           -2.86166347924475       -1.76599638746114       -2.13788423382131
O           -3.33128229167315       -2.54359370642843       -2.94167363381094
N           -1.58643026501070       -1.98928079730673       -1.63914752343498
C           -0.96881491682494       -1.30014319961356       -0.65260793020353
C            0.38993842208203       -1.83647813665190       -0.21127620589709
C            0.19329369786564       -2.78158788012617        0.98506219464982
C            1.09230644905595       -2.59668520333654       -1.34862168968709
N            1.23808109231882       -0.68752981289733        0.11369409864163
C            2.43364731948886       -0.79926139368711        0.75470371616722
O            2.84495518878815       -1.78618378564161        1.32873606469171
C            3.16809983370845        0.48701585563353        0.68985578657116
N            2.77241131645423        1.56385283711484        0.07891810363760
N            3.74518947745295        2.49778680995411        0.26080026888337
C            4.67512497385253        1.93094160173064        0.97047369870376
C            5.94726206281493        2.52395263848923        1.43713725193523
O            4.36735819646128        0.66125210045441        1.27153606366520
N           -1.59732672071953       -0.26535441961182       -0.13460994248863
C           -1.09357936856290        0.37242824882178        1.09102631950284
H           -4.88700892863680        3.32850429834856        0.84988003015955
H           -6.03697101520218        3.17013614590817       -0.51159577808592
H           -4.41454691576313        3.87893149220010       -0.77651559838361
H           -1.13266818014237       -2.80377869276386       -2.02281099972759
H            1.09900452173020       -3.35986787401488        1.15332484741072
H           -0.04296251406269       -2.23426804206871        1.89441804171637
H           -0.62327121035089       -3.46595525577123        0.76073118685952
H            1.11378216398877       -1.99758929798022       -2.25685107570589
H            0.60688090640602       -3.55031133336328       -1.54575137776066
H            2.11610016879656       -2.79958036182978       -1.03826462924844
H            1.13600074826571        0.11922960644717       -0.48704666916967
H            6.01165382999388        3.55878223553586        1.11032544798207
H            6.78934654720916        1.96049294236932        1.03512042433406
H            6.00088957983667        2.47874768717301        2.52477203529772
H           -0.51158160051964        1.25597380600903        0.83713444666390
H           -1.94131460955340        0.65524759779184        1.70942383147122
H           -0.47786762493541       -0.32786831930671        1.64125516240581

          :  Hamiltonian                  GFN1-xTB          :
         :: total energy             -82.992828132082 Eh    ::
         :: gradient norm              0.000447212298 Eh/a0 ::
         :: HOMO-LUMO gap              2.514682922900 eV    ::
         :: SCC energy               -83.774001015023 Eh    ::
         :: -> Gsolv                  -0.067302249239 Eh    ::
         :: repulsion energy           0.808137999957 Eh    ::

    * Orbital Energies and Occupations

         #    Occupation            Energy/Eh            Energy/eV
      -------------------------------------------------------------
         1        2.0000           -0.8681881             -23.6246
       ...           ...                  ...                  ...
        55        2.0000           -0.5109283             -13.9031
        56        2.0000           -0.5106425             -13.8953
        57        2.0000           -0.4960297             -13.4977
        58        2.0000           -0.4929107             -13.4128
        59        2.0000           -0.4901309             -13.3371
        60        2.0000           -0.4876112             -13.2686
        61        2.0000           -0.4745832             -12.9141
        62        2.0000           -0.4736160             -12.8877
        63        2.0000           -0.4671185             -12.7109
        64        2.0000           -0.4578657             -12.4592
        65        2.0000           -0.4546899             -12.3727
        66        2.0000           -0.4272316             -11.6256
        67        2.0000           -0.4164991             -11.3335 (HOMO)
        68                         -0.3240862              -8.8188 (LUMO)
        69                         -0.3190092              -8.6807
        70                         -0.3056096              -8.3161
        71                         -0.2608116              -7.0970
        72                         -0.2399929              -6.5305
        73                         -0.2066458              -5.6231
        74                         -0.1682928              -4.5795
        75                         -0.1487713              -4.0483
        76                         -0.1435480              -3.9061
        77                         -0.1400630              -3.8113
        78                         -0.1344585              -3.6588
       ...                                ...                  ...
       134                          0.7511423              20.4396
      -------------------------------------------------------------
                  HL-Gap            0.0924129 Eh            2.5147 eV

Wiberg/Mayer (AO) data.
largest (>0.10) Wiberg bond orders for each atom

     #   Z sym  total        # sym  WBO       # sym  WBO       # sym  WBO
 ---------------------------------------------------------------------------
     1   6 C    3.877 --    27 H    0.986    26 H    0.980    28 H    0.980
                             2 O    0.903
     2   8 O    2.201 --     3 C    1.105     1 C    0.903     4 O    0.121
     3   6 C    3.865 --     4 O    1.584     2 O    1.105     5 C    1.080
     4   8 O    1.895 --     3 C    1.584     2 O    0.121
     5   6 C    3.850 --     6 C    1.258     3 C    1.080    24 N    1.056
                             7 O    0.139
     6   6 C    3.944 --     7 O    1.573     5 C    1.258     8 C    0.954
     7   8 O    1.883 --     6 C    1.573     5 C    0.139
     8   6 C    3.867 --     9 O    1.661    10 N    1.089     6 C    0.954
     9   8 O    1.933 --     8 C    1.661    10 N    0.117
    10   7 N    3.453 --    11 C    1.207     8 C    1.089    29 H    0.877
                             9 O    0.117
    11   6 C    3.914 --    24 N    1.434    10 N    1.207    12 C    0.978
    12   6 C    3.934 --    14 C    0.985    11 C    0.978    13 C    0.976
                            15 N    0.933
    13   6 C    3.981 --    32 H    0.984    12 C    0.976    31 H    0.976
                            30 H    0.975
    14   6 C    3.986 --    12 C    0.985    33 H    0.984    34 H    0.978
                            35 H    0.977
    15   7 N    3.312 --    16 C    1.209    12 C    0.933    36 H    0.894
                            17 O    0.167
    16   6 C    3.912 --    17 O    1.621    15 N    1.209    18 C    0.993
    17   8 O    1.932 --    16 C    1.621    15 N    0.167
    18   6 C    3.878 --    19 N    1.604    23 O    1.066    16 C    0.993
    19   7 N    3.022 --    18 C    1.604    20 N    1.205
    20   7 N    2.981 --    21 C    1.599    19 N    1.205
    21   6 C    3.869 --    20 N    1.599    23 O    1.084    22 C    1.032
    22   6 C    3.985 --    21 C    1.032    37 H    0.982    39 H    0.963
                            38 H    0.962
    23   8 O    2.334 --    21 C    1.084    18 C    1.066
    24   7 N    3.589 --    11 C    1.434     5 C    1.056    25 C    0.917
    25   6 C    3.910 --    42 H    0.976    41 H    0.976    40 H    0.970
                            24 N    0.917
    26   1 H    1.009 --     1 C    0.980
    27   1 H    1.012 --     1 C    0.986
    28   1 H    1.009 --     1 C    0.980
    29   1 H    0.932 --    10 N    0.877
    30   1 H    1.009 --    13 C    0.975
    31   1 H    1.001 --    13 C    0.976
    32   1 H    1.000 --    13 C    0.984
    33   1 H    0.997 --    14 C    0.984
    34   1 H    0.996 --    14 C    0.978
    35   1 H    0.999 --    14 C    0.977
    36   1 H    0.952 --    15 N    0.894
    37   1 H    0.998 --    22 C    0.982
    38   1 H    0.996 --    22 C    0.962
    39   1 H    0.996 --    22 C    0.963
    40   1 H    1.015 --    25 C    0.970
    41   1 H    1.005 --    25 C    0.976
    42   1 H    1.010 --    25 C    0.976
 ---------------------------------------------------------------------------

           -------------------------------------------------
          | TOTAL ENERGY              -82.992828132082 Eh   |
          | GRADIENT NORM               0.000447212298 Eh/α |
          | HOMO-LUMO GAP               2.514682922900 eV   |
           -------------------------------------------------

 * finished run on 2023/06/21 at 17:35:13.978
