   * xtb version 6.5.1 (579679a) compiled by 'ehlert@majestix' on 2022-07-11
          program call               : /lustre/hpc/kemi/ree/PhD/git/ReactivityQM/dep/xtb-6.5.1/bin/xtb --gfn 1 /lustre/hpc/kemi/ree/PhD/git/ReactivityQM/calculations/RaltegravirCLI/reac01prodN05/conf07/RaltegravirCLI_reac01prodN05_conf07_gfn1.xyz --opt --vfukui --chrg 1 --uhf 0 --alpb DMSO

   ID    Z sym.   atoms
    1    6 C      1, 2, 5-7
    2    7 N      3, 4
    3    8 O      8, 10
    4   17 Cl     9
    5    1 H      11-16

      * Solvation model:               ALPB
        Solvent                        DMSO
        Solvent mass                       7.8130E+01 g/mol
          :  Hamiltonian                  GFN1-xTB          :
 * total energy  :   -33.3754952 Eh     change       -0.2415845E-11 Eh
 * total energy  :   -33.3839389 Eh     change       -0.8443759E-02 Eh
 * total energy  :   -33.3875085 Eh     change       -0.3569577E-02 Eh
 * total energy  :   -33.3878282 Eh     change       -0.3197439E-03 Eh
 * total energy  :   -33.3879599 Eh     change       -0.1316154E-03 Eh
 * total energy  :   -33.3880069 Eh     change       -0.4700477E-04 Eh
 * total energy  :   -33.3881082 Eh     change       -0.1013816E-03 Eh
 * total energy  :   -33.3882811 Eh     change       -0.1728878E-03 Eh
 * total energy  :   -33.3882533 Eh     change        0.2777995E-04 Eh
 * total energy  :   -33.3886022 Eh     change       -0.3488824E-03 Eh
 * total energy  :   -33.3920601 Eh     change       -0.3849711E-04 Eh
 * total energy  :   -33.3920865 Eh     change       -0.2641947E-04 Eh
 * total energy  :   -33.3921149 Eh     change       -0.2846548E-04 Eh
 * total energy  :   -33.3921239 Eh     change       -0.8935936E-05 Eh
 * total energy  :   -33.3921428 Eh     change       -0.1891326E-04 Eh
 * total energy  :   -33.3921537 Eh     change       -0.1090464E-04 Eh
 * total energy  :   -33.3921523 Eh     change        0.1362286E-05 Eh
 * total energy  :   -33.3921672 Eh     change       -0.1482268E-04 Eh
 * total energy  :   -33.3921698 Eh     change       -0.2611754E-05 Eh
   *** GEOMETRY OPTIMIZATION CONVERGED AFTER 54 ITERATIONS ***

 final structure:
================
16
 xtb: 6.5.1 (579679a)
C            2.69038908562610       -0.19733983251616        0.16550159092697
C            1.26626515786411        0.07327282592950        0.27485242726365
N            0.66974211839709        0.81174593087747        1.27223598420043
N           -0.56768845983610        0.84553974342592        1.04051646617676
C           -0.86235866576236        0.09583206634302       -0.12394976629053
C           -1.60382336125036        0.86965943153715       -1.21482802251056
C           -1.81004209751025       -1.09876636650043        0.35919095324008
O           -2.91431936284201       -0.82757413626197        0.68460211483232
Cl          -1.11462783431651       -2.62234649810587        0.33610405340868
O            0.39362334762824       -0.35856530306859       -0.55961100273395
H            3.22235870539951        0.75272177999187        0.05719198781125
H            2.90228665364568       -0.84684716643551       -0.68059296737372
H            3.04708311460493       -0.64246166126467        1.09780920552039
H           -0.99696294377103        1.72293577129408       -1.50929012717715
H           -1.76290012728389        0.21836122954938       -2.07087628953894
H           -2.55902633059323        1.20383218520469       -0.81453860775565

          :  Hamiltonian                  GFN1-xTB          :
         :: total energy             -33.392169768871 Eh    ::
         :: gradient norm              0.000794325173 Eh/a0 ::
         :: HOMO-LUMO gap              2.024158804652 eV    ::
         :: SCC energy               -33.670695088171 Eh    ::
         :: -> Gsolv                  -0.085534666210 Eh    ::
         :: repulsion energy           0.286482582479 Eh    ::

    * Orbital Energies and Occupations

         #    Occupation            Energy/Eh            Energy/eV
      -------------------------------------------------------------
         1        2.0000           -1.0042635             -27.3274
       ...           ...                  ...                  ...
        15        2.0000           -0.6378584             -17.3570
        16        2.0000           -0.6145910             -16.7239
        17        2.0000           -0.6052953             -16.4709
        18        2.0000           -0.6038118             -16.4306
        19        2.0000           -0.5865263             -15.9602
        20        2.0000           -0.5828954             -15.8614
        21        2.0000           -0.5755740             -15.6622
        22        2.0000           -0.5706159             -15.5272
        23        2.0000           -0.5677961             -15.4505
        24        2.0000           -0.5358709             -14.5818
        25        2.0000           -0.5335886             -14.5197
        26        2.0000           -0.5245660             -14.2742
        27        2.0000           -0.5135748             -13.9751 (HOMO)
        28                         -0.4391884             -11.9509 (LUMO)
        29                         -0.3570869              -9.7168
        30                         -0.3400052              -9.2520
        31                         -0.2507486              -6.8232
        32                         -0.1823287              -4.9614
        33                         -0.1643918              -4.4733
        34                         -0.1364606              -3.7133
        35                         -0.1291521              -3.5144
        36                         -0.1278104              -3.4779
        37                         -0.1142495              -3.1089
        38                         -0.1106819              -3.0118
       ...                                ...                  ...
        57                          0.7144672              19.4416
      -------------------------------------------------------------
                  HL-Gap            0.0743865 Eh            2.0242 eV

Wiberg/Mayer (AO) data.
largest (>0.10) Wiberg bond orders for each atom

     #   Z sym  total        # sym  WBO       # sym  WBO       # sym  WBO
 ---------------------------------------------------------------------------
     1   6 C    3.961 --     2 C    1.091    12 H    0.970    13 H    0.918
                            11 H    0.908
     2   6 C    3.799 --    10 O    1.291     3 N    1.181     1 C    1.091
     3   7 N    3.024 --     4 N    1.673     2 C    1.181
     4   7 N    3.012 --     3 N    1.673     5 C    1.077
     5   6 C    3.840 --     4 N    1.077     6 C    0.911    10 O    0.907
                             7 C    0.781
     6   6 C    3.942 --    15 H    0.977    14 H    0.974    16 H    0.973
                             5 C    0.911
     7   6 C    3.876 --     8 O    1.834     9 Cl   1.151     5 C    0.781
     8   8 O    2.135 --     7 C    1.834     9 Cl   0.157
     9  17 Cl   1.403 --     7 C    1.151     8 O    0.157
    10   8 O    2.380 --     2 C    1.291     5 C    0.907
    11   1 H    0.973 --     1 C    0.908
    12   1 H    0.984 --     1 C    0.970
    13   1 H    0.977 --     1 C    0.918
    14   1 H    0.988 --     6 C    0.974
    15   1 H    0.989 --     6 C    0.977
    16   1 H    0.993 --     6 C    0.973
 ---------------------------------------------------------------------------

           -------------------------------------------------
          | TOTAL ENERGY              -33.392169768871 Eh   |
          | GRADIENT NORM               0.000794325173 Eh/α |
          | HOMO-LUMO GAP               2.024158804652 eV   |
           -------------------------------------------------

 * finished run on 2023/06/20 at 14:54:58.239
