   * xtb version 6.5.1 (579679a) compiled by 'ehlert@majestix' on 2022-07-11
          program call               : /lustre/hpc/kemi/ree/PhD/git/ReactivityQM/dep/xtb-6.5.1/bin/xtb --gfn 1 /lustre/hpc/kemi/ree/PhD/git/ReactivityQM/calculations/R02oxygendeprot/reac01prodN10/conf05/R02oxygendeprot_reac01prodN10_conf05_gfn1.xyz --opt --vfukui --chrg 0 --uhf 0 --alpb DMSO

   ID    Z sym.   atoms
    1    6 C      1, 3, 5, 6, 8, 11-15, 17, 19, 22, 23
    2    8 O      2, 4, 7, 9, 18, 24
    3    7 N      10, 16, 20, 21, 25
    4    1 H      26-42

      * Solvation model:               ALPB
        Solvent                        DMSO
        Solvent mass                       7.8130E+01 g/mol
          :  Hamiltonian                  GFN1-xTB          :
 * total energy  :   -82.9655219 Eh     change       -0.1249134E-10 Eh
 * total energy  :   -82.9764652 Eh     change       -0.1094329E-01 Eh
 * total energy  :   -82.9807819 Eh     change       -0.4316720E-02 Eh
 * total energy  :   -82.9814377 Eh     change       -0.6557491E-03 Eh
 * total energy  :   -82.9819375 Eh     change       -0.4998544E-03 Eh
 * total energy  :   -82.9823458 Eh     change       -0.4083161E-03 Eh
 * total energy  :   -82.9827800 Eh     change       -0.4341705E-03 Eh
 * total energy  :   -82.9831805 Eh     change       -0.4005006E-03 Eh
 * total energy  :   -82.9834777 Eh     change       -0.2972224E-03 Eh
 * total energy  :   -82.9836667 Eh     change       -0.1889369E-03 Eh
 * total energy  :   -82.9843796 Eh     change       -0.5167619E-05 Eh
 * total energy  :   -82.9843978 Eh     change       -0.1818591E-04 Eh
 * total energy  :   -82.9844063 Eh     change       -0.8517036E-05 Eh
 * total energy  :   -82.9844157 Eh     change       -0.9399058E-05 Eh
 * total energy  :   -82.9844278 Eh     change       -0.1209013E-04 Eh
 * total energy  :   -82.9844420 Eh     change       -0.1412687E-04 Eh
 * total energy  :   -82.9844543 Eh     change       -0.1232203E-04 Eh
 * total energy  :   -82.9844638 Eh     change       -0.9559033E-05 Eh
 * total energy  :   -82.9844684 Eh     change       -0.4571449E-05 Eh
   *** GEOMETRY OPTIMIZATION CONVERGED AFTER 34 ITERATIONS ***

 final structure:
================
42
 xtb: 6.5.1 (579679a)
C           -3.71119161778502        3.35925226328310       -1.80083895352468
O           -3.05482796569469        2.54722048559301       -0.81804195894786
C           -2.82090264024550        1.28995534608977       -1.14373016953749
O           -3.10766778910430        0.78814690342101       -2.20076778222167
C           -2.12290253545160        0.52860218198958       -0.03291656713725
C           -2.14049455117783        1.01351750650307        1.37893696506201
O           -3.01054893611065        1.70008752439255        1.84712434506027
C           -0.95788362480645        0.50334291359326        2.20848286290348
O           -0.55215500210138        1.06873481151988        3.20178113894363
N           -0.38590145647312       -0.61269939470713        1.70538598274130
C           -0.89063814271516       -1.39412521447968        0.58717285157052
C           -1.92846068634283       -2.39883224938704        1.10860490605136
C            0.31192185005316       -2.05928341379406       -0.15437541266789
C            1.02524563435184       -3.10431445805596        0.70809472103955
C           -0.15842279665953       -2.68801956905122       -1.47044726760757
N            1.23345736050481       -0.95427550437662       -0.44053481301955
C            2.38712626988263       -1.09026281977545       -1.12543695067374
O            2.78268359814547       -2.11267562993298       -1.66047046921338
C            3.15611717124545        0.17880797123800       -1.19678518189477
N            4.25851664638107        0.39655776946386       -1.84299534546387
N            4.58788996079760        1.70172950274879       -1.63178980288079
C            3.66676854421730        2.20121527106969       -0.86845481267204
C            3.57662638305572        3.58331692686330       -0.34946275090879
O            2.72805391021966        1.29064157098285       -0.55789955684009
N           -1.56503812191849       -0.56574829925174       -0.36956604676257
H           -3.10773786000614        3.40065500299153       -2.70974930593003
H           -3.81289693892131        4.35025084568792       -1.36461638480786
H           -4.69174215760161        2.93884500327923       -2.03363162326989
H            0.32378592043755       -1.03774009439847        2.28183520125131
H           -2.33422656657879       -2.98738532549806        0.28937912447697
H           -1.46999432620992       -3.05766345502854        1.84112976253999
H           -2.73757545480624       -1.84770668574774        1.58530276685653
H            1.34592277880083       -2.67922319247517        1.65656720864901
H            1.90435187471099       -3.46620757240934        0.17606824894073
H            0.36713868605005       -3.94892216684245        0.90046885092202
H            0.68941795868822       -3.12813229157900       -1.99189267173628
H           -0.88389357399287       -3.47335024356282       -1.26897060948090
H           -0.61784107596336       -1.93352253761417       -2.10721211368932
H            1.06515263587517       -0.08281808926271        0.03856226048422
H            3.68475381626248        3.58127400817691        0.73526031809898
H            4.36404118180552        4.19043023763142       -0.78980793764431
H            2.60397463916758        4.01032216068583       -0.59063102707265

          :  Hamiltonian                  GFN1-xTB          :
         :: total energy             -82.984468411822 Eh    ::
         :: gradient norm              0.000512380329 Eh/a0 ::
         :: HOMO-LUMO gap              1.772324705787 eV    ::
         :: SCC energy               -83.765607099664 Eh    ::
         :: -> Gsolv                  -0.058075159867 Eh    ::
         :: repulsion energy           0.808610193030 Eh    ::

    * Orbital Energies and Occupations

         #    Occupation            Energy/Eh            Energy/eV
      -------------------------------------------------------------
         1        2.0000           -0.8672172             -23.5982
       ...           ...                  ...                  ...
        55        2.0000           -0.5070487             -13.7975
        56        2.0000           -0.5062199             -13.7749
        57        2.0000           -0.5058497             -13.7649
        58        2.0000           -0.5028442             -13.6831
        59        2.0000           -0.4962536             -13.5037
        60        2.0000           -0.4821521             -13.1200
        61        2.0000           -0.4810758             -13.0907
        62        2.0000           -0.4696839             -12.7808
        63        2.0000           -0.4634915             -12.6122
        64        2.0000           -0.4618869             -12.5686
        65        2.0000           -0.4529803             -12.3262
        66        2.0000           -0.4498123             -12.2400
        67        2.0000           -0.4380560             -11.9201 (HOMO)
        68                         -0.3729243             -10.1478 (LUMO)
        69                         -0.3205967              -8.7239
        70                         -0.3121602              -8.4943
        71                         -0.2583853              -7.0310
        72                         -0.2503917              -6.8135
        73                         -0.2064972              -5.6191
        74                         -0.2004539              -5.4546
        75                         -0.1441879              -3.9236
        76                         -0.1436734              -3.9096
        77                         -0.1422195              -3.8700
        78                         -0.1373287              -3.7369
       ...                                ...                  ...
       134                          0.7678458              20.8941
      -------------------------------------------------------------
                  HL-Gap            0.0651317 Eh            1.7723 eV

Wiberg/Mayer (AO) data.
largest (>0.10) Wiberg bond orders for each atom

     #   Z sym  total        # sym  WBO       # sym  WBO       # sym  WBO
 ---------------------------------------------------------------------------
     1   6 C    3.859 --    27 H    0.985    26 H    0.979    28 H    0.978
                             2 O    0.884
     2   8 O    2.226 --     3 C    1.148     1 C    0.884     4 O    0.147
     3   6 C    3.854 --     4 O    1.684     2 O    1.148     5 C    0.944
     4   8 O    1.949 --     3 C    1.684     2 O    0.147
     5   6 C    3.953 --    25 N    1.800     6 C    0.989     3 C    0.944
     6   6 C    3.854 --     7 O    1.810     5 C    0.989     8 C    0.904
     7   8 O    2.015 --     6 C    1.810
     8   6 C    3.903 --     9 O    1.641    10 N    1.242     6 C    0.904
     9   8 O    1.934 --     8 C    1.641    10 N    0.183
    10   7 N    3.357 --     8 C    1.242    11 C    0.935    29 H    0.881
                             9 O    0.183
    11   6 C    3.913 --    25 N    0.995    12 C    0.951    13 C    0.937
                            10 N    0.935
    12   6 C    3.982 --    32 H    0.981    30 H    0.979    31 H    0.979
                            11 C    0.951
    13   6 C    3.928 --    15 C    0.997    14 C    0.995    11 C    0.937
                            16 N    0.927
    14   6 C    3.988 --    13 C    0.995    35 H    0.982    33 H    0.980
                            34 H    0.976
    15   6 C    3.988 --    13 C    0.997    38 H    0.982    37 H    0.982
                            36 H    0.977
    16   7 N    3.349 --    17 C    1.258    13 C    0.927    39 H    0.893
                            18 O    0.177
    17   6 C    3.917 --    18 O    1.585    16 N    1.258    19 C    0.991
    18   8 O    1.904 --    17 C    1.585    16 N    0.177
    19   6 C    3.872 --    20 N    1.624    24 O    1.046    17 C    0.991
    20   7 N    3.000 --    19 C    1.624    21 N    1.198
    21   7 N    2.982 --    22 C    1.612    20 N    1.198
    22   6 C    3.868 --    21 N    1.612    24 O    1.071    23 C    1.032
    23   6 C    3.986 --    22 C    1.032    41 H    0.982    42 H    0.966
                            40 H    0.960
    24   8 O    2.314 --    22 C    1.071    19 C    1.046
    25   7 N    3.052 --     5 C    1.800    11 C    0.995
    26   1 H    1.005 --     1 C    0.979
    27   1 H    1.008 --     1 C    0.985
    28   1 H    1.004 --     1 C    0.978
    29   1 H    0.927 --    10 N    0.881
    30   1 H    0.999 --    12 C    0.979
    31   1 H    0.999 --    12 C    0.979
    32   1 H    0.999 --    12 C    0.981
    33   1 H    0.999 --    14 C    0.980
    34   1 H    1.005 --    14 C    0.976
    35   1 H    1.000 --    14 C    0.982
    36   1 H    1.010 --    15 C    0.977
    37   1 H    1.001 --    15 C    0.982
    38   1 H    1.014 --    15 C    0.982
    39   1 H    0.947 --    16 N    0.893
    40   1 H    0.996 --    23 C    0.960
    41   1 H    0.998 --    23 C    0.982
    42   1 H    0.997 --    23 C    0.966
 ---------------------------------------------------------------------------

           -------------------------------------------------
          | TOTAL ENERGY              -82.984468411822 Eh   |
          | GRADIENT NORM               0.000512380329 Eh/α |
          | HOMO-LUMO GAP               1.772324705787 eV   |
           -------------------------------------------------

 * finished run on 2023/06/21 at 17:25:29.056
