   * xtb version 6.5.1 (579679a) compiled by 'ehlert@majestix' on 2022-07-11
          program call               : /lustre/hpc/kemi/ree/PhD/git/ReactivityQM/dep/xtb-6.5.1/bin/xtb --gfn 1 /lustre/hpc/kemi/ree/PhD/git/ReactivityQM/calculations/R02oxygendeprot/reac01prodN05/conf15/R02oxygendeprot_reac01prodN05_conf15_gfn1.xyz --opt --vfukui --chrg 0 --uhf 0 --alpb DMSO

   ID    Z sym.   atoms
    1    6 C      1, 3, 5, 6, 8, 11-14, 16, 18, 21, 22, 25
    2    8 O      2, 4, 7, 9, 17, 23
    3    7 N      10, 15, 19, 20, 24
    4    1 H      26-42

      * Solvation model:               ALPB
        Solvent                        DMSO
        Solvent mass                       7.8130E+01 g/mol
          :  Hamiltonian                  GFN1-xTB          :
 * total energy  :   -82.9716015 Eh     change       -0.2779643E-10 Eh
 * total energy  :   -82.9841904 Eh     change       -0.1258896E-01 Eh
 * total energy  :   -82.9894411 Eh     change       -0.5250694E-02 Eh
 * total energy  :   -82.9906555 Eh     change       -0.1214421E-02 Eh
 * total energy  :   -82.9913373 Eh     change       -0.6818128E-03 Eh
 * total energy  :   -82.9916169 Eh     change       -0.2795180E-03 Eh
 * total energy  :   -82.9917700 Eh     change       -0.1531009E-03 Eh
 * total energy  :   -82.9918886 Eh     change       -0.1186242E-03 Eh
 * total energy  :   -82.9920155 Eh     change       -0.1269419E-03 Eh
 * total energy  :   -82.9921752 Eh     change       -0.1596471E-03 Eh
 * total energy  :   -82.9927445 Eh     change       -0.2180299E-04 Eh
 * total energy  :   -82.9927530 Eh     change       -0.8495790E-05 Eh
 * total energy  :   -82.9927705 Eh     change       -0.1745910E-04 Eh
 * total energy  :   -82.9927786 Eh     change       -0.8062445E-05 Eh
 * total energy  :   -82.9927917 Eh     change       -0.1312517E-04 Eh
 * total energy  :   -82.9928010 Eh     change       -0.9266593E-05 Eh
 * total energy  :   -82.9928091 Eh     change       -0.8152778E-05 Eh
 * total energy  :   -82.9928146 Eh     change       -0.5458781E-05 Eh
 * total energy  :   -82.9928187 Eh     change       -0.4090885E-05 Eh
   *** GEOMETRY OPTIMIZATION CONVERGED AFTER 31 ITERATIONS ***

 final structure:
================
42
 xtb: 6.5.1 (579679a)
C           -5.35073973881877        1.24333475068270        2.11573627300496
O           -4.75455582656938        0.70950670743474        0.93357945388032
C           -3.42731760649434        0.55810947120930        0.95892792171368
O           -2.77297100587727        0.85599790089796        1.94573577726072
C           -2.87442485391534        0.05858945074442       -0.30816744207152
C           -3.60076244008313        0.19832389637091       -1.52447793486718
O           -4.76785323301641        0.57477509277823       -1.63360860294045
C           -2.83160190690653       -0.11647335279797       -2.78242522303411
O           -3.28295648542731       -0.08729703949723       -3.90802753459880
N           -1.49145927303012       -0.42167931609525       -2.59429583077969
C           -0.85625613456826       -0.59288069934967       -1.41277845371315
C            0.60937122696567       -1.01062480703960       -1.49304206671036
C            0.71170926046598       -2.54081102856969       -1.38725202038248
C            1.25493400983484       -0.55143902733289       -2.81106354877414
N            1.32118293008384       -0.32203359062622       -0.41362484335003
C            2.60063547534779       -0.61707231833289       -0.05506198534553
O            3.22516338248593       -1.60222946499521       -0.38968028931658
C            3.12887742835007        0.43453282504185        0.84691737846855
N            2.50645919023976        1.51987769396858        1.19907356389562
N            3.35215386544230        2.21117021053907        2.01048471530646
C            4.43926987453458        1.50452224811818        2.10076925483696
C            5.66578178919092        1.82436277901397        2.86292772947993
O            4.35804336433941        0.37209139539112        1.38741327211967
N           -1.54760519477964       -0.41296902479784       -0.30620882143342
C           -0.98637121089110       -0.81382443844563        0.99251402439267
H           -5.14507171067948        0.59300891158967        2.96947114171173
H           -4.95729833183312        2.24184062091066        2.32296789043140
H           -6.42229351376533        1.29169252894725        1.93018132766239
H           -0.98370857052623       -0.58881583326111       -3.44915456768149
H            0.52437405841176       -2.88873875726124       -0.37427669634729
H            1.70549720364427       -2.86643666037093       -1.68680491655157
H           -0.02108343788951       -2.98848887947218       -2.05683185498264
H            0.88437396649417       -1.12943236513182       -3.65514320430433
H            1.07409337238756        0.50813834686560       -2.98071842528288
H            2.32873392308028       -0.71642006477027       -2.73770082626567
H            1.02040707708190        0.62415431873873       -0.22102044903798
H            5.53576189171236        2.76739017723647        3.38819505979574
H            5.87546944189745        1.03084729691655        3.57999006011092
H            6.51566003880757        1.89802992659396        2.18411462393451
H           -0.58527851931417        0.05634540568764        1.50832465182235
H           -1.77662479154912       -1.26464164391883        1.58761694092705
H           -0.20172198486293       -1.54433464361049        0.84297247701297

          :  Hamiltonian                  GFN1-xTB          :
         :: total energy             -82.992818660458 Eh    ::
         :: gradient norm              0.000420865189 Eh/a0 ::
         :: HOMO-LUMO gap              2.512572539472 eV    ::
         :: SCC energy               -83.773752115843 Eh    ::
         :: -> Gsolv                  -0.067278362898 Eh    ::
         :: repulsion energy           0.807893092363 Eh    ::

    * Orbital Energies and Occupations

         #    Occupation            Energy/Eh            Energy/eV
      -------------------------------------------------------------
         1        2.0000           -0.8682416             -23.6261
       ...           ...                  ...                  ...
        55        2.0000           -0.5108843             -13.9019
        56        2.0000           -0.5107357             -13.8978
        57        2.0000           -0.4961211             -13.5001
        58        2.0000           -0.4928509             -13.4112
        59        2.0000           -0.4900735             -13.3356
        60        2.0000           -0.4877270             -13.2717
        61        2.0000           -0.4744597             -12.9107
        62        2.0000           -0.4735687             -12.8865
        63        2.0000           -0.4671493             -12.7118
        64        2.0000           -0.4579753             -12.4621
        65        2.0000           -0.4547050             -12.3732
        66        2.0000           -0.4273094             -11.6277
        67        2.0000           -0.4166200             -11.3368 (HOMO)
        68                         -0.3242846              -8.8242 (LUMO)
        69                         -0.3190355              -8.6814
        70                         -0.3056830              -8.3181
        71                         -0.2608500              -7.0981
        72                         -0.2397094              -6.5228
        73                         -0.2067587              -5.6262
        74                         -0.1681127              -4.5746
        75                         -0.1487565              -4.0479
        76                         -0.1435547              -3.9063
        77                         -0.1399813              -3.8091
        78                         -0.1343774              -3.6566
       ...                                ...                  ...
       134                          0.7509124              20.4334
      -------------------------------------------------------------
                  HL-Gap            0.0923353 Eh            2.5126 eV

Wiberg/Mayer (AO) data.
largest (>0.10) Wiberg bond orders for each atom

     #   Z sym  total        # sym  WBO       # sym  WBO       # sym  WBO
 ---------------------------------------------------------------------------
     1   6 C    3.877 --    28 H    0.986    26 H    0.980    27 H    0.980
                             2 O    0.903
     2   8 O    2.201 --     3 C    1.104     1 C    0.903     4 O    0.121
     3   6 C    3.865 --     4 O    1.583     2 O    1.104     5 C    1.081
     4   8 O    1.895 --     3 C    1.583     2 O    0.121
     5   6 C    3.850 --     6 C    1.257     3 C    1.081    24 N    1.056
                             7 O    0.139
     6   6 C    3.944 --     7 O    1.574     5 C    1.257     8 C    0.954
     7   8 O    1.884 --     6 C    1.574     5 C    0.139
     8   6 C    3.867 --     9 O    1.661    10 N    1.089     6 C    0.954
     9   8 O    1.932 --     8 C    1.661    10 N    0.117
    10   7 N    3.454 --    11 C    1.207     8 C    1.089    29 H    0.877
                             9 O    0.117
    11   6 C    3.914 --    24 N    1.434    10 N    1.207    12 C    0.977
    12   6 C    3.934 --    14 C    0.986    11 C    0.977    13 C    0.977
                            15 N    0.933
    13   6 C    3.981 --    32 H    0.984    12 C    0.977    30 H    0.976
                            31 H    0.975
    14   6 C    3.986 --    12 C    0.986    34 H    0.984    33 H    0.978
                            35 H    0.977
    15   7 N    3.311 --    16 C    1.209    12 C    0.933    36 H    0.894
                            17 O    0.167
    16   6 C    3.912 --    17 O    1.621    15 N    1.209    18 C    0.993
    17   8 O    1.932 --    16 C    1.621    15 N    0.167
    18   6 C    3.878 --    19 N    1.604    23 O    1.066    16 C    0.993
    19   7 N    3.022 --    18 C    1.604    20 N    1.205
    20   7 N    2.981 --    21 C    1.599    19 N    1.205
    21   6 C    3.869 --    20 N    1.599    23 O    1.084    22 C    1.032
    22   6 C    3.985 --    21 C    1.032    37 H    0.982    38 H    0.963
                            39 H    0.962
    23   8 O    2.334 --    21 C    1.084    18 C    1.066
    24   7 N    3.589 --    11 C    1.434     5 C    1.056    25 C    0.917
    25   6 C    3.910 --    42 H    0.976    41 H    0.975    40 H    0.970
                            24 N    0.917
    26   1 H    1.009 --     1 C    0.980
    27   1 H    1.009 --     1 C    0.980
    28   1 H    1.012 --     1 C    0.986
    29   1 H    0.932 --    10 N    0.877
    30   1 H    1.001 --    13 C    0.976
    31   1 H    1.009 --    13 C    0.975
    32   1 H    1.000 --    13 C    0.984
    33   1 H    0.996 --    14 C    0.978
    34   1 H    0.997 --    14 C    0.984
    35   1 H    0.999 --    14 C    0.977
    36   1 H    0.953 --    15 N    0.894
    37   1 H    0.998 --    22 C    0.982
    38   1 H    0.996 --    22 C    0.963
    39   1 H    0.996 --    22 C    0.962
    40   1 H    1.015 --    25 C    0.970
    41   1 H    1.004 --    25 C    0.975
    42   1 H    1.010 --    25 C    0.976
 ---------------------------------------------------------------------------

           -------------------------------------------------
          | TOTAL ENERGY              -82.992818660458 Eh   |
          | GRADIENT NORM               0.000420865189 Eh/α |
          | HOMO-LUMO GAP               2.512572539472 eV   |
           -------------------------------------------------

 * finished run on 2023/06/21 at 17:21:08.288
