   * xtb version 6.5.1 (579679a) compiled by 'ehlert@majestix' on 2022-07-11
          program call               : /lustre/hpc/kemi/ree/PhD/git/ReactivityQM/dep/xtb-6.5.1/bin/xtb --gfn 1 /lustre/hpc/kemi/ree/PhD/git/ReactivityQM/calculations/R02/reac01prodE13/conf19/R02_reac01prodE13_conf19_gfn1.xyz --opt --vfukui --chrg -1 --uhf 0 --alpb DMSO

   ID    Z sym.   atoms
    1    6 C      1, 3, 5, 6, 8, 10, 12-15, 17, 19, 22, 23
    2    8 O      2, 4, 7, 9, 18, 24
    3    7 N      11, 16, 20, 21, 25
    4    1 H      26-43

      * Solvation model:               ALPB
        Solvent                        DMSO
        Solvent mass                       7.8130E+01 g/mol
          :  Hamiltonian                  GFN1-xTB          :
 * total energy  :   -83.8168694 Eh     change       -0.2027889E-09 Eh
 * total energy  :   -83.8338373 Eh     change       -0.1696787E-01 Eh
 * total energy  :   -83.8406629 Eh     change       -0.6825568E-02 Eh
 * total energy  :   -83.8420885 Eh     change       -0.1425581E-02 Eh
 * total energy  :   -83.8427629 Eh     change       -0.6744263E-03 Eh
 * total energy  :   -83.8430019 Eh     change       -0.2390065E-03 Eh
 * total energy  :   -83.8431723 Eh     change       -0.1704112E-03 Eh
 * total energy  :   -83.8433468 Eh     change       -0.1745074E-03 Eh
 * total energy  :   -83.8435577 Eh     change       -0.2108875E-03 Eh
 * total energy  :   -83.8438191 Eh     change       -0.2613887E-03 Eh
 * total energy  :   -83.8467804 Eh     change       -0.1427489E-04 Eh
 * total energy  :   -83.8467861 Eh     change       -0.5687038E-05 Eh
 * total energy  :   -83.8467941 Eh     change       -0.8044135E-05 Eh
 * total energy  :   -83.8468033 Eh     change       -0.9191589E-05 Eh
 * total energy  :   -83.8468110 Eh     change       -0.7666344E-05 Eh
 * total energy  :   -83.8468195 Eh     change       -0.8498152E-05 Eh
 * total energy  :   -83.8468283 Eh     change       -0.8791522E-05 Eh
 * total energy  :   -83.8468350 Eh     change       -0.6774016E-05 Eh
 * total energy  :   -83.8468398 Eh     change       -0.4774677E-05 Eh
   *** GEOMETRY OPTIMIZATION CONVERGED AFTER 55 ITERATIONS ***

 final structure:
================
43
 xtb: 6.5.1 (579679a)
C           -5.51870897687767        3.27122697621465        0.79347939105440
O           -4.65903524054280        2.30308167694056        0.21714592780340
C           -3.48532887908524        2.04066452399765        0.96364570390468
O           -3.29614241574366        2.68884176145397        2.01053587734222
C           -2.65274165384693        1.06936871141392        0.40348997356245
C           -2.88367774140927        0.26791825042571       -0.79783079720512
O           -4.09474264074140        0.29599557588703       -1.45649066373422
C           -1.93327976855326       -0.58299014923501       -1.22538516580535
O           -2.00305790748896       -1.45918478758416       -2.29639244881094
C           -3.15255903703401       -2.28990466607953       -2.38203756072807
N           -0.63527308712839       -0.61149704781449       -0.60851883990289
C           -0.60595686265450       -0.02038833045876        0.68381009834366
C            0.63480787905294       -0.33166979854656        1.50042686189705
C            0.55588720055951       -1.76545877229294        2.04964131907813
C            0.77436502826236        0.68005445999764        2.64273424640981
N            1.78275597986528       -0.21979296770950        0.58923571768516
C            3.06096952690806       -0.44971672797971        0.94657602831732
O            3.45334764822980       -0.69552265912006        2.08159368172033
C            3.96580880641603       -0.35157504760906       -0.22178004724232
N            3.61558754311497       -0.06912263246665       -1.44612921903640
N            4.75560020573948       -0.09390307288792       -2.19692637306575
C            5.72534714577976       -0.38911586939966       -1.38870366049485
C            7.16024270705690       -0.53942274085484       -1.72006970091776
O            5.29769321289028       -0.56254170750895       -0.12700268568636
N           -1.48761697130513        0.77599834995383        1.12923771329472
H           -5.87044456859794        2.94940173184574        1.78137686186718
H           -6.37364559820276        3.38548090270424        0.12641570032848
H           -5.01098867060896        4.23771136072162        0.90077949406139
H           -4.68320468483241        0.94729736883754       -1.03313917939987
H           -3.41977435116300       -2.70337950487593       -1.40243720818400
H           -4.01353973484182       -1.74164650287735       -2.78314770849601
H           -2.90323036008295       -3.10841993781720       -3.06085650370048
H           -0.23930045903574       -1.54303096342975       -0.64048651316304
H            0.51390071551517       -2.47981700388225        1.22892851405083
H            1.42736419887025       -1.98798144313395        2.66340750542073
H           -0.34235071740482       -1.87157039555257        2.65641036885166
H            0.89431040687348        1.68411107126912        2.23579493637579
H           -0.12816384201532        0.65533433766685        3.25268165407753
H            1.63358186093309        0.44038530646962        3.26598468200201
H            1.57826929018184       -0.09222259991336       -0.39374750616923
H            7.74955974105053        0.19895920012962       -1.17646280590588
H            7.30403216958808       -0.40218269951422       -2.78880661108737
H            7.50933290231245       -1.52977153738719       -1.42909705871644

          :  Hamiltonian                  GFN1-xTB          :
         :: total energy             -83.846839818634 Eh    ::
         :: gradient norm              0.000571166969 Eh/a0 ::
         :: HOMO-LUMO gap              0.153983208191 eV    ::
         :: SCC energy               -84.604421190297 Eh    ::
         :: -> Gsolv                  -0.112150790289 Eh    ::
         :: repulsion energy           0.782962467520 Eh    ::

    * Orbital Energies and Occupations

         #    Occupation            Energy/Eh            Energy/eV
      -------------------------------------------------------------
         1        2.0000           -0.8503192             -23.1384
       ...           ...                  ...                  ...
        56        2.0000           -0.4681934             -12.7402
        57        2.0000           -0.4631913             -12.6041
        58        2.0000           -0.4497833             -12.2392
        59        2.0000           -0.4473691             -12.1735
        60        2.0000           -0.4459989             -12.1362
        61        2.0000           -0.4402764             -11.9805
        62        2.0000           -0.4368582             -11.8875
        63        2.0000           -0.4274505             -11.6315
        64        2.0000           -0.4205615             -11.4441
        65        2.0000           -0.4031046             -10.9690
        66        2.0000           -0.3895014             -10.5989
        67        2.0000           -0.3818578             -10.3909
        68        1.9032           -0.3021186              -8.2211 (HOMO)
        69        0.0968           -0.2964598              -8.0671 (LUMO)
        70                         -0.2467079              -6.7133
        71                         -0.2234730              -6.0810
        72                         -0.1897667              -5.1638
        73                         -0.1824532              -4.9648
        74                         -0.1388766              -3.7790
        75                         -0.1170793              -3.1859
        76                         -0.1123070              -3.0560
        77                         -0.1102402              -2.9998
        78                         -0.1045043              -2.8437
        79                         -0.0969525              -2.6382
       ...                                ...                  ...
       136                          0.7220527              19.6481
      -------------------------------------------------------------
                  HL-Gap            0.0056588 Eh            0.1540 eV

Wiberg/Mayer (AO) data.
largest (>0.10) Wiberg bond orders for each atom

     #   Z sym  total        # sym  WBO       # sym  WBO       # sym  WBO
 ---------------------------------------------------------------------------
     1   6 C    3.910 --    27 H    0.987    26 H    0.981    28 H    0.981
                             2 O    0.937
     2   8 O    2.084 --     1 C    0.937     3 C    0.915
     3   6 C    3.854 --     4 O    1.453     5 C    1.341     2 O    0.915
     4   8 O    1.754 --     3 C    1.453     5 C    0.117
     5   6 C    3.808 --     3 C    1.341     6 C    1.082    25 N    1.079
                             4 O    0.117
     6   6 C    3.889 --     8 C    1.639     5 C    1.082     7 O    1.005
     7   8 O    1.982 --     6 C    1.005    29 H    0.819
     8   6 C    3.806 --     6 C    1.639    11 N    0.969     9 O    0.964
     9   8 O    2.044 --     8 C    0.964    10 C    0.930
    10   6 C    3.907 --    32 H    0.985    30 H    0.983    31 H    0.981
                             9 O    0.930
    11   7 N    3.158 --    12 C    1.014     8 C    0.969    33 H    0.919
    12   6 C    3.931 --    25 N    1.731    11 N    1.014    13 C    0.976
    13   6 C    3.929 --    15 C    0.994    14 C    0.981    12 C    0.976
                            16 N    0.913
    14   6 C    3.990 --    36 H    0.986    34 H    0.984    35 H    0.982
                            13 C    0.981
    15   6 C    3.994 --    13 C    0.994    37 H    0.986    38 H    0.984
                            39 H    0.984
    16   7 N    3.335 --    17 C    1.259    13 C    0.913    40 H    0.895
                            18 O    0.174
    17   6 C    3.891 --    18 O    1.554    16 N    1.259    19 C    1.002
    18   8 O    1.860 --    17 C    1.554    16 N    0.174
    19   6 C    3.831 --    20 N    1.580    24 O    1.048    17 C    1.002
    20   7 N    2.963 --    19 C    1.580    21 N    1.191
    21   7 N    2.979 --    22 C    1.615    20 N    1.191
    22   6 C    3.863 --    21 N    1.615    24 O    1.077    23 C    1.029
    23   6 C    3.989 --    22 C    1.029    42 H    0.983    43 H    0.966
                            41 H    0.965
    24   8 O    2.302 --    22 C    1.077    19 C    1.048
    25   7 N    3.041 --    12 C    1.731     5 C    1.079
    26   1 H    1.019 --     1 C    0.981
    27   1 H    1.017 --     1 C    0.987
    28   1 H    1.020 --     1 C    0.981
    29   1 H    0.885 --     7 O    0.819
    30   1 H    1.011 --    10 C    0.983
    31   1 H    1.026 --    10 C    0.981
    32   1 H    1.018 --    10 C    0.985
    33   1 H    0.964 --    11 N    0.919
    34   1 H    1.005 --    14 C    0.984
    35   1 H    1.010 --    14 C    0.982
    36   1 H    1.005 --    14 C    0.986
    37   1 H    1.011 --    15 C    0.986
    38   1 H    1.018 --    15 C    0.984
    39   1 H    1.014 --    15 C    0.984
    40   1 H    0.970 --    16 N    0.895
    41   1 H    0.998 --    23 C    0.965
    42   1 H    1.000 --    23 C    0.983
    43   1 H    0.998 --    23 C    0.966
 ---------------------------------------------------------------------------

           -------------------------------------------------
          | TOTAL ENERGY              -83.846839818634 Eh   |
          | GRADIENT NORM               0.000571166969 Eh/α |
          | HOMO-LUMO GAP               0.153983208191 eV   |
           -------------------------------------------------

 * finished run on 2023/06/20 at 15:16:00.772
