   * xtb version 6.5.1 (579679a) compiled by 'ehlert@majestix' on 2022-07-11
          program call               : /lustre/hpc/kemi/ree/PhD/git/ReactivityQM/dep/xtb-6.5.1/bin/xtb --gfn 1 /lustre/hpc/kemi/ree/PhD/git/ReactivityQM/calculations/R02oxygendeprot/reac01prodE08/conf18/R02oxygendeprot_reac01prodE08_conf18_gfn1.xyz --opt --vfukui --chrg -2 --uhf 0 --alpb DMSO

   ID    Z sym.   atoms
    1    6 C      1, 3, 5, 7-10, 12, 14, 15, 18, 19, 22, 24
    2    8 O      2, 4, 13, 20, 23, 25
    3    7 N      6, 11, 16, 17, 21
    4    1 H      26-42

      * Solvation model:               ALPB
        Solvent                        DMSO
        Solvent mass                       7.8130E+01 g/mol
          :  Hamiltonian                  GFN1-xTB          :
 * total energy  :   -83.6224664 Eh     change       -0.1214602E-09 Eh
 * total energy  :   -83.6368667 Eh     change       -0.1440037E-01 Eh
 * total energy  :   -83.6418954 Eh     change       -0.5028667E-02 Eh
 * total energy  :   -83.6427175 Eh     change       -0.8220585E-03 Eh
 * total energy  :   -83.6432839 Eh     change       -0.5664497E-03 Eh
 * total energy  :   -83.6434694 Eh     change       -0.1854636E-03 Eh
 * total energy  :   -83.6435935 Eh     change       -0.1241303E-03 Eh
 * total energy  :   -83.6436682 Eh     change       -0.7472260E-04 Eh
 * total energy  :   -83.6437277 Eh     change       -0.5942196E-04 Eh
 * total energy  :   -83.6437824 Eh     change       -0.5470424E-04 Eh
 * total energy  :   -83.6438581 Eh     change       -0.3296803E-04 Eh
 * total energy  :   -83.6438969 Eh     change       -0.3875426E-04 Eh
 * total energy  :   -83.6439231 Eh     change       -0.2620489E-04 Eh
 * total energy  :   -83.6439404 Eh     change       -0.1726762E-04 Eh
 * total energy  :   -83.6439507 Eh     change       -0.1037316E-04 Eh
 * total energy  :   -83.6439580 Eh     change       -0.7286442E-05 Eh
 * total energy  :   -83.6439687 Eh     change       -0.1069406E-04 Eh
 * total energy  :   -83.6439754 Eh     change       -0.6633313E-05 Eh
 * total energy  :   -83.6439800 Eh     change       -0.4607732E-05 Eh
   *** GEOMETRY OPTIMIZATION CONVERGED AFTER 20 ITERATIONS ***

 final structure:
================
42
 xtb: 6.5.1 (579679a)
C            4.90753425317979        3.27146695839946       -0.52521215555705
O            4.47198160174252        2.14827936848251        0.22349271173356
C            3.31020545520747        1.57251919754195       -0.19015789213083
O            2.69283215026220        2.04141158510026       -1.13976935330384
C            2.91587795843642        0.39423154362243        0.56571731405661
N            1.72937284123916       -0.16165352752613        0.12042184194609
C            1.26839820755006       -1.23577670051827        0.64643637605220
C           -0.00635675300342       -1.85358981772313        0.09359958321262
C           -0.71626088741705       -2.75743573434334        1.10998288724314
C            0.36416512443818       -2.66266248450139       -1.16357760464547
N           -0.88612266354933       -0.75447763849993       -0.26988448885436
C           -2.08479507623182       -0.85529685261018       -0.84887417718687
O           -2.60653991071877       -1.90539627286623       -1.22611389480341
C           -2.75835760552524        0.55918347407559       -1.00745915641701
C           -3.06486589391522        0.76179443401641       -2.50429566793831
N           -1.88069320687346        1.58738280621570       -0.47284479489142
N           -2.55790414721723        2.13431910531700        0.59057990920310
C           -3.70677791748507        1.58476948944619        0.71258710154696
C           -4.75787936127617        1.87423539806232        1.72782458930138
O           -3.96367645512343        0.59065312881253       -0.24566485833378
N            1.93861130066228       -1.88374693803812        1.66607682355946
C            3.11179311526589       -1.43638217406691        2.21497995833122
O            3.64047620916924       -2.07879416953949        3.12260470361888
C            3.67242727085057       -0.16256442673663        1.62969416465812
O            4.73437883844922        0.29142437722004        2.10047561855216
H            4.18408978385274        4.09092777319255       -0.45987922312774
H            5.04486056189163        3.00770119562650       -1.57892026825559
H            5.85913473955254        3.58882967303133       -0.10095135589912
H           -1.67365977035675       -3.07800788552977        0.70114122110209
H           -0.89096153980958       -2.22211133688851        2.04221986119535
H           -0.12226153711122       -3.64599929444200        1.31327143536514
H            1.06193382212280       -3.45387921376262       -0.89535058091973
H           -0.52733370566743       -3.11139689668867       -1.59890700545393
H            0.83398713084644       -2.00964059932441       -1.89889346111200
H           -0.63100469368026        0.22023551625475       -0.02529210440459
H           -3.61020701954573        1.69431791753161       -2.63558914521405
H           -3.66787666691896       -0.06406761895647       -2.87984908956260
H           -2.13107972202592        0.81280572560561       -3.06178115037609
H           -4.99421742276529        0.98379065020589        2.31545458739025
H           -4.40188158234705        2.65432782447458        2.39921726243476
H           -5.68218065000967        2.21280472937728        1.25359107201510
H            1.58083582383957       -2.74452928903812        2.04303040586049

          :  Hamiltonian                  GFN1-xTB          :
         :: total energy             -83.643979964033 Eh    ::
         :: gradient norm              0.000600490920 Eh/a0 ::
         :: HOMO-LUMO gap              0.280569418634 eV    ::
         :: SCC energy               -84.382498090696 Eh    ::
         :: -> Gsolv                  -0.270597787273 Eh    ::
         :: repulsion energy           0.764771801155 Eh    ::

    * Orbital Energies and Occupations

         #    Occupation            Energy/Eh            Energy/eV
      -------------------------------------------------------------
         1        2.0000           -0.7938467             -21.6017
       ...           ...                  ...                  ...
        56        2.0000           -0.4493911             -12.2286
        57        2.0000           -0.4446897             -12.1006
        58        2.0000           -0.4324068             -11.7664
        59        2.0000           -0.4311792             -11.7330
        60        2.0000           -0.4107081             -11.1759
        61        2.0000           -0.4023382             -10.9482
        62        2.0000           -0.3996624             -10.8754
        63        2.0000           -0.3971230             -10.8063
        64        2.0000           -0.3757717             -10.2253
        65        2.0000           -0.3728396             -10.1455
        66        2.0000           -0.3591888              -9.7740
        67        2.0000           -0.3489061              -9.4942
        68        1.9912           -0.2754398              -7.4951 (HOMO)
        69        0.0088           -0.2651291              -7.2145 (LUMO)
        70                         -0.2307096              -6.2779
        71                         -0.2049411              -5.5767
        72                         -0.1916873              -5.2161
        73                         -0.1623464              -4.4177
        74                         -0.1204608              -3.2779
        75                         -0.1173574              -3.1935
        76                         -0.1075553              -2.9267
        77                         -0.1064595              -2.8969
        78                         -0.1020152              -2.7760
        79                         -0.0897439              -2.4421
       ...                                ...                  ...
       134                          0.7545801              20.5332
      -------------------------------------------------------------
                  HL-Gap            0.0103107 Eh            0.2806 eV

Wiberg/Mayer (AO) data.
largest (>0.10) Wiberg bond orders for each atom

     #   Z sym  total        # sym  WBO       # sym  WBO       # sym  WBO
 ---------------------------------------------------------------------------
     1   6 C    3.902 --    28 H    0.987    26 H    0.980    27 H    0.980
                             2 O    0.929
     2   8 O    2.155 --     3 C    1.039     1 C    0.929     4 O    0.108
     3   6 C    3.847 --     4 O    1.574     5 C    1.118     2 O    1.039
     4   8 O    1.850 --     3 C    1.574     2 O    0.108
     5   6 C    3.917 --    24 C    1.274     6 N    1.152     3 C    1.118
                            25 O    0.130
     6   7 N    3.027 --     7 C    1.634     5 C    1.152
     7   6 C    3.929 --     6 N    1.634    21 N    1.092     8 C    0.976
     8   6 C    3.954 --     9 C    0.992    10 C    0.977     7 C    0.976
                            11 N    0.940
     9   6 C    3.994 --     8 C    0.992    30 H    0.986    31 H    0.983
                            29 H    0.979
    10   6 C    3.993 --    32 H    0.988    34 H    0.986    33 H    0.981
                             8 C    0.977
    11   7 N    3.360 --    12 C    1.309     8 C    0.940    35 H    0.849
                            13 O    0.167
    12   6 C    3.865 --    13 O    1.561    11 N    1.309    14 C    0.883
    13   8 O    1.860 --    12 C    1.561    11 N    0.167
    14   6 C    3.897 --    16 N    1.021    15 C    0.968    20 O    0.918
                            12 C    0.883
    15   6 C    3.995 --    38 H    0.988    37 H    0.987    36 H    0.986
                            14 C    0.968
    16   7 N    2.644 --    17 N    1.163    14 C    1.021    18 C    0.203
    17   7 N    3.005 --    18 C    1.680    16 N    1.163
    18   6 C    3.866 --    17 N    1.680    19 C    1.015    20 O    0.935
                            16 N    0.203
    19   6 C    3.996 --    18 C    1.015    40 H    0.987    39 H    0.977
                            41 H    0.977
    20   8 O    2.059 --    18 C    0.935    14 C    0.918
    21   7 N    3.423 --    22 C    1.163     7 C    1.092    42 H    0.897
                            23 O    0.134
    22   6 C    3.876 --    23 O    1.566    21 N    1.163    24 C    0.974
    23   8 O    1.847 --    22 C    1.566    21 N    0.134
    24   6 C    3.942 --    25 O    1.509     5 C    1.274    22 C    0.974
    25   8 O    1.814 --    24 C    1.509     5 C    0.130
    26   1 H    1.015 --     1 C    0.980
    27   1 H    1.015 --     1 C    0.980
    28   1 H    1.016 --     1 C    0.987
    29   1 H    1.013 --     9 C    0.979
    30   1 H    1.004 --     9 C    0.986
    31   1 H    1.003 --     9 C    0.983
    32   1 H    1.005 --    10 C    0.988
    33   1 H    1.016 --    10 C    0.981
    34   1 H    1.010 --    10 C    0.986
    35   1 H    1.001 --    11 N    0.849
    36   1 H    1.020 --    15 C    0.986
    37   1 H    1.013 --    15 C    0.987
    38   1 H    1.015 --    15 C    0.988
    39   1 H    1.010 --    19 C    0.977
    40   1 H    1.010 --    19 C    0.987
    41   1 H    1.010 --    19 C    0.977
    42   1 H    0.951 --    21 N    0.897
 ---------------------------------------------------------------------------

           -------------------------------------------------
          | TOTAL ENERGY              -83.643979964033 Eh   |
          | GRADIENT NORM               0.000600490920 Eh/α |
          | HOMO-LUMO GAP               0.280569418634 eV   |
           -------------------------------------------------

 * finished run on 2023/06/21 at 17:10:15.189
