   * xtb version 6.5.1 (579679a) compiled by 'ehlert@majestix' on 2022-07-11
          program call               : /lustre/hpc/kemi/ree/PhD/git/ReactivityQM/dep/xtb-6.5.1/bin/xtb --gfn 1 /lustre/hpc/kemi/ree/PhD/git/ReactivityQM/calculations/R02deprot/reac01prodN02/conf15/R02deprot_reac01prodN02_conf15_gfn1.xyz --opt --vfukui --chrg 0 --uhf 0 --alpb DMSO

   ID    Z sym.   atoms
    1    6 C      1, 3, 5, 7-10, 12, 14, 15, 18, 19, 22, 24
    2    8 O      2, 4, 13, 20, 23, 25
    3    7 N      6, 11, 16, 17, 21
    4    1 H      26-42

      * Solvation model:               ALPB
        Solvent                        DMSO
        Solvent mass                       7.8130E+01 g/mol
          :  Hamiltonian                  GFN1-xTB          :
 * total energy  :   -82.9382718 Eh     change       -0.1546141E-10 Eh
 * total energy  :   -82.9577699 Eh     change       -0.1949811E-01 Eh
 * total energy  :   -82.9654654 Eh     change       -0.7695514E-02 Eh
 * total energy  :   -82.9668629 Eh     change       -0.1397467E-02 Eh
 * total energy  :   -82.9678447 Eh     change       -0.9818356E-03 Eh
 * total energy  :   -82.9682499 Eh     change       -0.4052364E-03 Eh
 * total energy  :   -82.9686285 Eh     change       -0.3785291E-03 Eh
 * total energy  :   -82.9689651 Eh     change       -0.3365857E-03 Eh
 * total energy  :   -82.9692688 Eh     change       -0.3037238E-03 Eh
 * total energy  :   -82.9695921 Eh     change       -0.3233221E-03 Eh
 * total energy  :   -82.9726413 Eh     change       -0.1127786E-04 Eh
 * total energy  :   -82.9726516 Eh     change       -0.1027994E-04 Eh
 * total energy  :   -82.9726635 Eh     change       -0.1190809E-04 Eh
 * total energy  :   -82.9726759 Eh     change       -0.1236223E-04 Eh
 * total energy  :   -82.9726842 Eh     change       -0.8375257E-05 Eh
 * total energy  :   -82.9726895 Eh     change       -0.5273991E-05 Eh
 * total energy  :   -82.9726960 Eh     change       -0.6468976E-05 Eh
 * total energy  :   -82.9727012 Eh     change       -0.5205571E-05 Eh
 * total energy  :   -82.9727041 Eh     change       -0.2952272E-05 Eh
   *** GEOMETRY OPTIMIZATION CONVERGED AFTER 58 ITERATIONS ***

 final structure:
================
42
 xtb: 6.5.1 (579679a)
C            3.80637255354014        3.67200888603074        1.53694769201638
O            3.78006259683049        2.28114717719924        1.22031544465771
C            2.59439006443284        1.78148999265131        0.84677387757919
O            1.59249818786498        2.46754731969988        0.78106459783996
C            2.62659503917585        0.33745585745866        0.52629283422106
N            1.40631757772170       -0.17555616133119        0.15725247857920
C            1.34752722116712       -1.44867570836993       -0.15628338045889
C           -0.02427299794327       -1.97332631135867       -0.56794506760042
C            0.00422953239890       -2.40287587441954       -2.03801898609983
C           -0.44037065512190       -3.12760598096328        0.34732031261601
N           -0.93049336151764       -0.83202099795045       -0.39567816195395
C           -2.20802100238014       -0.77764571374398       -0.59883791572822
O           -2.83521581106112       -1.84592527855367       -1.01784611814756
C           -4.24909764713274       -1.87421799464260       -1.25199850357623
C           -2.87976550412093        0.48110895067836       -0.34404155664262
N           -4.13593171858474        0.80205834063824       -0.48696460017612
N           -4.25482833668678        2.09369899045317       -0.11599296172362
C           -3.06533212306508        2.50011435560019        0.23638208126257
C           -2.67645564762603        3.83552975602162        0.72931405814432
O           -2.15861427428243        1.52467965494523        0.11194593104423
N            2.32969285748044       -2.33904299437398       -0.16586225234994
C            3.56981742425643       -1.91478270243492        0.19382700192373
O            4.57497432448171       -2.64349481786030        0.23349925327905
C            3.71167636531595       -0.49599833324887        0.55468681305260
O            4.96157433607034       -0.12460631899276        0.89579267147250
H            3.51369988754221        4.26451949738751        0.66613705221305
H            3.12042975302403        3.88629793829151        2.36059945013228
H            4.82816326182988        3.91073662215101        1.82733284824640
H            0.20660531747256       -1.54296819178559       -2.67474124008265
H           -0.94332064844555       -2.84850577166369       -2.33218918883849
H            0.80107868310797       -3.13555203662002       -2.16323267118667
H           -1.36862396128225       -3.58156212564553        0.00835656273043
H           -0.56962923587851       -2.76818777878044        1.36697413531968
H            0.35282718320383       -3.87517343336798        0.33102005165268
H           -0.41078964125763        0.00784734582236       -0.07444894532502
H           -4.47048916142255       -2.88863326936807       -1.57830726639311
H           -4.51708540264395       -1.15468752512514       -2.02721876264442
H           -4.78705342040257       -1.64093400753520       -0.33179072151249
H           -3.52744681206456        4.50965924890666        0.67338946893817
H           -2.33785109526359        3.76155768051423        1.76351218692105
H           -1.85191184060587        4.22680095043424        0.13342556419289
H            5.51407213187757       -0.93227923674630        0.81923393237335

          :  Hamiltonian                  GFN1-xTB          :
         :: total energy             -82.972704139437 Eh    ::
         :: gradient norm              0.000360227730 Eh/a0 ::
         :: HOMO-LUMO gap              0.664725763233 eV    ::
         :: SCC energy               -83.741664602697 Eh    ::
         :: -> Gsolv                  -0.065607531806 Eh    ::
         :: repulsion energy           0.794598952850 Eh    ::

    * Orbital Energies and Occupations

         #    Occupation            Energy/Eh            Energy/eV
      -------------------------------------------------------------
         1        2.0000           -0.8929718             -24.2990
       ...           ...                  ...                  ...
        55        2.0000           -0.5007233             -13.6254
        56        2.0000           -0.4991694             -13.5831
        57        2.0000           -0.4877480             -13.2723
        58        2.0000           -0.4870964             -13.2546
        59        2.0000           -0.4828287             -13.1384
        60        2.0000           -0.4801391             -13.0652
        61        2.0000           -0.4735131             -12.8849
        62        2.0000           -0.4596875             -12.5087
        63        2.0000           -0.4520777             -12.3017
        64        2.0000           -0.4327599             -11.7760
        65        2.0000           -0.4204617             -11.4413
        66        2.0000           -0.3883524             -10.5676
        67        2.0000           -0.3844992             -10.4628 (HOMO)
        68        0.0000           -0.3600710              -9.7980 (LUMO)
        69                         -0.2859811              -7.7819
        70                         -0.2804465              -7.6313
        71                         -0.2445240              -6.6538
        72                         -0.2426231              -6.6021
        73                         -0.2000814              -5.4445
        74                         -0.1561916              -4.2502
        75                         -0.1503617              -4.0916
        76                         -0.1297227              -3.5299
        77                         -0.1261632              -3.4331
        78                         -0.1249664              -3.4005
       ...                                ...                  ...
       134                          0.7370457              20.0560
      -------------------------------------------------------------
                  HL-Gap            0.0244282 Eh            0.6647 eV

Wiberg/Mayer (AO) data.
largest (>0.10) Wiberg bond orders for each atom

     #   Z sym  total        # sym  WBO       # sym  WBO       # sym  WBO
 ---------------------------------------------------------------------------
     1   6 C    3.883 --    28 H    0.987    26 H    0.980    27 H    0.980
                             2 O    0.908
     2   8 O    2.189 --     3 C    1.093     1 C    0.908     4 O    0.125
     3   6 C    3.842 --     4 O    1.632     2 O    1.093     5 C    1.025
     4   8 O    1.897 --     3 C    1.632     2 O    0.125
     5   6 C    3.958 --    24 C    1.490     6 N    1.178     3 C    1.025
     6   7 N    3.059 --     7 C    1.463     5 C    1.178
     7   6 C    3.961 --     6 N    1.463    21 N    1.379     8 C    0.964
     8   6 C    3.893 --    10 C    0.981     9 C    0.979     7 C    0.964
                            11 N    0.893
     9   6 C    3.986 --    29 H    0.985    30 H    0.984    31 H    0.981
                             8 C    0.979
    10   6 C    3.986 --    33 H    0.985    32 H    0.984     8 C    0.981
                            34 H    0.980
    11   7 N    3.516 --    12 C    1.513     8 C    0.893    35 H    0.815
                            13 O    0.114
    12   6 C    3.902 --    11 N    1.513    13 O    1.170    15 C    1.072
    13   8 O    2.259 --    12 C    1.170    14 C    0.870    11 N    0.114
    14   6 C    3.838 --    36 H    0.981    38 H    0.975    37 H    0.975
                            13 O    0.870
    15   6 C    3.888 --    16 N    1.559    12 C    1.072    20 O    1.054
    16   7 N    3.027 --    15 C    1.559    17 N    1.240
    17   7 N    2.984 --    18 C    1.560    16 N    1.240
    18   6 C    3.854 --    17 N    1.560    20 O    1.089    19 C    1.038
    19   6 C    3.981 --    18 C    1.038    39 H    0.981    41 H    0.959
                            40 H    0.954
    20   8 O    2.339 --    18 C    1.089    15 C    1.054
    21   7 N    2.985 --     7 C    1.379    22 C    1.234    23 O    0.121
    22   6 C    3.927 --    23 O    1.493    21 N    1.234    24 C    1.063
    23   8 O    1.828 --    22 C    1.493    21 N    0.121
    24   6 C    3.908 --     5 C    1.490    25 O    1.082    22 C    1.063
    25   8 O    2.058 --    24 C    1.082    42 H    0.811
    26   1 H    1.010 --     1 C    0.980
    27   1 H    1.010 --     1 C    0.980
    28   1 H    1.013 --     1 C    0.987
    29   1 H    1.001 --     9 C    0.985
    30   1 H    1.005 --     9 C    0.984
    31   1 H    1.009 --     9 C    0.981
    32   1 H    1.005 --    10 C    0.984
    33   1 H    1.001 --    10 C    0.985
    34   1 H    1.012 --    10 C    0.980
    35   1 H    0.954 --    11 N    0.815
    36   1 H    1.004 --    14 C    0.981
    37   1 H    1.010 --    14 C    0.975
    38   1 H    1.010 --    14 C    0.975
    39   1 H    0.996 --    19 C    0.981
    40   1 H    0.993 --    19 C    0.954
    41   1 H    0.993 --    19 C    0.959
    42   1 H    0.870 --    25 O    0.811
 ---------------------------------------------------------------------------

           -------------------------------------------------
          | TOTAL ENERGY              -82.972704139437 Eh   |
          | GRADIENT NORM               0.000360227730 Eh/α |
          | HOMO-LUMO GAP               0.664725763233 eV   |
           -------------------------------------------------

 * finished run on 2023/06/20 at 18:07:05.537
