   * xtb version 6.5.1 (579679a) compiled by 'ehlert@majestix' on 2022-07-11
          program call               : /lustre/hpc/kemi/ree/PhD/git/ReactivityQM/dep/xtb-6.5.1/bin/xtb --gfn 1 /lustre/hpc/kemi/ree/PhD/git/ReactivityQM/calculations/R02methylcation/reac01prodN17/conf05/R02methylcation_reac01prodN17_conf05_gfn1.xyz --opt --vfukui --chrg 0 --uhf 0 --alpb DMSO

   ID    Z sym.   atoms
    1    6 C      1, 3, 5, 7-10, 12, 13, 15, 18, 19, 22, 24
    2    8 O      2, 4, 14, 20, 23, 25
    3    7 N      6, 11, 16, 17, 21
    4    1 H      26-42

      * Solvation model:               ALPB
        Solvent                        DMSO
        Solvent mass                       7.8130E+01 g/mol
          :  Hamiltonian                  GFN1-xTB          :
 * total energy  :   -82.9328315 Eh     change       -0.6238565E-11 Eh
 * total energy  :   -82.9458678 Eh     change       -0.1303629E-01 Eh
 * total energy  :   -82.9502146 Eh     change       -0.4346797E-02 Eh
 * total energy  :   -82.9510123 Eh     change       -0.7977093E-03 Eh
 * total energy  :   -82.9516050 Eh     change       -0.5926974E-03 Eh
 * total energy  :   -82.9519833 Eh     change       -0.3782599E-03 Eh
 * total energy  :   -82.9523252 Eh     change       -0.3419466E-03 Eh
 * total energy  :   -82.9525923 Eh     change       -0.2670405E-03 Eh
 * total energy  :   -82.9527798 Eh     change       -0.1874905E-03 Eh
 * total energy  :   -82.9529291 Eh     change       -0.1493433E-03 Eh
 * total energy  :   -82.9557756 Eh     change       -0.6815122E-04 Eh
 * total energy  :   -82.9558293 Eh     change       -0.5368591E-04 Eh
 * total energy  :   -82.9558531 Eh     change       -0.2385187E-04 Eh
 * total energy  :   -82.9559026 Eh     change       -0.4947171E-04 Eh
 * total energy  :   -82.9559225 Eh     change       -0.1988652E-04 Eh
 * total energy  :   -82.9559363 Eh     change       -0.1385926E-04 Eh
 * total energy  :   -82.9559454 Eh     change       -0.9034817E-05 Eh
 * total energy  :   -82.9559511 Eh     change       -0.5733301E-05 Eh
 * total energy  :   -82.9559548 Eh     change       -0.3685299E-05 Eh
   *** GEOMETRY OPTIMIZATION CONVERGED AFTER 37 ITERATIONS ***

 final structure:
================
42
 xtb: 6.5.1 (579679a)
C            5.87916576372455        2.27525090291115        0.98800830006004
O            4.86107208434226        1.96864172370136        0.04044601291855
C            3.87808305092335        1.15508989960053        0.47090232194219
O            3.87228215079763        0.70589739267894        1.60748432174603
C            2.83819081483143        0.87708052732052       -0.52213450649056
N            1.89731545472002       -0.00459585466895       -0.06090093214945
C            0.88970632220234       -0.35225706714783       -0.78481228249963
C           -0.10325327553783       -1.32662826963655       -0.20934490905501
C           -0.99825269780133       -1.97032891816774       -1.26101068509792
C            0.61616606963583       -2.38043198447515        0.62491241655646
N           -1.04445819215860       -0.48038333057517        0.71176030173883
C           -0.36843801034395        0.09237252999508        1.90744287715559
C           -2.23237841919333       -1.26865591880318        1.16924625253617
O           -2.10660130107984       -2.10937407454318        2.01345638367554
C           -3.45179862979557       -0.86985448419019        0.51425319264631
N           -4.66113637325363       -1.32035427219435        0.72972810504611
N           -5.48272238142561       -0.64093521976032       -0.08615191654354
C           -4.74730655560386        0.19643354590873       -0.76783958308141
C           -5.19304247159882        1.15759210316443       -1.79308795876534
O           -3.45483755304662        0.09967656245066       -0.43224323180979
N            0.69676584751997        0.16875472862752       -2.04576344241179
C            1.56910579033752        1.05051853735404       -2.64746694062647
O            1.33439727380023        1.45703819132390       -3.77630916639641
C            2.77372573982916        1.45506793411799       -1.82275600883494
O            3.59060034134738        2.24519458818228       -2.31158102616356
H            5.44953074037556        2.76819739096707        1.86486480818172
H            6.39138861842072        1.36339191536113        1.30883919463546
H            6.58308017527969        2.94297994679196        0.49292845677859
H           -1.65339267024783       -1.23500602741751       -1.72350474182105
H           -1.61246279953103       -2.74849492350731       -0.81088437945552
H           -0.37514113088886       -2.42421293246366       -2.03014789542916
H            1.32641850678840       -1.91300987959138        1.30546341163481
H            1.16775472478057       -3.02747881628656       -0.05627560426553
H           -0.08790669973699       -2.98735153735572        1.18814497463810
H           -1.38418287445825        0.28721317248963        0.13090116819921
H           -0.23308098585989       -0.69436173744945        2.64486694072202
H           -1.01179459470816        0.87405542422049        2.30183329231900
H            0.59325209944141        0.49999463479875        1.59711322197802
H           -4.79557531011999        0.86816592047452       -2.76652857979970
H           -4.81376915489684        2.15208339645040       -1.55934144363607
H           -6.27954940372452        1.17246550214196       -1.83541845511076
H           -0.11691808409024       -0.07944222279879       -2.57996326565887

          :  Hamiltonian                  GFN1-xTB          :
         :: total energy             -82.955954786652 Eh    ::
         :: gradient norm              0.000519509021 Eh/a0 ::
         :: HOMO-LUMO gap              0.379548708540 eV    ::
         :: SCC energy               -83.729975768568 Eh    ::
         :: -> Gsolv                  -0.093267568005 Eh    ::
         :: repulsion energy           0.801852785131 Eh    ::

    * Orbital Energies and Occupations

         #    Occupation            Energy/Eh            Energy/eV
      -------------------------------------------------------------
         1        2.0000           -0.8957735             -24.3752
       ...           ...                  ...                  ...
        55        2.0000           -0.5138378             -13.9822
        56        2.0000           -0.5083094             -13.8318
        57        2.0000           -0.5031232             -13.6907
        58        2.0000           -0.4964460             -13.5090
        59        2.0000           -0.4839375             -13.1686
        60        2.0000           -0.4794309             -13.0460
        61        2.0000           -0.4754270             -12.9370
        62        2.0000           -0.4748108             -12.9203
        63        2.0000           -0.4603822             -12.5276
        64        2.0000           -0.4512289             -12.2786
        65        2.0000           -0.4391039             -11.9486
        66        2.0000           -0.3969773             -10.8023
        67        1.9987           -0.3858343             -10.4991 (HOMO)
        68        0.0013           -0.3718862             -10.1195 (LUMO)
        69                         -0.2855305              -7.7697
        70                         -0.2835553              -7.7159
        71                         -0.2705933              -7.3632
        72                         -0.2461494              -6.6981
        73                         -0.2121751              -5.7736
        74                         -0.1564523              -4.2573
        75                         -0.1518530              -4.1321
        76                         -0.1452639              -3.9528
        77                         -0.1412321              -3.8431
        78                         -0.1304921              -3.5509
       ...                                ...                  ...
       134                          0.7544762              20.5303
      -------------------------------------------------------------
                  HL-Gap            0.0139482 Eh            0.3795 eV

Wiberg/Mayer (AO) data.
largest (>0.10) Wiberg bond orders for each atom

     #   Z sym  total        # sym  WBO       # sym  WBO       # sym  WBO
 ---------------------------------------------------------------------------
     1   6 C    3.890 --    28 H    0.987    27 H    0.980    26 H    0.980
                             2 O    0.915
     2   8 O    2.176 --     3 C    1.074     1 C    0.915     4 O    0.117
     3   6 C    3.849 --     4 O    1.594     5 C    1.080     2 O    1.074
     4   8 O    1.862 --     3 C    1.594     2 O    0.117
     5   6 C    3.873 --    24 C    1.237     6 N    1.202     3 C    1.080
                            25 O    0.112
     6   7 N    3.055 --     7 C    1.569     5 C    1.202
     7   6 C    3.926 --     6 N    1.569    21 N    1.105     8 C    0.994
     8   6 C    3.880 --     9 C    1.007    10 C    1.004     7 C    0.994
                            11 N    0.794
     9   6 C    3.988 --     8 C    1.007    29 H    0.979    30 H    0.978
                            31 H    0.976
    10   6 C    3.983 --     8 C    1.004    34 H    0.979    32 H    0.977
                            33 H    0.977
    11   7 N    3.594 --    12 C    0.897    35 H    0.888    13 C    0.880
                             8 C    0.794
    12   6 C    3.881 --    37 H    0.982    36 H    0.982    38 H    0.965
                            11 N    0.897
    13   6 C    3.848 --    14 O    1.736    15 C    1.091    11 N    0.880
    14   8 O    2.006 --    13 C    1.736
    15   6 C    3.877 --    16 N    1.532    13 C    1.091    20 O    1.031
    16   7 N    2.982 --    15 C    1.532    17 N    1.264
    17   7 N    2.987 --    18 C    1.543    16 N    1.264
    18   6 C    3.842 --    17 N    1.543    20 O    1.086    19 C    1.040
    19   6 C    3.979 --    18 C    1.040    41 H    0.980    40 H    0.959
                            39 H    0.951
    20   8 O    2.323 --    18 C    1.086    15 C    1.031
    21   7 N    3.420 --    22 C    1.140     7 C    1.105    42 H    0.890
                            23 O    0.133
    22   6 C    3.869 --    23 O    1.608    21 N    1.140    24 C    0.959
    23   8 O    1.879 --    22 C    1.608    21 N    0.133
    24   6 C    3.928 --    25 O    1.558     5 C    1.237    22 C    0.959
    25   8 O    1.835 --    24 C    1.558     5 C    0.112
    26   1 H    1.011 --     1 C    0.980
    27   1 H    1.011 --     1 C    0.980
    28   1 H    1.014 --     1 C    0.987
    29   1 H    0.999 --     9 C    0.979
    30   1 H    0.997 --     9 C    0.978
    31   1 H    0.995 --     9 C    0.976
    32   1 H    1.012 --    10 C    0.977
    33   1 H    0.999 --    10 C    0.977
    34   1 H    1.003 --    10 C    0.979
    35   1 H    0.938 --    11 N    0.888
    36   1 H    0.999 --    12 C    0.982
    37   1 H    0.992 --    12 C    0.982
    38   1 H    1.014 --    12 C    0.965
    39   1 H    0.991 --    19 C    0.951
    40   1 H    0.992 --    19 C    0.959
    41   1 H    0.995 --    19 C    0.980
    42   1 H    0.938 --    21 N    0.890
 ---------------------------------------------------------------------------

           -------------------------------------------------
          | TOTAL ENERGY              -82.955954786652 Eh   |
          | GRADIENT NORM               0.000519509021 Eh/α |
          | HOMO-LUMO GAP               0.379548708540 eV   |
           -------------------------------------------------

 * finished run on 2023/06/21 at 18:00:11.409
