   * xtb version 6.5.1 (579679a) compiled by 'ehlert@majestix' on 2022-07-11
          program call               : /lustre/hpc/kemi/ree/PhD/git/ReactivityQM/dep/xtb-6.5.1/bin/xtb --gfn 1 /lustre/hpc/kemi/ree/PhD/git/ReactivityQM/calculations/R03/reac02prodN17/conf19/R03_reac02prodN17_conf19_gfn1.xyz --opt --vfukui --chrg 1 --uhf 0 --alpb DMSO

   ID    Z sym.   atoms
    1    6 C      1, 3, 5, 7-10, 12, 13, 15, 18, 19, 22, 23, 25
    2    8 O      2, 4, 14, 20, 24, 26
    3    7 N      6, 11, 16, 17, 21
    4    1 H      27-46

      * Solvation model:               ALPB
        Solvent                        DMSO
        Solvent mass                       7.8130E+01 g/mol
          :  Hamiltonian                  GFN1-xTB          :
 * total energy  :   -86.3086788 Eh     change       -0.2513900E-10 Eh
 * total energy  :   -86.3216257 Eh     change       -0.1294692E-01 Eh
 * total energy  :   -86.3261236 Eh     change       -0.4497853E-02 Eh
 * total energy  :   -86.3271049 Eh     change       -0.9813503E-03 Eh
 * total energy  :   -86.3277198 Eh     change       -0.6148362E-03 Eh
 * total energy  :   -86.3280677 Eh     change       -0.3479563E-03 Eh
 * total energy  :   -86.3283724 Eh     change       -0.3046195E-03 Eh
 * total energy  :   -86.3286108 Eh     change       -0.2384032E-03 Eh
 * total energy  :   -86.3287665 Eh     change       -0.1557150E-03 Eh
 * total energy  :   -86.3288620 Eh     change       -0.9557975E-04 Eh
 * total energy  :   -86.3298385 Eh     change       -0.2438288E-04 Eh
 * total energy  :   -86.3298512 Eh     change       -0.1268005E-04 Eh
 * total energy  :   -86.3298604 Eh     change       -0.9212504E-05 Eh
 * total energy  :   -86.3298696 Eh     change       -0.9174064E-05 Eh
 * total energy  :   -86.3298815 Eh     change       -0.1195339E-04 Eh
 * total energy  :   -86.3298917 Eh     change       -0.1016365E-04 Eh
 * total energy  :   -86.3299000 Eh     change       -0.8317729E-05 Eh
 * total energy  :   -86.3299058 Eh     change       -0.5761363E-05 Eh
 * total energy  :   -86.3299095 Eh     change       -0.3785986E-05 Eh
   *** GEOMETRY OPTIMIZATION CONVERGED AFTER 34 ITERATIONS ***

 final structure:
================
46
 xtb: 6.5.1 (579679a)
C            6.63195218334881        0.49479630416166       -1.17570139904710
O            5.36599827523669        0.91402956904174       -0.65232040546714
C            4.34384796183783        0.08621643784252       -0.83243330936298
O            4.43385446974923       -0.97851423619103       -1.39827479807658
C            3.06134936223008        0.60543011329738       -0.26641506583575
N            1.99966041403218       -0.23687535917223       -0.44702585616233
C            0.81079336435197        0.03890278458173       -0.02872251062571
C           -0.21116103452795       -1.06723363510395       -0.29458515113664
C           -0.70490433309079       -1.72447915203434        0.99662535612323
C            0.43548329543776       -2.13520230644071       -1.17923708878190
N           -1.41394192257767       -0.46176809998939       -1.02417127623941
C           -1.06743358781599        0.19174478770675       -2.31639510059088
C           -2.50857230637326       -1.48178134541338       -1.28337755230374
O           -2.38110685838780       -2.27525671855841       -2.15989318091631
C           -3.63069181503130       -1.30062606892971       -0.40308091016470
N           -4.74867540500881       -1.97905609578172       -0.37523407385205
N           -5.50738870824451       -1.44580468371516        0.58681101035765
C           -4.83009302930287       -0.45788104952538        1.11597697651707
C           -5.24720862707201        0.43958212509846        2.20575215325308
O           -3.63539882790645       -0.31987067215888        0.53154384984723
N            0.53408201677255        1.21207952267568        0.63762523212117
C           -0.77820461619932        1.63945462133644        1.12178350712860
C            1.53512145999849        2.15505241084610        0.84630937620816
O            1.32096016605340        3.22597741606778        1.39555985502139
C            2.86789524667783        1.79575922768676        0.37466566406507
O            3.81586790654462        2.70140039270433        0.60611737273062
H            7.34821260662703        1.27126672799216       -0.91426863694868
H            6.92366319880629       -0.45941627058018       -0.73065484444775
H            6.56867948563330        0.38438678306966       -2.26079594941710
H           -1.37097395558431       -1.08020109401067        1.56167522388424
H            0.15752858309233       -1.96471816556538        1.61710488654547
H           -1.23625632033896       -2.64635705234954        0.76322080079613
H            1.25076062391769       -2.59098600348514       -0.61917092034092
H           -0.28352009310717       -2.90782866583872       -1.43850990559336
H            0.84725920799100       -1.70020504270507       -2.08700471253979
H           -1.82229877427921        0.24956744742140       -0.41860387571043
H           -0.21728243889999        0.84597652409131       -2.14644559723803
H           -0.83341957808490       -0.57452641151449       -3.05030757320250
H           -1.93509713942842        0.76611605900377       -2.62955979497515
H           -4.50519776147400        0.41930127462193        3.00375675296525
H           -6.21778243013312        0.13220816270579        2.58908001436165
H           -5.30452329674903        1.46347337135555        1.83405299643521
H           -1.30494973772644        2.16583655340213        0.32642005485990
H           -1.36050976807993        0.79684378288623        1.47240397557125
H           -0.61478416699478        2.32767817377813        1.95126319276763
H            3.41840370407428        3.46550655567775        1.06609323741913

          :  Hamiltonian                  GFN1-xTB          :
         :: total energy             -86.329909544712 Eh    ::
         :: gradient norm              0.000459226535 Eh/a0 ::
         :: HOMO-LUMO gap              1.538689469767 eV    ::
         :: SCC energy               -87.161161337468 Eh    ::
         :: -> Gsolv                  -0.127254518722 Eh    ::
         :: repulsion energy           0.863029918752 Eh    ::

    * Orbital Energies and Occupations

         #    Occupation            Energy/Eh            Energy/eV
      -------------------------------------------------------------
         1        2.0000           -0.9102663             -24.7696
       ...           ...                  ...                  ...
        58        2.0000           -0.5368939             -14.6096
        59        2.0000           -0.5250116             -14.2863
        60        2.0000           -0.5235295             -14.2460
        61        2.0000           -0.5195037             -14.1364
        62        2.0000           -0.5183292             -14.1045
        63        2.0000           -0.5016490             -13.6506
        64        2.0000           -0.4961106             -13.4999
        65        2.0000           -0.4949423             -13.4681
        66        2.0000           -0.4914962             -13.3743
        67        2.0000           -0.4906885             -13.3523
        68        2.0000           -0.4754964             -12.9389
        69        2.0000           -0.4620958             -12.5743
        70        2.0000           -0.4448052             -12.1038 (HOMO)
        71                         -0.3882594             -10.5651 (LUMO)
        72                         -0.3361570              -9.1473
        73                         -0.3054704              -8.3123
        74                         -0.2954561              -8.0398
        75                         -0.2611867              -7.1073
        76                         -0.2511672              -6.8346
        77                         -0.1753216              -4.7707
        78                         -0.1713392              -4.6624
        79                         -0.1691313              -4.6023
        80                         -0.1574145              -4.2835
        81                         -0.1512379              -4.1154
       ...                                ...                  ...
       144                          0.7274748              19.7956
      -------------------------------------------------------------
                  HL-Gap            0.0565458 Eh            1.5387 eV

Wiberg/Mayer (AO) data.
largest (>0.10) Wiberg bond orders for each atom

     #   Z sym  total        # sym  WBO       # sym  WBO       # sym  WBO
 ---------------------------------------------------------------------------
     1   6 C    3.867 --    27 H    0.986    28 H    0.979    29 H    0.979
                             2 O    0.892
     2   8 O    2.210 --     3 C    1.125     1 C    0.892     4 O    0.137
     3   6 C    3.854 --     4 O    1.660     2 O    1.125     5 C    0.992
     4   8 O    1.923 --     3 C    1.660     2 O    0.137
     5   6 C    3.958 --    25 C    1.492     6 N    1.182     3 C    0.992
     6   7 N    3.043 --     7 C    1.586     5 C    1.182
     7   6 C    3.940 --     6 N    1.586    21 N    1.158     8 C    0.974
     8   6 C    3.880 --    10 C    1.003     9 C    0.992     7 C    0.974
                            11 N    0.835
     9   6 C    3.982 --     8 C    0.992    32 H    0.978    31 H    0.976
                            30 H    0.972
    10   6 C    3.979 --     8 C    1.003    35 H    0.978    34 H    0.978
                            33 H    0.975
    11   7 N    3.593 --    12 C    0.897    36 H    0.879    13 C    0.850
                             8 C    0.835
    12   6 C    3.881 --    39 H    0.980    37 H    0.979    38 H    0.978
                            11 N    0.897
    13   6 C    3.878 --    14 O    1.790    15 C    1.095    11 N    0.850
    14   8 O    2.070 --    13 C    1.790
    15   6 C    3.882 --    16 N    1.527    13 C    1.095    20 O    1.029
    16   7 N    3.021 --    15 C    1.527    17 N    1.287
    17   7 N    2.994 --    18 C    1.520    16 N    1.287
    18   6 C    3.846 --    17 N    1.520    20 O    1.092    19 C    1.044
    19   6 C    3.975 --    18 C    1.044    41 H    0.978    40 H    0.953
                            42 H    0.948
    20   8 O    2.335 --    18 C    1.092    15 C    1.029
    21   7 N    3.498 --     7 C    1.158    23 C    1.118    22 C    0.927
                            24 O    0.136
    22   6 C    3.916 --    44 H    0.971    43 H    0.970    45 H    0.965
                            21 N    0.927
    23   6 C    3.910 --    24 O    1.578    21 N    1.118    25 C    1.065
    24   8 O    1.923 --    23 C    1.578    21 N    0.136
    25   6 C    3.921 --     5 C    1.492    26 O    1.125    23 C    1.065
    26   8 O    2.100 --    25 C    1.125    46 H    0.798
    27   1 H    1.010 --     1 C    0.986
    28   1 H    1.006 --     1 C    0.979
    29   1 H    1.006 --     1 C    0.979
    30   1 H    1.002 --     9 C    0.972
    31   1 H    0.994 --     9 C    0.976
    32   1 H    0.995 --     9 C    0.978
    33   1 H    1.007 --    10 C    0.975
    34   1 H    1.001 --    10 C    0.978
    35   1 H    1.006 --    10 C    0.978
    36   1 H    0.948 --    11 N    0.879
    37   1 H    0.994 --    12 C    0.979
    38   1 H    0.996 --    12 C    0.978
    39   1 H    0.988 --    12 C    0.980
    40   1 H    0.990 --    19 C    0.953
    41   1 H    0.993 --    19 C    0.978
    42   1 H    0.989 --    19 C    0.948
    43   1 H    0.995 --    22 C    0.970
    44   1 H    1.006 --    22 C    0.971
    45   1 H    1.000 --    22 C    0.965
    46   1 H    0.840 --    26 O    0.798
 ---------------------------------------------------------------------------

           -------------------------------------------------
          | TOTAL ENERGY              -86.329909544712 Eh   |
          | GRADIENT NORM               0.000459226535 Eh/α |
          | HOMO-LUMO GAP               1.538689469767 eV   |
           -------------------------------------------------

 * finished run on 2023/06/20 at 15:54:08.218
