   * xtb version 6.5.1 (579679a) compiled by 'ehlert@majestix' on 2022-07-11
          program call               : /lustre/hpc/kemi/ree/PhD/git/ReactivityQM/dep/xtb-6.5.1/bin/xtb --gfn 1 /lustre/hpc/kemi/ree/PhD/git/ReactivityQM/calculations/R03/reac02prodE05/conf01/R03_reac02prodE05_conf01_gfn1.xyz --opt --vfukui --chrg -1 --uhf 0 --alpb DMSO

   ID    Z sym.   atoms
    1    6 C      1, 3, 5, 6, 8, 11-15, 17, 19, 22, 23, 26
    2    8 O      2, 4, 7, 9, 18, 24
    3    7 N      10, 16, 20, 21, 25
    4    1 H      27-46

      * Solvation model:               ALPB
        Solvent                        DMSO
        Solvent mass                       7.8130E+01 g/mol
          :  Hamiltonian                  GFN1-xTB          :
 * total energy  :   -86.9732440 Eh     change       -0.1282530E-09 Eh
 * total energy  :   -86.9862921 Eh     change       -0.1304805E-01 Eh
 * total energy  :   -86.9922810 Eh     change       -0.5988877E-02 Eh
 * total energy  :   -86.9939429 Eh     change       -0.1661937E-02 Eh
 * total energy  :   -86.9952382 Eh     change       -0.1295307E-02 Eh
 * total energy  :   -86.9962091 Eh     change       -0.9708462E-03 Eh
 * total energy  :   -86.9972949 Eh     change       -0.1085838E-02 Eh
 * total energy  :   -86.9985158 Eh     change       -0.1220902E-02 Eh
 * total energy  :   -86.9995387 Eh     change       -0.1022947E-02 Eh
 * total energy  :   -87.0002971 Eh     change       -0.7583629E-03 Eh
 * total energy  :   -87.0123569 Eh     change       -0.2020265E-04 Eh
 * total energy  :   -87.0123659 Eh     change       -0.9013177E-05 Eh
 * total energy  :   -87.0123756 Eh     change       -0.9704302E-05 Eh
 * total energy  :   -87.0123878 Eh     change       -0.1217327E-04 Eh
 * total energy  :   -87.0123958 Eh     change       -0.8050758E-05 Eh
 * total energy  :   -87.0124024 Eh     change       -0.6570464E-05 Eh
 * total energy  :   -87.0124091 Eh     change       -0.6716701E-05 Eh
 * total energy  :   -87.0124148 Eh     change       -0.5744427E-05 Eh
 * total energy  :   -87.0124188 Eh     change       -0.3993919E-05 Eh
   *** GEOMETRY OPTIMIZATION CONVERGED AFTER 79 ITERATIONS ***

 final structure:
================
46
 xtb: 6.5.1 (579679a)
C            3.12753366845468        3.06360107498052        2.84207122830853
O            2.95599668913309        2.32983723140726        1.63852486395505
C            2.42494952703427        1.07805776038082        1.77932946133513
O            2.11383767458567        0.65554155127368        2.89170810750726
C            2.31527430523557        0.34169942999723        0.54570640197896
C            2.44003913874112        0.81823816470691       -0.74193304245964
O            2.80189763922017        2.09415739488346       -1.05443014318550
C            2.02085944263073        0.02375440082069       -1.87178602836944
O            2.27222563327709        0.38083532088123       -3.05747561506753
N            1.21143679910193       -1.03134342119860       -1.56069783272679
C            0.57472995281879       -1.73164449764918       -2.67476147898200
C            1.06099244881404       -1.53858765560164       -0.25970868318149
C           -0.35522606894295       -1.63803125265336        0.30136897837862
C           -1.00791983577034       -2.97262071208415       -0.11107441959931
C           -0.32765373960384       -1.55918016552893        1.83432486397037
N           -1.18525843975765       -0.52083095860136       -0.22056761844588
C           -2.50469712365240       -0.39364335545996       -0.03714233485694
O           -3.20713019560161       -1.07668680664308        0.69558822117725
C           -3.05042013786455        0.73430193289261       -0.84949349258037
N           -2.36478896750474        1.53876975483318       -1.60401115681758
N           -3.25575287823465        2.40774912119784       -2.16605499342165
C           -4.42645020702539        2.07488433230076       -1.71908007136814
C           -5.72875214373564        2.70123395284049       -2.03803250692474
O           -4.36463573571303        1.02855505550230       -0.88039679713358
N            2.06109739634922       -1.07704311195117        0.67599703002470
C            3.30616697825008       -1.85993201751765        0.54656184048202
H            3.55574049383989        4.02819319234609        2.57072571345519
H            2.16784162090074        3.21501385646838        3.34769348689554
H            3.80491840033977        2.53872784471682        3.52390685608219
H            2.81304590514612        2.14096741692138       -2.03025763154208
H           -0.48526646635960       -1.47713236654865       -2.73676519031942
H            0.68299993558382       -2.80681720231562       -2.53745848365566
H            1.06540853677216       -1.43238493904120       -3.60232746138587
H           -1.91304013665006       -3.16173716842985        0.46540950282373
H           -0.29823656573195       -3.77780953524765        0.07271028048307
H           -1.26832218985887       -2.97006559197333       -1.16707207907784
H            0.06366043945823       -0.59810703004748        2.16627302101097
H           -1.33072509647396       -1.69289120375118        2.23754128289271
H            0.31678686343289       -2.34729287904632        2.22121343327151
H           -0.74748214123494        0.09587632889644       -0.89402440386370
H           -6.39278950783285        1.96705852807774       -2.49376788047658
H           -6.20332854684456        3.06425148556101       -1.12681107338440
H           -5.57844552266697        3.52980195113716       -2.72527208410479
H            3.99908584578409       -1.56512674237422        1.33639056356061
H            3.78664801922359       -1.70784316827885       -0.42842855915710
H            3.05314629293438       -2.91435830102735        0.65923492449834

          :  Hamiltonian                  GFN1-xTB          :
         :: total energy             -87.012418832652 Eh    ::
         :: gradient norm              0.000481238579 Eh/a0 ::
         :: HOMO-LUMO gap              0.391739528603 eV    ::
         :: SCC energy               -87.795161546434 Eh    ::
         :: -> Gsolv                  -0.108214538412 Eh    ::
         :: repulsion energy           0.813758243679 Eh    ::

    * Orbital Energies and Occupations

         #    Occupation            Energy/Eh            Energy/eV
      -------------------------------------------------------------
         1        2.0000           -0.8547731             -23.2596
       ...           ...                  ...                  ...
        59        2.0000           -0.4690524             -12.7636
        60        2.0000           -0.4648705             -12.6498
        61        2.0000           -0.4637465             -12.6192
        62        2.0000           -0.4504640             -12.2578
        63        2.0000           -0.4494464             -12.2301
        64        2.0000           -0.4384883             -11.9319
        65        2.0000           -0.4360749             -11.8662
        66        2.0000           -0.4264413             -11.6041
        67        2.0000           -0.4147580             -11.2861
        68        2.0000           -0.4038316             -10.9888
        69        2.0000           -0.3896017             -10.6016
        70        2.0000           -0.3669234              -9.9845
        71        1.9990           -0.3105676              -8.4510 (HOMO)
        72        0.0010           -0.2961714              -8.0592 (LUMO)
        73                         -0.2733495              -7.4382
        74                         -0.2493212              -6.7844
        75                         -0.1928386              -5.2474
        76                         -0.1850160              -5.0345
        77                         -0.1396517              -3.8001
        78                         -0.1346280              -3.6634
        79                         -0.1232811              -3.3547
        80                         -0.1204561              -3.2778
        81                         -0.1019592              -2.7745
        82                         -0.1004593              -2.7336
       ...                                ...                  ...
       144                          0.7336846              19.9646
      -------------------------------------------------------------
                  HL-Gap            0.0143962 Eh            0.3917 eV

Wiberg/Mayer (AO) data.
largest (>0.10) Wiberg bond orders for each atom

     #   Z sym  total        # sym  WBO       # sym  WBO       # sym  WBO
 ---------------------------------------------------------------------------
     1   6 C    3.900 --    27 H    0.987    28 H    0.981    29 H    0.981
                             2 O    0.928
     2   8 O    2.138 --     3 C    1.023     1 C    0.928     4 O    0.103
     3   6 C    3.856 --     4 O    1.546     5 C    1.144     2 O    1.023
     4   8 O    1.856 --     3 C    1.546     2 O    0.103
     5   6 C    3.933 --     6 C    1.455     3 C    1.144    25 N    0.973
     6   6 C    3.904 --     5 C    1.455     8 C    1.123     7 O    1.044
                            12 C    0.115
     7   8 O    2.027 --     6 C    1.044    30 H    0.827
     8   6 C    3.930 --     9 O    1.378    10 N    1.193     6 C    1.123
                            12 C    0.123
     9   8 O    1.755 --     8 C    1.378    10 N    0.142
    10   7 N    3.479 --     8 C    1.193    12 C    1.066    11 C    0.948
                             9 O    0.142
    11   6 C    3.956 --    32 H    0.986    31 H    0.981    33 H    0.976
                            10 N    0.948
    12   6 C    3.650 --    10 N    1.066    13 C    0.979    25 N    0.971
                             8 C    0.123     6 C    0.115
    13   6 C    3.915 --    15 C    0.994    14 C    0.984    12 C    0.979
                            16 N    0.883
    14   6 C    3.992 --    35 H    0.986    13 C    0.984    36 H    0.982
                            34 H    0.982
    15   6 C    3.994 --    13 C    0.994    39 H    0.986    38 H    0.984
                            37 H    0.981
    16   7 N    3.376 --    17 C    1.298    40 H    0.901    13 C    0.883
                            18 O    0.187
    17   6 C    3.924 --    18 O    1.564    16 N    1.298    19 C    0.979
    18   8 O    1.884 --    17 C    1.564    16 N    0.187
    19   6 C    3.867 --    20 N    1.617    24 O    1.061    17 C    0.979
    20   7 N    3.011 --    19 C    1.617    21 N    1.190
    21   7 N    2.980 --    22 C    1.616    20 N    1.190
    22   6 C    3.873 --    21 N    1.616    24 O    1.079    23 C    1.030
    23   6 C    3.988 --    22 C    1.030    43 H    0.983    42 H    0.965
                            41 H    0.964
    24   8 O    2.323 --    22 C    1.079    19 C    1.061
    25   7 N    3.053 --     5 C    0.973    12 C    0.971    26 C    0.962
    26   6 C    3.983 --    46 H    0.988    44 H    0.988    45 H    0.983
                            25 N    0.962
    27   1 H    1.016 --     1 C    0.987
    28   1 H    1.014 --     1 C    0.981
    29   1 H    1.014 --     1 C    0.981
    30   1 H    0.882 --     7 O    0.827
    31   1 H    1.010 --    11 C    0.981
    32   1 H    1.015 --    11 C    0.986
    33   1 H    1.018 --    11 C    0.976
    34   1 H    1.013 --    14 C    0.982
    35   1 H    1.017 --    14 C    0.986
    36   1 H    1.010 --    14 C    0.982
    37   1 H    1.027 --    15 C    0.981
    38   1 H    1.013 --    15 C    0.984
    39   1 H    1.015 --    15 C    0.986
    40   1 H    0.968 --    16 N    0.901
    41   1 H    0.998 --    23 C    0.964
    42   1 H    0.998 --    23 C    0.965
    43   1 H    0.999 --    23 C    0.983
    44   1 H    1.017 --    26 C    0.988
    45   1 H    1.009 --    26 C    0.983
    46   1 H    1.029 --    26 C    0.988
 ---------------------------------------------------------------------------

           -------------------------------------------------
          | TOTAL ENERGY              -87.012418832652 Eh   |
          | GRADIENT NORM               0.000481238579 Eh/α |
          | HOMO-LUMO GAP               0.391739528603 eV   |
           -------------------------------------------------

 * finished run on 2023/06/20 at 15:20:14.265
