                         Program Version 5.0.1 -  RELEASE  -
|  1> # ORCA input file
|  2> ! SP r2SCAN-3c CPCM
|  3>
|  4> %maxcore 1875.0
|  5> %pal nprocs 4 end
|  6> %cpcm smd true SMDsolvent "DMSO" end
|  7>
|  8> *xyz -1 1
|  9> C      -2.993215   -0.823384   -2.046884
| 10> N      -2.253305   -0.940972   -0.788370
| 11> C      -1.612258   -2.127669   -0.610027
| 12> O      -1.607120   -3.001590   -1.486872
| 13> C      -0.892167   -2.290370    0.728834
| 14> C      -0.041129   -3.562081    0.702639
| 15> O      -1.941482   -2.445454    1.719955
| 16> C      -0.137306   -1.001220    0.952635
| 17> C       1.148451   -0.907463    1.523397
| 18> O       1.921995   -1.856305    1.783880
| 19> N       1.552371    0.411847    1.849598
| 20> C       2.986038    0.658356    1.924001
| 21> C       3.601248    0.686333    0.539971
| 22> C       4.081768   -0.485042   -0.043741
| 23> C       4.610122   -0.473612   -1.326980
| 24> C       4.641014    0.727576   -2.011785
| 25> F       5.154205    0.749581   -3.258425
| 26> C       4.170702    1.908596   -1.468797
| 27> C       3.648616    1.877017   -0.182425
| 28> N      -0.835596    0.159633    0.726001
| 29> C      -1.886548    0.194392   -0.018356
| 30> C      -2.745458    1.448888   -0.017656
| 31> C      -4.192239    1.096755    0.359103
| 32> C      -2.182686    2.438053    1.016481
| 33> N      -2.751785    2.092878   -1.340875
| 34> H      -2.396961   -1.250674   -2.858515
| 35> H      -3.932552   -1.377087   -1.975985
| 36> H      -3.201781    0.218925   -2.271820
| 37> H      -0.666021   -4.407378    0.411241
| 38> H       0.376969   -3.757150    1.687550
| 39> H       0.772081   -3.457422   -0.013479
| 40> H      -1.557609   -2.370345    2.600172
| 41> H       1.059190    1.123635    1.319418
| 42> H       3.443112   -0.132301    2.528654
| 43> H       3.141455    1.618687    2.424663
| 44> H       4.041634   -1.416076    0.512044
| 45> H       4.994322   -1.374177   -1.788935
| 46> H       4.216392    2.828372   -2.036585
| 47> H       3.280141    2.794307    0.262389
| 48> H      -4.782625    2.006627    0.462349
| 49> H      -4.654068    0.472298   -0.404270
| 50> H      -4.208657    0.561117    1.308401
| 51> H      -2.763258    3.359298    0.999498
| 52> H      -1.144434    2.671905    0.783705
| 53> H      -2.225372    2.009051    2.017461
| 54> H      -3.400993    2.866338   -1.322941
| 55> H      -1.835202    2.477306   -1.528330
| 56> **                         ****END OF INPUT****

CARTESIAN COORDINATES (ANGSTROEM)
---------------------------------
  C     -2.993215   -0.823384   -2.046884
  N     -2.253305   -0.940972   -0.788370
  C     -1.612258   -2.127669   -0.610027
  O     -1.607120   -3.001590   -1.486872
  C     -0.892167   -2.290370    0.728834
  C     -0.041129   -3.562081    0.702639
  O     -1.941482   -2.445454    1.719955
  C     -0.137306   -1.001220    0.952635
  C      1.148451   -0.907463    1.523397
  O      1.921995   -1.856305    1.783880
  N      1.552371    0.411847    1.849598
  C      2.986038    0.658356    1.924001
  C      3.601248    0.686333    0.539971
  C      4.081768   -0.485042   -0.043741
  C      4.610122   -0.473612   -1.326980
  C      4.641014    0.727576   -2.011785
  F      5.154205    0.749581   -3.258425
  C      4.170702    1.908596   -1.468797
  C      3.648616    1.877017   -0.182425
  N     -0.835596    0.159633    0.726001
  C     -1.886548    0.194392   -0.018356
  C     -2.745458    1.448888   -0.017656
  C     -4.192239    1.096755    0.359103
  C     -2.182686    2.438053    1.016481
  N     -2.751785    2.092878   -1.340875
  H     -2.396961   -1.250674   -2.858515
  H     -3.932552   -1.377087   -1.975985
  H     -3.201781    0.218925   -2.271820
  H     -0.666021   -4.407378    0.411241
  H      0.376969   -3.757150    1.687550
  H      0.772081   -3.457422   -0.013479
  H     -1.557609   -2.370345    2.600172
  H      1.059190    1.123635    1.319418
  H      3.443112   -0.132301    2.528654
  H      3.141455    1.618687    2.424663
  H      4.041634   -1.416076    0.512044
  H      4.994322   -1.374177   -1.788935
  H      4.216392    2.828372   -2.036585
  H      3.280141    2.794307    0.262389
  H     -4.782625    2.006627    0.462349
  H     -4.654068    0.472298   -0.404270
  H     -4.208657    0.561117    1.308401
  H     -2.763258    3.359298    0.999498
  H     -1.144434    2.671905    0.783705
  H     -2.225372    2.009051    2.017461
  H     -3.400993    2.866338   -1.322941
  H     -1.835202    2.477306   -1.528330

 Total Charge           Charge          ....   -1
 Multiplicity           Mult            ....    1
 Number of Electrons    NEL             ....  186
 Basis Dimension        Dim             ....  625

ORBITAL ENERGIES
----------------

  NO   OCC          E(Eh)            E(eV)
   0   2.0000     -24.497791      -666.6188
   1   2.0000     -18.925654      -514.9932
   2   2.0000     -18.893452      -514.1170
   3   2.0000     -18.869744      -513.4719
   4   2.0000     -14.185493      -386.0069
   5   2.0000     -14.138550      -384.7295
   6   2.0000     -14.124369      -384.3436
   7   2.0000     -14.122343      -384.2885
   8   2.0000     -10.112952      -275.1874
   9   2.0000     -10.096777      -274.7473
  10   2.0000     -10.079754      -274.2841
  11   2.0000     -10.071713      -274.0653
  12   2.0000     -10.063817      -273.8504
  13   2.0000     -10.063674      -273.8465
  14   2.0000     -10.045530      -273.3528
  15   2.0000     -10.036066      -273.0952
  16   2.0000     -10.035471      -273.0791
  17   2.0000     -10.035261      -273.0733
  18   2.0000     -10.034247      -273.0458
  19   2.0000     -10.033262      -273.0189
  20   2.0000     -10.032187      -272.9897
  21   2.0000     -10.009098      -272.3614
  22   2.0000     -10.005003      -272.2500
  23   2.0000     -10.001215      -272.1469
  24   2.0000      -9.992578      -271.9119
  25   2.0000      -1.187461       -32.3125
  26   2.0000      -0.985241       -26.8098
  27   2.0000      -0.955911       -26.0117
  28   2.0000      -0.947497       -25.7827
  29   2.0000      -0.911285       -24.7973
  30   2.0000      -0.851772       -23.1779
  31   2.0000      -0.847673       -23.0664
  32   2.0000      -0.835934       -22.7469
  33   2.0000      -0.821652       -22.3583
  34   2.0000      -0.729305       -19.8454
  35   2.0000      -0.721474       -19.6323
  36   2.0000      -0.720772       -19.6132
  37   2.0000      -0.703163       -19.1340
  38   2.0000      -0.670198       -18.2370
  39   2.0000      -0.649889       -17.6844
  40   2.0000      -0.642415       -17.4810
  41   2.0000      -0.627480       -17.0746
  42   2.0000      -0.587756       -15.9937
  43   2.0000      -0.585815       -15.9408
  44   2.0000      -0.572145       -15.5689
  45   2.0000      -0.554812       -15.0972
  46   2.0000      -0.524819       -14.2810
  47   2.0000      -0.509202       -13.8561
  48   2.0000      -0.499917       -13.6034
  49   2.0000      -0.477330       -12.9888
  50   2.0000      -0.468524       -12.7492
  51   2.0000      -0.457257       -12.4426
  52   2.0000      -0.451369       -12.2824
  53   2.0000      -0.445043       -12.1102
  54   2.0000      -0.434257       -11.8167
  55   2.0000      -0.430508       -11.7147
  56   2.0000      -0.425439       -11.5768
  57   2.0000      -0.422633       -11.5004
  58   2.0000      -0.407276       -11.0825
  59   2.0000      -0.403984       -10.9930
  60   2.0000      -0.396251       -10.7825
  61   2.0000      -0.392905       -10.6915
  62   2.0000      -0.391353       -10.6493
  63   2.0000      -0.375181       -10.2092
  64   2.0000      -0.369910       -10.0658
  65   2.0000      -0.364838        -9.9277
  66   2.0000      -0.357393        -9.7251
  67   2.0000      -0.353016        -9.6061
  68   2.0000      -0.349464        -9.5094
  69   2.0000      -0.344852        -9.3839
  70   2.0000      -0.338619        -9.2143
  71   2.0000      -0.334591        -9.1047
  72   2.0000      -0.328995        -8.9524
  73   2.0000      -0.328447        -8.9375
  74   2.0000      -0.326274        -8.8784
  75   2.0000      -0.321453        -8.7472
  76   2.0000      -0.317633        -8.6432
  77   2.0000      -0.316062        -8.6005
  78   2.0000      -0.310434        -8.4473
  79   2.0000      -0.302355        -8.2275
  80   2.0000      -0.298886        -8.1331
  81   2.0000      -0.292646        -7.9633
  82   2.0000      -0.288771        -7.8579
  83   2.0000      -0.241904        -6.5825
  84   2.0000      -0.237078        -6.4512
  85   2.0000      -0.225322        -6.1313
  86   2.0000      -0.219785        -5.9807
  87   2.0000      -0.208410        -5.6711
  88   2.0000      -0.202608        -5.5132
  89   2.0000      -0.198158        -5.3922
  90   2.0000      -0.195798        -5.3279
  91   2.0000      -0.178105        -4.8465
  92   2.0000      -0.123968        -3.3733
  93   0.0000      -0.036750        -1.0000
  94   0.0000      -0.024668        -0.6712
  95   0.0000      -0.014612        -0.3976
  96   0.0000       0.027815         0.7569
  97   0.0000       0.057115         1.5542

MULLIKEN ATOMIC CHARGES
-----------------------
   0 C :   -0.482790
   1 N :    0.213823
   2 C :   -0.126204
   3 O :   -0.436104
   4 C :    0.464803
   5 C :   -0.610125
   6 O :   -0.460141
   7 C :   -0.240324
   8 C :   -0.021836
   9 O :   -0.477039
  10 N :   -0.225706
  11 C :   -0.348741
  12 C :    0.084148
  13 C :   -0.197114
  14 C :   -0.319303
  15 C :    0.358675
  16 F :   -0.243365
  17 C :   -0.299534
  18 C :   -0.215134
  19 N :   -0.180340
  20 C :   -0.006408
  21 C :    0.216910
  22 C :   -0.559778
  23 C :   -0.611491
  24 N :   -0.675444
  25 H :    0.174964
  26 H :    0.172775
  27 H :    0.213684
  28 H :    0.153416
  29 H :    0.171844
  30 H :    0.175646
  31 H :    0.296775
  32 H :    0.304473
  33 H :    0.195610
  34 H :    0.172160
  35 H :    0.207710
  36 H :    0.193970
  37 H :    0.193954
  38 H :    0.186841
  39 H :    0.169668
  40 H :    0.174255
  41 H :    0.176965
  42 H :    0.160375
  43 H :    0.170547
  44 H :    0.172167
  45 H :    0.282185
  46 H :    0.278580
Sum of atomic charges:   -1.0000000

LOEWDIN ATOMIC CHARGES
----------------------
   0 C :   -0.119949
   1 N :   -0.676480
   2 C :    0.357586
   3 O :   -0.529115
   4 C :    0.164406
   5 C :   -0.362349
   6 O :   -0.583519
   7 C :    0.077739
   8 C :    0.325543
   9 O :   -0.602367
  10 N :   -0.696963
  11 C :   -0.031210
  12 C :   -0.082884
  13 C :   -0.145586
  14 C :   -0.166796
  15 C :    0.193777
  16 F :   -0.303939
  17 C :   -0.166941
  18 C :   -0.152261
  19 N :   -0.656015
  20 C :    0.308305
  21 C :    0.058100
  22 C :   -0.365635
  23 C :   -0.374201
  24 N :   -0.723519
  25 H :    0.189916
  26 H :    0.176104
  27 H :    0.207066
  28 H :    0.159784
  29 H :    0.168652
  30 H :    0.168285
  31 H :    0.268821
  32 H :    0.280372
  33 H :    0.199766
  34 H :    0.186585
  35 H :    0.194118
  36 H :    0.191900
  37 H :    0.192061
  38 H :    0.184797
  39 H :    0.163362
  40 H :    0.169042
  41 H :    0.168243
  42 H :    0.155772
  43 H :    0.167991
  44 H :    0.162739
  45 H :    0.249379
  46 H :    0.249521

  Mayer bond orders larger than 0.100000
B(  0-C ,  1-N ) :   0.8292 B(  0-C , 25-H ) :   0.9461 B(  0-C , 26-H ) :   0.9634
B(  0-C , 27-H ) :   0.9328 B(  1-N ,  2-C ) :   1.1747 B(  1-N , 20-C ) :   1.0385
B(  2-C ,  3-O ) :   1.9175 B(  2-C ,  4-C ) :   0.8587 B(  2-C ,  7-C ) :   0.1381
B(  4-C ,  5-C ) :   0.8469 B(  4-C ,  6-O ) :   0.8488 B(  4-C ,  7-C ) :   1.0060
B(  5-C , 28-H ) :   0.9689 B(  5-C , 29-H ) :   0.9700 B(  5-C , 30-H ) :   1.0002
B(  6-O , 31-H ) :   0.8873 B(  7-C ,  8-C ) :   1.1563 B(  7-C , 19-N ) :   0.9840
B(  8-C ,  9-O ) :   1.7955 B(  8-C , 10-N ) :   1.0281 B(  8-C , 19-N ) :   0.1019
B(  9-O , 11-C ) :   0.1196 B( 10-N , 11-C ) :   0.8791 B( 10-N , 32-H ) :   0.8690
B( 11-C , 12-C ) :   0.7995 B( 11-C , 33-H ) :   1.0006 B( 11-C , 34-H ) :   0.9884
B( 12-C , 13-C ) :   1.3992 B( 12-C , 18-C ) :   1.3946 B( 13-C , 14-C ) :   1.3742
B( 13-C , 35-H ) :   0.9374 B( 14-C , 15-C ) :   1.3911 B( 14-C , 36-H ) :   0.9371
B( 15-C , 16-F ) :   0.8751 B( 15-C , 17-C ) :   1.4041 B( 17-C , 18-C ) :   1.3668
B( 17-C , 37-H ) :   0.9373 B( 18-C , 38-H ) :   0.9453 B( 19-N , 20-C ) :   1.7418
B( 20-C , 21-C ) :   0.9883 B( 21-C , 22-C ) :   0.9285 B( 21-C , 23-C ) :   0.9502
B( 21-C , 24-N ) :   0.7389 B( 22-C , 39-H ) :   0.9661 B( 22-C , 40-H ) :   0.9563
B( 22-C , 41-H ) :   0.9800 B( 23-C , 42-H ) :   0.9714 B( 23-C , 43-H ) :   0.9683
B( 23-C , 44-H ) :   0.9858 B( 24-N , 45-H ) :   0.9152 B( 24-N , 46-H ) :   0.9083

Dispersion correction           -0.022230522
FINAL SINGLE POINT ENERGY     -1205.506040769831

DIPOLE MOMENT
-------------
                                X             Y             Z
Electronic contribution:     23.98807      -4.57012      -7.61507
Nuclear contribution   :    -23.87562       8.89636       7.10732
                        -----------------------------------------
Total Dipole Moment    :      0.11244       4.32624      -0.50775
                        -----------------------------------------
Magnitude (a.u.)       :      4.35738
Magnitude (Debye)      :     11.07559

Rotational constants in cm-1:     0.010050     0.004558     0.004169
Rotational constants in MHz :   301.287144   136.654664   124.995996

                             ****ORCA TERMINATED NORMALLY****
TOTAL RUN TIME: 0 days 0 hours 2 minutes 53 seconds 984 msec
