   * xtb version 6.5.1 (579679a) compiled by 'ehlert@majestix' on 2022-07-11
          program call               : /lustre/hpc/kemi/ree/PhD/git/ReactivityQM/dep/xtb-6.5.1/bin/xtb --gfn 1 /lustre/hpc/kemi/ree/PhD/git/ReactivityQM/calculations/RaltegravirCLI/reac02prodE10/conf07/RaltegravirCLI_reac02prodE10_conf07_gfn1.xyz --opt --vfukui --chrg -1 --uhf 0 --alpb DMSO

   ID    Z sym.   atoms
    1    6 C      1, 3, 5, 6, 8, 9, 12-16, 18, 19, 21-24
    2    7 N      2, 11, 20, 25
    3    8 O      4, 7, 10
    4    9 F      17
    5    1 H      26-47

      * Solvation model:               ALPB
        Solvent                        DMSO
        Solvent mass                       7.8130E+01 g/mol
          :  Hamiltonian                  GFN1-xTB          :
 * total energy  :   -80.2110605 Eh     change       -0.1431033E-10 Eh
 * total energy  :   -80.2213494 Eh     change       -0.1028887E-01 Eh
 * total energy  :   -80.2240529 Eh     change       -0.2703518E-02 Eh
 * total energy  :   -80.2245703 Eh     change       -0.5174341E-03 Eh
 * total energy  :   -80.2249464 Eh     change       -0.3760453E-03 Eh
 * total energy  :   -80.2251130 Eh     change       -0.1665941E-03 Eh
 * total energy  :   -80.2252749 Eh     change       -0.1619503E-03 Eh
 * total energy  :   -80.2253814 Eh     change       -0.1065233E-03 Eh
 * total energy  :   -80.2254588 Eh     change       -0.7740485E-04 Eh
 * total energy  :   -80.2255336 Eh     change       -0.7480735E-04 Eh
 * total energy  :   -80.2302819 Eh     change       -0.7523131E-05 Eh
 * total energy  :   -80.2302914 Eh     change       -0.9460652E-05 Eh
 * total energy  :   -80.2302963 Eh     change       -0.4961423E-05 Eh
 * total energy  :   -80.2303006 Eh     change       -0.4282824E-05 Eh
 * total energy  :   -80.2303061 Eh     change       -0.5427005E-05 Eh
 * total energy  :   -80.2303172 Eh     change       -0.1114005E-04 Eh
 * total energy  :   -80.2303236 Eh     change       -0.6404467E-05 Eh
 * total energy  :   -80.2303307 Eh     change       -0.7071521E-05 Eh
 * total energy  :   -80.2303339 Eh     change       -0.3261322E-05 Eh
   *** GEOMETRY OPTIMIZATION CONVERGED AFTER 72 ITERATIONS ***

 final structure:
================
47
 xtb: 6.5.1 (579679a)
C           -2.99321472831514       -0.82338385936122       -2.04688399471466
N           -2.25330492402994       -0.94097193608705       -0.78836991485866
C           -1.61225846100255       -2.12766861125878       -0.61002673428872
O           -1.60712011890063       -3.00158991572476       -1.48687245017987
C           -0.89216652269224       -2.29036983996912        0.72883385113205
C           -0.04112943403963       -3.56208100724698        0.70263921752255
O           -1.94148226674942       -2.44545426146784        1.71995537276869
C           -0.13730606453439       -1.00122037204962        0.95263517797758
C            1.14845117330122       -0.90746337579922        1.52339694667597
O            1.92199502108198       -1.85630531717140        1.78387960882914
N            1.55237115520979        0.41184719233612        1.84959834354435
C            2.98603828953503        0.65835644924790        1.92400109845151
C            3.60124844845914        0.68633307490449        0.53997146811856
C            4.08176756009926       -0.48504168171429       -0.04374079877831
C            4.61012157745923       -0.47361246525062       -1.32698043085895
C            4.64101415849985        0.72757608712213       -2.01178482085734
F            5.15420509464875        0.74958113317702       -3.25842469240410
C            4.17070160222882        1.90859622859216       -1.46879718685502
C            3.64861614836638        1.87701745525824       -0.18242495067102
N           -0.83559562646387        0.15963287916565        0.72600056063333
C           -1.88654816521571        0.19439155535553       -0.01835622801198
C           -2.74545782124931        1.44888810049013       -0.01765585136155
C           -4.19223869570398        1.09675526590433        0.35910294614788
C           -2.18268592576455        2.43805262453936        1.01648121910522
N           -2.75178532974269        2.09287765948689       -1.34087469488965
H           -2.39696093844017       -1.25067359697539       -2.85851524530589
H           -3.93255219594627       -1.37708673705733       -1.97598544533551
H           -3.20178146987527        0.21892526131676       -2.27182044001390
H           -0.66602124371929       -4.40737821705822        0.41124106174862
H            0.37696946509982       -3.75715038667540        1.68754966843790
H            0.77208099546030       -3.45742249560726       -0.01347928949078
H           -1.55760865136399       -2.37034514621568        2.60017204934108
H            1.05918970449679        1.12363495079239        1.31941778057506
H            3.44311231777328       -0.13230067885057        2.52865397881794
H            3.14145543108422        1.61868715185686        2.42466294034047
H            4.04163444791587       -1.41607632508921        0.51204408298956
H            4.99432207141084       -1.37417663486969       -1.78893457584514
H            4.21639179911451        2.82837190293327       -2.03658495239176
H            3.28014129251170        2.79430733717282        0.26238928915726
H           -4.78262472909594        2.00662675167492        0.46234916278948
H           -4.65406808446683        0.47229835737465       -0.40427010564139
H           -4.20865664129926        0.56111665933254        1.30840084269906
H           -2.76325751512654        3.35929780661348        0.99949762065592
H           -1.14443353628020        2.67190499938236        0.78370453444116
H           -2.22537204837673        2.00905105480161        2.01746065351838
H           -3.40099293235026        2.86633834935300       -1.32294149419942
H           -1.83520168301894        2.47730557330932       -1.52833017945925

          :  Hamiltonian                  GFN1-xTB          :
         :: total energy             -80.230333934570 Eh    ::
         :: gradient norm              0.000466902813 Eh/a0 ::
         :: HOMO-LUMO gap              1.714398580205 eV    ::
         :: SCC energy               -81.086696354533 Eh    ::
         :: -> Gsolv                  -0.107843941496 Eh    ::
         :: repulsion energy           0.887821274922 Eh    ::

    * Orbital Energies and Occupations

         #    Occupation            Energy/Eh            Energy/eV
      -------------------------------------------------------------
         1        2.0000           -0.8522450             -23.1908
       ...           ...                  ...                  ...
        56        2.0000           -0.4580175             -12.4633
        57        2.0000           -0.4570473             -12.4369
        58        2.0000           -0.4537242             -12.3465
        59        2.0000           -0.4403395             -11.9822
        60        2.0000           -0.4368072             -11.8861
        61        2.0000           -0.4231286             -11.5139
        62        2.0000           -0.4125506             -11.2261
        63        2.0000           -0.4059804             -11.0473
        64        2.0000           -0.3996139             -10.8740
        65        2.0000           -0.3919302             -10.6650
        66        2.0000           -0.3871036             -10.5336
        67        2.0000           -0.3743330             -10.1861
        68        2.0000           -0.3218593              -8.7582 (HOMO)
        69                         -0.2588563              -7.0438 (LUMO)
        70                         -0.2509340              -6.8283
        71                         -0.2361855              -6.4269
        72                         -0.1961072              -5.3363
        73                         -0.1423439              -3.8734
        74                         -0.1299668              -3.5366
        75                         -0.1170718              -3.1857
        76                         -0.1075016              -2.9253
        77                         -0.1033015              -2.8110
        78                         -0.0991220              -2.6972
        79                         -0.0906244              -2.4660
       ...                                ...                  ...
       144                          0.6817061              18.5502
      -------------------------------------------------------------
                  HL-Gap            0.0630030 Eh            1.7144 eV

Wiberg/Mayer (AO) data.
largest (>0.10) Wiberg bond orders for each atom

     #   Z sym  total        # sym  WBO       # sym  WBO       # sym  WBO
 ---------------------------------------------------------------------------
     1   6 C    3.952 --    27 H    0.985    26 H    0.980    28 H    0.974
                             2 N    0.944
     2   7 N    3.424 --     3 C    1.228    21 C    0.998     1 C    0.944
                             4 O    0.138
     3   6 C    3.896 --     4 O    1.531     2 N    1.228     5 C    0.938
     4   8 O    1.842 --     3 C    1.531     2 N    0.138
     5   6 C    3.905 --     6 C    0.995     8 C    0.973     3 C    0.938
                             7 O    0.898
     6   6 C    3.997 --     5 C    0.995    29 H    0.986    31 H    0.985
                            30 H    0.984
     7   8 O    1.867 --     5 C    0.898    32 H    0.872
     8   6 C    3.862 --     9 C    1.291    20 N    1.191     5 C    0.973
                            21 C    0.103
     9   6 C    3.913 --    10 O    1.442     8 C    1.291    11 N    1.046
    10   8 O    1.798 --     9 C    1.442
    11   7 N    3.153 --     9 C    1.046    12 C    0.964    33 H    0.925
    12   6 C    3.972 --    13 C    0.994    35 H    0.978    34 H    0.973
                            11 N    0.964
    13   6 C    3.986 --    19 C    1.418    14 C    1.413    12 C    0.994
    14   6 C    3.992 --    15 C    1.445    13 C    1.413    36 H    0.968
                            18 C    0.111
    15   6 C    3.992 --    14 C    1.445    16 C    1.401    37 H    0.971
                            19 C    0.109
    16   6 C    3.856 --    18 C    1.404    15 C    1.401    17 F    0.913
    17   9 F    1.038 --    16 C    0.913
    18   6 C    3.992 --    19 C    1.440    16 C    1.404    38 H    0.971
                            14 C    0.111
    19   6 C    3.994 --    18 C    1.440    13 C    1.418    39 H    0.972
                            15 C    0.109
    20   7 N    3.083 --    21 C    1.613     8 C    1.191
    21   6 C    3.907 --    20 N    1.613     2 N    0.998    22 C    0.981
                             8 C    0.103
    22   6 C    3.964 --    24 C    0.993    23 C    0.991    21 C    0.981
                            25 N    0.967
    23   6 C    3.993 --    22 C    0.991    42 H    0.986    40 H    0.985
                            41 H    0.984
    24   6 C    3.996 --    22 C    0.993    43 H    0.987    45 H    0.985
                            44 H    0.983
    25   7 N    2.991 --    22 C    0.967    46 H    0.948    47 H    0.946
    26   1 H    1.016 --     1 C    0.980
    27   1 H    1.012 --     1 C    0.985
    28   1 H    1.034 --     1 C    0.974
    29   1 H    1.018 --     6 C    0.986
    30   1 H    1.026 --     6 C    0.984
    31   1 H    1.019 --     6 C    0.985
    32   1 H    0.898 --     7 O    0.872
    33   1 H    0.991 --    11 N    0.925
    34   1 H    1.022 --    12 C    0.973
    35   1 H    1.011 --    12 C    0.978
    36   1 H    1.019 --    14 C    0.968
    37   1 H    1.000 --    15 C    0.971
    38   1 H    1.000 --    18 C    0.971
    39   1 H    1.001 --    19 C    0.972
    40   1 H    1.003 --    23 C    0.985
    41   1 H    1.007 --    23 C    0.984
    42   1 H    1.007 --    23 C    0.986
    43   1 H    1.006 --    24 C    0.987
    44   1 H    1.019 --    24 C    0.983
    45   1 H    1.013 --    24 C    0.985
    46   1 H    0.963 --    25 N    0.948
    47   1 H    0.965 --    25 N    0.946
 ---------------------------------------------------------------------------

           -------------------------------------------------
          | TOTAL ENERGY              -80.230333934570 Eh   |
          | GRADIENT NORM               0.000466902813 Eh/α |
          | HOMO-LUMO GAP               1.714398580205 eV   |
           -------------------------------------------------

 * finished run on 2023/06/20 at 15:10:30.834
