                         Program Version 5.0.1 -  RELEASE  -
|  1> # ORCA input file
|  2> ! SP r2SCAN-3c CPCM
|  3>
|  4> %maxcore 1875.0
|  5> %pal nprocs 4 end
|  6> %cpcm smd true SMDsolvent "DMSO" end
|  7>
|  8> *xyz 1 1
|  9> C      -2.370242   -0.001272   -0.105065
| 10> C      -1.063809   -0.666297   -0.011824
| 11> N      -0.797249   -1.917937    0.058687
| 12> N       0.550138   -2.083955    0.122729
| 13> C       1.114136   -0.933963    0.093141
| 14> C       2.552729   -0.573221    0.119295
| 15> O       2.931385    0.560407    0.094440
| 16> Cl      3.579141   -1.925987    0.180585
| 17> O       0.128597    0.059005    0.006038
| 18> C       0.336094    1.510141   -0.036588
| 19> H      -2.420993    0.615561   -1.002913
| 20> H      -2.532095    0.643807    0.759596
| 21> H      -3.147125   -0.763445   -0.140891
| 22> H      -0.648953    1.961366   -0.086494
| 23> H       0.862426    1.788771    0.873331
| 24> H       0.925821    1.727020   -0.924067
| 25> **                         ****END OF INPUT****

CARTESIAN COORDINATES (ANGSTROEM)
---------------------------------
  C     -2.370242   -0.001272   -0.105065
  C     -1.063809   -0.666297   -0.011824
  N     -0.797249   -1.917937    0.058687
  N      0.550138   -2.083955    0.122729
  C      1.114136   -0.933963    0.093141
  C      2.552729   -0.573221    0.119295
  O      2.931385    0.560407    0.094440
  Cl     3.579141   -1.925987    0.180585
  O      0.128597    0.059005    0.006038
  C      0.336094    1.510141   -0.036588
  H     -2.420993    0.615561   -1.002913
  H     -2.532095    0.643807    0.759596
  H     -3.147125   -0.763445   -0.140891
  H     -0.648953    1.961366   -0.086494
  H      0.862426    1.788771    0.873331
  H      0.925821    1.727020   -0.924067

 Total Charge           Charge          ....    1
 Multiplicity           Mult            ....    1
 Number of Electrons    NEL             ....   82
 Basis Dimension        Dim             ....  248

ORBITAL ENERGIES
----------------

  NO   OCC          E(Eh)            E(eV)
   0   2.0000    -101.271845     -2755.7470
   1   2.0000     -19.197126      -522.3803
   2   2.0000     -19.020496      -517.5740
   3   2.0000     -14.269409      -388.2904
   4   2.0000     -14.253057      -387.8454
   5   2.0000     -10.239899      -278.6418
   6   2.0000     -10.217578      -278.0344
   7   2.0000     -10.215744      -277.9845
   8   2.0000     -10.145537      -276.0741
   9   2.0000     -10.073967      -274.1266
  10   2.0000      -9.428375      -256.5591
  11   2.0000      -7.175021      -195.2422
  12   2.0000      -7.165226      -194.9757
  13   2.0000      -7.163005      -194.9153
  14   2.0000      -1.246350       -33.9149
  15   2.0000      -1.101202       -29.9652
  16   2.0000      -1.059469       -28.8296
  17   2.0000      -0.906951       -24.6794
  18   2.0000      -0.872663       -23.7464
  19   2.0000      -0.799451       -21.7542
  20   2.0000      -0.758921       -20.6513
  21   2.0000      -0.735534       -20.0149
  22   2.0000      -0.663287       -18.0490
  23   2.0000      -0.622271       -16.9329
  24   2.0000      -0.581070       -15.8117
  25   2.0000      -0.571839       -15.5605
  26   2.0000      -0.529046       -14.3961
  27   2.0000      -0.482082       -13.1181
  28   2.0000      -0.468882       -12.7589
  29   2.0000      -0.467533       -12.7222
  30   2.0000      -0.454854       -12.3772
  31   2.0000      -0.437390       -11.9020
  32   2.0000      -0.418178       -11.3792
  33   2.0000      -0.410201       -11.1621
  34   2.0000      -0.387438       -10.5427
  35   2.0000      -0.378394       -10.2966
  36   2.0000      -0.344618        -9.3775
  37   2.0000      -0.343359        -9.3433
  38   2.0000      -0.320139        -8.7114
  39   2.0000      -0.312478        -8.5030
  40   2.0000      -0.309305        -8.4166
  41   0.0000      -0.165675        -4.5082
  42   0.0000      -0.077798        -2.1170
  43   0.0000      -0.042950        -1.1687
  44   0.0000      -0.025418        -0.6917
  45   0.0000      -0.008815        -0.2399

MULLIKEN ATOMIC CHARGES
-----------------------
   0 C :   -0.663723
   1 C :    0.453078
   2 N :   -0.175414
   3 N :   -0.082587
   4 C :    0.321766
   5 C :    0.149346
   6 O :   -0.291755
   7 Cl:    0.009550
   8 O :    0.107447
   9 C :   -0.236599
  10 H :    0.236288
  11 H :    0.239876
  12 H :    0.231677
  13 H :    0.232819
  14 H :    0.234345
  15 H :    0.233887
Sum of atomic charges:    1.0000000

LOEWDIN ATOMIC CHARGES
----------------------
   0 C :   -0.293710
   1 C :    0.461624
   2 N :   -0.269672
   3 N :   -0.264894
   4 C :    0.425326
   5 C :    0.166204
   6 O :   -0.383415
   7 Cl:    0.307530
   8 O :   -0.544290
   9 C :    0.086600
  10 H :    0.211376
  11 H :    0.212647
  12 H :    0.212990
  13 H :    0.224537
  14 H :    0.223824
  15 H :    0.223322

  Mayer bond orders larger than 0.100000
B(  0-C ,  1-C ) :   0.8602 B(  0-C , 10-H ) :   0.9220 B(  0-C , 11-H ) :   0.9190
B(  0-C , 12-H ) :   0.9375 B(  1-C ,  2-N ) :   1.6435 B(  1-C ,  8-O ) :   0.9418
B(  2-N ,  3-N ) :   1.1329 B(  3-N ,  4-C ) :   1.7060 B(  4-C ,  5-C ) :   0.9293
B(  4-C ,  8-O ) :   0.9616 B(  5-C ,  6-O ) :   1.9192 B(  5-C ,  7-Cl) :   1.1062
B(  6-O ,  7-Cl) :   0.1042 B(  8-O ,  9-C ) :   0.7897 B(  9-C , 13-H ) :   0.9111
B(  9-C , 14-H ) :   0.9113 B(  9-C , 15-H ) :   0.9112

Dispersion correction           -0.005545108
FINAL SINGLE POINT ENERGY      -913.898031799234

DIPOLE MOMENT
-------------
                                X             Y             Z
Electronic contribution:     12.84902      -8.17629       0.77848
Nuclear contribution   :    -15.90292      11.29335      -1.01658
                        -----------------------------------------
Total Dipole Moment    :     -3.05390       3.11706      -0.23811
                        -----------------------------------------
Magnitude (a.u.)       :      4.37025
Magnitude (Debye)      :     11.10829

Rotational constants in cm-1:     0.083406     0.025899     0.019914
Rotational constants in MHz :  2500.444953   776.425030   596.996098

                             ****ORCA TERMINATED NORMALLY****
TOTAL RUN TIME: 0 days 0 hours 0 minutes 24 seconds 406 msec
