   * xtb version 6.5.1 (579679a) compiled by 'ehlert@majestix' on 2022-07-11
          program call               : /lustre/hpc/kemi/ree/PhD/git/ReactivityQM/dep/xtb-6.5.1/bin/xtb --gfn 1 /lustre/hpc/kemi/ree/PhD/git/ReactivityQM/calculations/RaltegravirCLI/reac01prodN01/conf08/RaltegravirCLI_reac01prodN01_conf08_gfn1.xyz --opt --vfukui --chrg 1 --uhf 0 --alpb DMSO

   ID    Z sym.   atoms
    1    6 C      1, 2, 5, 6, 10
    2    7 N      3, 4
    3    8 O      7, 9
    4   17 Cl     8
    5    1 H      11-16

      * Solvation model:               ALPB
        Solvent                        DMSO
        Solvent mass                       7.8130E+01 g/mol
          :  Hamiltonian                  GFN1-xTB          :
 * total energy  :   -33.3494516 Eh     change       -0.6345147E-11 Eh
 * total energy  :   -33.3635438 Eh     change       -0.1409222E-01 Eh
 * total energy  :   -33.3696063 Eh     change       -0.6062490E-02 Eh
 * total energy  :   -33.3712715 Eh     change       -0.1665199E-02 Eh
 * total energy  :   -33.3722384 Eh     change       -0.9668469E-03 Eh
 * total energy  :   -33.3727230 Eh     change       -0.4846775E-03 Eh
 * total energy  :   -33.3730268 Eh     change       -0.3037256E-03 Eh
 * total energy  :   -33.3732455 Eh     change       -0.2187091E-03 Eh
 * total energy  :   -33.3733884 Eh     change       -0.1429488E-03 Eh
 * total energy  :   -33.3734872 Eh     change       -0.9879013E-04 Eh
 * total energy  :   -33.3744657 Eh     change       -0.1278131E-03 Eh
 * total energy  :   -33.3744929 Eh     change       -0.2726604E-04 Eh
 * total energy  :   -33.3745149 Eh     change       -0.2190646E-04 Eh
 * total energy  :   -33.3745433 Eh     change       -0.2840346E-04 Eh
 * total energy  :   -33.3745557 Eh     change       -0.1246481E-04 Eh
 * total energy  :   -33.3745646 Eh     change       -0.8829870E-05 Eh
 * total energy  :   -33.3745698 Eh     change       -0.5206184E-05 Eh
 * total energy  :   -33.3745734 Eh     change       -0.3616165E-05 Eh
 * total energy  :   -33.3745770 Eh     change       -0.3653942E-05 Eh
   *** GEOMETRY OPTIMIZATION CONVERGED AFTER 34 ITERATIONS ***

 final structure:
================
16
 xtb: 6.5.1 (579679a)
C           -2.37024182240771       -0.00127168735336       -0.10506492635497
C           -1.06380858430206       -0.66629683323772       -0.01182421903736
N           -0.79724892662214       -1.91793739159596        0.05868741577310
N            0.55013777598477       -2.08395541985128        0.12272906562445
C            1.11413596004513       -0.93396346171295        0.09314131130353
C            2.55272858202260       -0.57322126709203        0.11929462549101
O            2.93138514687363        0.56040714272695        0.09444037028084
Cl           3.57914055730528       -1.92598721924406        0.18058518313528
O            0.12859699686435        0.05900475446623        0.00603792369509
C            0.33609382923661        1.51014115962978       -0.03658832338327
H           -2.42099258318883        0.61556119154494       -1.00291275065523
H           -2.53209477486738        0.64380715783776        0.75959566638202
H           -3.14712545512915       -0.76344514214776       -0.14089059140134
H           -0.64895342030820        1.96136622979375       -0.08649426267007
H            0.86242611045645        1.78877126470313        0.87333072336858
H            0.92582060803691        1.72701952153244       -0.92406721155201

          :  Hamiltonian                  GFN1-xTB          :
         :: total energy             -33.374577030737 Eh    ::
         :: gradient norm              0.000581232138 Eh/a0 ::
         :: HOMO-LUMO gap              3.146045896392 eV    ::
         :: SCC energy               -33.663996530665 Eh    ::
         :: -> Gsolv                  -0.092322737334 Eh    ::
         :: repulsion energy           0.297236919705 Eh    ::

    * Orbital Energies and Occupations

         #    Occupation            Energy/Eh            Energy/eV
      -------------------------------------------------------------
         1        2.0000           -0.9859641             -26.8294
       ...           ...                  ...                  ...
        15        2.0000           -0.6278819             -17.0855
        16        2.0000           -0.6100765             -16.6010
        17        2.0000           -0.6091359             -16.5754
        18        2.0000           -0.5954197             -16.2022
        19        2.0000           -0.5887020             -16.0194
        20        2.0000           -0.5742623             -15.6265
        21        2.0000           -0.5664076             -15.4127
        22        2.0000           -0.5528641             -15.0442
        23        2.0000           -0.5291255             -14.3982
        24        2.0000           -0.5273145             -14.3490
        25        2.0000           -0.5182563             -14.1025
        26        2.0000           -0.5180785             -14.0976
        27        2.0000           -0.5092955             -13.8586 (HOMO)
        28                         -0.3936804             -10.7126 (LUMO)
        29                         -0.3273538              -8.9077
        30                         -0.2837403              -7.7210
        31                         -0.2440136              -6.6399
        32                         -0.1955827              -5.3221
        33                         -0.1793975              -4.8817
        34                         -0.1317845              -3.5860
        35                         -0.1220692              -3.3217
        36                         -0.1194311              -3.2499
        37                         -0.1116353              -3.0378
        38                         -0.1110705              -3.0224
       ...                                ...                  ...
        57                          0.7015975              19.0914
      -------------------------------------------------------------
                  HL-Gap            0.1156151 Eh            3.1460 eV

Wiberg/Mayer (AO) data.
largest (>0.10) Wiberg bond orders for each atom

     #   Z sym  total        # sym  WBO       # sym  WBO       # sym  WBO
 ---------------------------------------------------------------------------
     1   6 C    3.965 --     2 C    1.047    13 H    0.968    11 H    0.947
                            12 H    0.945
     2   6 C    3.800 --     3 N    1.668     1 C    1.047     9 O    0.888
     3   7 N    3.024 --     2 C    1.668     4 N    1.171
     4   7 N    3.041 --     5 C    1.686     3 N    1.171
     5   6 C    3.814 --     4 N    1.686     6 C    1.005     9 O    0.879
     6   6 C    3.905 --     7 O    1.759     8 Cl   1.095     5 C    1.005
     7   8 O    2.057 --     6 C    1.759     8 Cl   0.169
     8  17 Cl   1.329 --     6 C    1.095     7 O    0.169
     9   8 O    2.657 --     2 C    0.888     5 C    0.879    10 C    0.740
    10   6 C    3.714 --    14 H    0.973    15 H    0.966    16 H    0.966
                             9 O    0.740
    11   1 H    0.986 --     1 C    0.947
    12   1 H    0.985 --     1 C    0.945
    13   1 H    0.987 --     1 C    0.968
    14   1 H    0.988 --    10 C    0.973
    15   1 H    0.994 --    10 C    0.966
    16   1 H    0.994 --    10 C    0.966
 ---------------------------------------------------------------------------

           -------------------------------------------------
          | TOTAL ENERGY              -33.374577030737 Eh   |
          | GRADIENT NORM               0.000581232138 Eh/α |
          | HOMO-LUMO GAP               3.146045896392 eV   |
           -------------------------------------------------

 * finished run on 2023/06/20 at 14:54:03.924
