                         Program Version 5.0.1 -  RELEASE  -
|  1> # ORCA input file
|  2> ! SP r2SCAN-3c CPCM
|  3>
|  4> %maxcore 1875.0
|  5> %pal nprocs 4 end
|  6> %cpcm smd true SMDsolvent "DMSO" end
|  7>
|  8> *xyz -2 1
|  9> C      -5.742680   -1.201681   -0.574806
| 10> O      -4.383728   -0.932481   -0.333231
| 11> C      -4.099717    0.242163    0.515867
| 12> C      -4.295871    1.510669   -0.355425
| 13> O      -4.916327    0.277064    1.608999
| 14> C      -2.624005    0.105760    0.909040
| 15> N      -1.691345    0.354560   -0.060978
| 16> C      -0.434509    0.216799    0.297639
| 17> C       0.607338    0.490953   -0.790043
| 18> C       0.304445   -0.366554   -2.024995
| 19> C       0.592127    1.982172   -1.153531
| 20> N       1.904505    0.126912   -0.225016
| 21> C       3.072294    0.163849   -0.858227
| 22> O       3.262724    0.526689   -2.014547
| 23> C       4.179819   -0.318422    0.024500
| 24> N       4.062492   -0.725283    1.251093
| 25> N       5.310490   -1.094002    1.666921
| 26> C       6.106319   -0.889597    0.665509
| 27> C       7.563835   -1.137898    0.606481
| 28> O       5.456304   -0.400408   -0.402006
| 29> N       0.032179   -0.130791    1.496398
| 30> C      -0.845267   -0.378192    2.519899
| 31> O      -0.420804   -0.703190    3.656777
| 32> C      -2.276629   -0.248508    2.196070
| 33> O      -3.202755   -0.466178    3.123633
| 34> H      -6.353359   -1.078924    0.331437
| 35> H      -6.161567   -0.557207   -1.363310
| 36> H      -5.823569   -2.241197   -0.908183
| 37> H      -3.658084    1.459344   -1.236858
| 38> H      -4.029391    2.386322    0.234894
| 39> H      -5.336889    1.597483   -0.660830
| 40> H      -0.725087   -0.181051   -2.332125
| 41> H       0.972757   -0.119239   -2.848393
| 42> H       0.415797   -1.423866   -1.783826
| 43> H       1.292986    2.193044   -1.960227
| 44> H      -0.413170    2.255257   -1.473625
| 45> H       0.861786    2.582706   -0.284925
| 46> H       1.851530   -0.166276    0.758393
| 47> H       7.912262   -1.498073    1.570923
| 48> H       8.090375   -0.220070    0.347652
| 49> H       7.785641   -1.880586   -0.159454
| 50> H      -4.203254   -0.112073    2.464000
| 51> **                         ****END OF INPUT****

CARTESIAN COORDINATES (ANGSTROEM)
---------------------------------
  C     -5.742680   -1.201681   -0.574806
  O     -4.383728   -0.932481   -0.333231
  C     -4.099717    0.242163    0.515867
  C     -4.295871    1.510669   -0.355425
  O     -4.916327    0.277064    1.608999
  C     -2.624005    0.105760    0.909040
  N     -1.691345    0.354560   -0.060978
  C     -0.434509    0.216799    0.297639
  C      0.607338    0.490953   -0.790043
  C      0.304445   -0.366554   -2.024995
  C      0.592127    1.982172   -1.153531
  N      1.904505    0.126912   -0.225016
  C      3.072294    0.163849   -0.858227
  O      3.262724    0.526689   -2.014547
  C      4.179819   -0.318422    0.024500
  N      4.062492   -0.725283    1.251093
  N      5.310490   -1.094002    1.666921
  C      6.106319   -0.889597    0.665509
  C      7.563835   -1.137898    0.606481
  O      5.456304   -0.400408   -0.402006
  N      0.032179   -0.130791    1.496398
  C     -0.845267   -0.378192    2.519899
  O     -0.420804   -0.703190    3.656777
  C     -2.276629   -0.248508    2.196070
  O     -3.202755   -0.466178    3.123633
  H     -6.353359   -1.078924    0.331437
  H     -6.161567   -0.557207   -1.363310
  H     -5.823569   -2.241197   -0.908183
  H     -3.658084    1.459344   -1.236858
  H     -4.029391    2.386322    0.234894
  H     -5.336889    1.597483   -0.660830
  H     -0.725087   -0.181051   -2.332125
  H      0.972757   -0.119239   -2.848393
  H      0.415797   -1.423866   -1.783826
  H      1.292986    2.193044   -1.960227
  H     -0.413170    2.255257   -1.473625
  H      0.861786    2.582706   -0.284925
  H      1.851530   -0.166276    0.758393
  H      7.912262   -1.498073    1.570923
  H      8.090375   -0.220070    0.347652
  H      7.785641   -1.880586   -0.159454
  H     -4.203254   -0.112073    2.464000

 Total Charge           Charge          ....   -2
 Multiplicity           Mult            ....    1
 Number of Electrons    NEL             ....  186
 Basis Dimension        Dim             ....  615

ORBITAL ENERGIES
----------------

  NO   OCC          E(Eh)            E(eV)
   0   2.0000     -19.055337      -518.5221
   1   2.0000     -18.915582      -514.7191
   2   2.0000     -18.911536      -514.6091
   3   2.0000     -18.872303      -513.5415
   4   2.0000     -18.865398      -513.3536
   5   2.0000     -18.856092      -513.1004
   6   2.0000     -14.195925      -386.2907
   7   2.0000     -14.189983      -386.1291
   8   2.0000     -14.171767      -385.6334
   9   2.0000     -14.105665      -383.8347
  10   2.0000     -14.104687      -383.8081
  11   2.0000     -10.138441      -275.8810
  12   2.0000     -10.138316      -275.8776
  13   2.0000     -10.133650      -275.7506
  14   2.0000     -10.090614      -274.5796
  15   2.0000     -10.069124      -273.9948
  16   2.0000     -10.064162      -273.8598
  17   2.0000     -10.051276      -273.5091
  18   2.0000     -10.041046      -273.2308
  19   2.0000     -10.040270      -273.2096
  20   2.0000     -10.034334      -273.0481
  21   2.0000     -10.011695      -272.4321
  22   2.0000     -10.006046      -272.2784
  23   2.0000     -10.003694      -272.2143
  24   2.0000      -9.988829      -271.8099
  25   2.0000      -1.145274       -31.1645
  26   2.0000      -1.002235       -27.2722
  27   2.0000      -0.969685       -26.3865
  28   2.0000      -0.966232       -26.2925
  29   2.0000      -0.939027       -25.5522
  30   2.0000      -0.915993       -24.9254
  31   2.0000      -0.899942       -24.4887
  32   2.0000      -0.878936       -23.9171
  33   2.0000      -0.874264       -23.7899
  34   2.0000      -0.822569       -22.3832
  35   2.0000      -0.786713       -21.4075
  36   2.0000      -0.747698       -20.3459
  37   2.0000      -0.705494       -19.1975
  38   2.0000      -0.683454       -18.5977
  39   2.0000      -0.652485       -17.7550
  40   2.0000      -0.651071       -17.7165
  41   2.0000      -0.642959       -17.4958
  42   2.0000      -0.620165       -16.8755
  43   2.0000      -0.608993       -16.5715
  44   2.0000      -0.579459       -15.7679
  45   2.0000      -0.559537       -15.2258
  46   2.0000      -0.546647       -14.8750
  47   2.0000      -0.514410       -13.9978
  48   2.0000      -0.500604       -13.6221
  49   2.0000      -0.494514       -13.4564
  50   2.0000      -0.485300       -13.2057
  51   2.0000      -0.465334       -12.6624
  52   2.0000      -0.450447       -12.2573
  53   2.0000      -0.426878       -11.6160
  54   2.0000      -0.421973       -11.4825
  55   2.0000      -0.410572       -11.1722
  56   2.0000      -0.408327       -11.1111
  57   2.0000      -0.397464       -10.8155
  58   2.0000      -0.394887       -10.7454
  59   2.0000      -0.390148       -10.6165
  60   2.0000      -0.387473       -10.5437
  61   2.0000      -0.382127       -10.3982
  62   2.0000      -0.376315       -10.2401
  63   2.0000      -0.374584       -10.1929
  64   2.0000      -0.368325       -10.0226
  65   2.0000      -0.357932        -9.7398
  66   2.0000      -0.350073        -9.5260
  67   2.0000      -0.343052        -9.3349
  68   2.0000      -0.336857        -9.1663
  69   2.0000      -0.335792        -9.1374
  70   2.0000      -0.335294        -9.1238
  71   2.0000      -0.332494        -9.0476
  72   2.0000      -0.326811        -8.8930
  73   2.0000      -0.311960        -8.4889
  74   2.0000      -0.310070        -8.4374
  75   2.0000      -0.307774        -8.3750
  76   2.0000      -0.305667        -8.3176
  77   2.0000      -0.280989        -7.6461
  78   2.0000      -0.278345        -7.5742
  79   2.0000      -0.274932        -7.4813
  80   2.0000      -0.261572        -7.1177
  81   2.0000      -0.256104        -6.9689
  82   2.0000      -0.253039        -6.8856
  83   2.0000      -0.240637        -6.5481
  84   2.0000      -0.227235        -6.1834
  85   2.0000      -0.223822        -6.0905
  86   2.0000      -0.204847        -5.5742
  87   2.0000      -0.199821        -5.4374
  88   2.0000      -0.193161        -5.2562
  89   2.0000      -0.186598        -5.0776
  90   2.0000      -0.172410        -4.6915
  91   2.0000      -0.147810        -4.0221
  92   2.0000      -0.127124        -3.4592
  93   0.0000      -0.072066        -1.9610
  94   0.0000      -0.012797        -0.3482
  95   0.0000       0.007724         0.2102
  96   0.0000       0.020460         0.5567
  97   0.0000       0.061383         1.6703

MULLIKEN ATOMIC CHARGES
-----------------------
   0 C :   -0.381416
   1 O :   -0.206940
   2 C :   -0.029759
   3 C :   -0.617907
   4 O :   -0.535276
   5 C :    0.022643
   6 N :   -0.267738
   7 C :    0.449113
   8 C :   -0.155156
   9 C :   -0.649058
  10 C :   -0.652432
  11 N :    0.055892
  12 C :   -0.142469
  13 O :   -0.463143
  14 C :    0.372502
  15 N :   -0.151020
  16 N :   -0.318508
  17 C :    0.407935
  18 C :   -0.642849
  19 O :   -0.032444
  20 N :   -0.238741
  21 C :   -0.216478
  22 O :   -0.416027
  23 C :   -0.046583
  24 O :   -0.500348
  25 H :    0.161810
  26 H :    0.130526
  27 H :    0.143960
  28 H :    0.167619
  29 H :    0.164616
  30 H :    0.156376
  31 H :    0.183462
  32 H :    0.186056
  33 H :    0.172721
  34 H :    0.184591
  35 H :    0.180219
  36 H :    0.177044
  37 H :    0.312758
  38 H :    0.202910
  39 H :    0.197571
  40 H :    0.199388
  41 H :    0.434580
Sum of atomic charges:   -2.0000000

LOEWDIN ATOMIC CHARGES
----------------------
   0 C :   -0.097117
   1 O :   -0.730036
   2 C :    0.289387
   3 C :   -0.377323
   4 O :   -0.675418
   5 C :    0.153150
   6 N :   -0.664936
   7 C :    0.276430
   8 C :    0.104659
   9 C :   -0.360368
  10 C :   -0.358555
  11 N :   -0.599829
  12 C :    0.371805
  13 O :   -0.480178
  14 C :    0.421341
  15 N :   -0.366693
  16 N :   -0.367831
  17 C :    0.370741
  18 C :   -0.319015
  19 O :   -0.366130
  20 N :   -0.628024
  21 C :    0.286103
  22 O :   -0.578522
  23 C :    0.193040
  24 O :   -0.673834
  25 H :    0.167296
  26 H :    0.146235
  27 H :    0.165968
  28 H :    0.164139
  29 H :    0.160253
  30 H :    0.157381
  31 H :    0.172063
  32 H :    0.168486
  33 H :    0.167399
  34 H :    0.168202
  35 H :    0.168377
  36 H :    0.167232
  37 H :    0.315528
  38 H :    0.189718
  39 H :    0.189551
  40 H :    0.190317
  41 H :    0.319012

  Mayer bond orders larger than 0.100000
B(  0-C ,  1-O ) :   0.9003 B(  0-C , 25-H ) :   0.9711 B(  0-C , 26-H ) :   0.9653
B(  0-C , 27-H ) :   0.9704 B(  1-O ,  2-C ) :   0.9051 B(  2-C ,  3-C ) :   0.8883
B(  2-C ,  4-O ) :   1.2758 B(  2-C ,  5-C ) :   0.9661 B(  3-C , 28-H ) :   0.9917
B(  3-C , 29-H ) :   0.9750 B(  3-C , 30-H ) :   0.9699 B(  4-O , 41-H ) :   0.4296
B(  5-C ,  6-N ) :   1.0830 B(  5-C , 20-N ) :   0.1024 B(  5-C , 23-C ) :   1.2798
B(  6-N ,  7-C ) :   1.4042 B(  7-C ,  8-C ) :   0.7499 B(  7-C , 11-N ) :  -0.1306
B(  7-C , 20-N ) :   1.3296 B(  8-C ,  9-C ) :   0.8966 B(  8-C , 10-C ) :   0.8975
B(  8-C , 11-N ) :   0.9461 B(  8-C , 20-N ) :   0.1362 B(  9-C , 31-H ) :   0.9665
B(  9-C , 32-H ) :   0.9707 B(  9-C , 33-H ) :   0.9783 B( 10-C , 34-H ) :   0.9665
B( 10-C , 35-H ) :   0.9705 B( 10-C , 36-H ) :   0.9780 B( 11-N , 12-C ) :   1.2122
B( 11-N , 37-H ) :   0.8085 B( 12-C , 13-O ) :   1.8977 B( 12-C , 14-C ) :   0.8538
B( 14-C , 15-N ) :   1.6903 B( 14-C , 19-O ) :   1.1263 B( 15-N , 16-N ) :   1.2064
B( 16-N , 17-C ) :   1.6262 B( 17-C , 18-C ) :   0.8313 B( 17-C , 19-O ) :   1.0721
B( 18-C , 38-H ) :   0.9904 B( 18-C , 39-H ) :   0.9456 B( 18-C , 40-H ) :   0.9422
B( 20-N , 21-C ) :   1.2149 B( 20-N , 22-O ) :  -0.1086 B( 21-C , 22-O ) :   2.1231
B( 21-C , 23-C ) :   0.9603 B( 23-C , 24-O ) :   1.3623 B( 24-O , 41-H ) :   0.3882

Dispersion correction           -0.018988217
FINAL SINGLE POINT ENERGY     -1268.889378910023

DIPOLE MOMENT
-------------
                                X             Y             Z
Electronic contribution:     18.69718      -4.25950      10.78676
Nuclear contribution   :    -10.96091       4.72822     -16.05092
                        -----------------------------------------
Total Dipole Moment    :      7.73628       0.46871      -5.26416
                        -----------------------------------------
Magnitude (a.u.)       :      9.36915
Magnitude (Debye)      :     23.81450

Rotational constants in cm-1:     0.017306     0.003222     0.002871
Rotational constants in MHz :   518.829866    96.594779    86.056296

                             ****ORCA TERMINATED NORMALLY****
TOTAL RUN TIME: 0 days 0 hours 2 minutes 3 seconds 923 msec
