   * xtb version 6.5.1 (579679a) compiled by 'ehlert@majestix' on 2022-07-11
          program call               : /lustre/hpc/kemi/ree/PhD/git/ReactivityQM/dep/xtb-6.5.1/bin/xtb --gfn 1 /lustre/hpc/kemi/ree/PhD/git/ReactivityQM/calculations/R02deprot/reac01prodE02/conf14/R02deprot_reac01prodE02_conf14_gfn1.xyz --opt --vfukui --chrg -2 --uhf 0 --alpb DMSO

   ID    Z sym.   atoms
    1    6 C      1, 3, 4, 6, 8-11, 13, 15, 18, 19, 22, 24
    2    8 O      2, 5, 14, 20, 23, 25
    3    7 N      7, 12, 16, 17, 21
    4    1 H      26-42

      * Solvation model:               ALPB
        Solvent                        DMSO
        Solvent mass                       7.8130E+01 g/mol
          :  Hamiltonian                  GFN1-xTB          :
 * total energy  :   -83.6127400 Eh     change       -0.1898144E-09 Eh
 * total energy  :   -83.6258655 Eh     change       -0.1312557E-01 Eh
 * total energy  :   -83.6315913 Eh     change       -0.5725737E-02 Eh
 * total energy  :   -83.6336437 Eh     change       -0.2052449E-02 Eh
 * total energy  :   -83.6355620 Eh     change       -0.1918249E-02 Eh
 * total energy  :   -83.6366626 Eh     change       -0.1100609E-02 Eh
 * total energy  :   -83.6375381 Eh     change       -0.8754898E-03 Eh
 * total energy  :   -83.6384563 Eh     change       -0.9182238E-03 Eh
 * total energy  :   -83.6393299 Eh     change       -0.8735987E-03 Eh
 * total energy  :   -83.6400123 Eh     change       -0.6823606E-03 Eh
 * total energy  :   -83.6424846 Eh     change       -0.7936511E-05 Eh
 * total energy  :   -83.6425035 Eh     change       -0.1896490E-04 Eh
 * total energy  :   -83.6425102 Eh     change       -0.6675604E-05 Eh
 * total energy  :   -83.6425296 Eh     change       -0.1939281E-04 Eh
 * total energy  :   -83.6425377 Eh     change       -0.8104253E-05 Eh
 * total energy  :   -83.6425450 Eh     change       -0.7286056E-05 Eh
 * total energy  :   -83.6425533 Eh     change       -0.8272029E-05 Eh
 * total energy  :   -83.6425597 Eh     change       -0.6444256E-05 Eh
 * total energy  :   -83.6425624 Eh     change       -0.2661403E-05 Eh
   *** GEOMETRY OPTIMIZATION CONVERGED AFTER 44 ITERATIONS ***

 final structure:
================
42
 xtb: 6.5.1 (579679a)
C           -5.74267954387939       -1.20168072274463       -0.57480554095711
O           -4.38372794473625       -0.93248078095060       -0.33323091165686
C           -4.09971693624644        0.24216259702075        0.51586658368457
C           -4.29587118939515        1.51066889115243       -0.35542527481089
O           -4.91632655851554        0.27706357195939        1.60899898660880
C           -2.62400459525009        0.10576021800439        0.90904044300696
N           -1.69134455394684        0.35455970720999       -0.06097763058421
C           -0.43450917005264        0.21679920006170        0.29763904437602
C            0.60733751614179        0.49095256538355       -0.79004290554735
C            0.30444501625514       -0.36655394385133       -2.02499499739599
C            0.59212710515059        1.98217158200217       -1.15353080853776
N            1.90450523847296        0.12691180002307       -0.22501647041220
C            3.07229370963510        0.16384851334246       -0.85822656951297
O            3.26272437575473        0.52668883579745       -2.01454734234720
C            4.17981922678707       -0.31842188463357        0.02450024228431
N            4.06249213307265       -0.72528268718770        1.25109252598937
N            5.31048980044372       -1.09400187103925        1.66692121321143
C            6.10631898358191       -0.88959692054133        0.66550926646549
C            7.56383540886661       -1.13789750693317        0.60648139300349
O            5.45630360683293       -0.40040806732257       -0.40200596742155
N            0.03217905570420       -0.13079121038208        1.49639764182114
C           -0.84526726562118       -0.37819205739475        2.51989901878737
O           -0.42080417330733       -0.70319036518187        3.65677652933229
C           -2.27662906696339       -0.24850777805434        2.19606957727037
O           -3.20275544571629       -0.46617829033807        3.12363340735895
H           -6.35335907151772       -1.07892407224925        0.33143703595061
H           -6.16156701130804       -0.55720743746125       -1.36331007574337
H           -5.82356903812657       -2.24119727396934       -0.90818258558623
H           -3.65808420630637        1.45934385418491       -1.23685837374522
H           -4.02939147128459        2.38632163568764        0.23489395127744
H           -5.33688939274748        1.59748307605749       -0.66082961717520
H           -0.72508706067484       -0.18105058423365       -2.33212549606752
H            0.97275722735679       -0.11923945423742       -2.84839296219649
H            0.41579743276443       -1.42386593333621       -1.78382628221962
H            1.29298556810245        2.19304447773162       -1.96022737085706
H           -0.41316983997403        2.25525748337158       -1.47362521551804
H            0.86178564608728        2.58270571997481       -0.28492456215843
H            1.85153003755116       -0.16627576086676        0.75839295497477
H            7.91226208560578       -1.49807267825464        1.57092277409938
H            8.09037504519467       -0.22007037769864        0.34765212296667
H            7.78564121670001       -1.88058590277257       -0.15945443868468
H           -4.20325390048761       -0.11207316733787        2.46399968667215

          :  Hamiltonian                  GFN1-xTB          :
         :: total energy             -83.642562382271 Eh    ::
         :: gradient norm              0.000349030425 Eh/a0 ::
         :: HOMO-LUMO gap              0.557229105456 eV    ::
         :: SCC energy               -84.360841627620 Eh    ::
         :: -> Gsolv                  -0.282708329616 Eh    ::
         :: repulsion energy           0.743835964572 Eh    ::

    * Orbital Energies and Occupations

         #    Occupation            Energy/Eh            Energy/eV
      -------------------------------------------------------------
         1        2.0000           -0.8510776             -23.1590
       ...           ...                  ...                  ...
        56        2.0000           -0.4425193             -12.0416
        57        2.0000           -0.4323460             -11.7647
        58        2.0000           -0.4319477             -11.7539
        59        2.0000           -0.4216782             -11.4744
        60        2.0000           -0.4163745             -11.3301
        61        2.0000           -0.4046709             -11.0117
        62        2.0000           -0.3948771             -10.7452
        63        2.0000           -0.3897924             -10.6068
        64        2.0000           -0.3707191             -10.0878
        65        2.0000           -0.3649731              -9.9314
        66        2.0000           -0.3603033              -9.8044
        67        2.0000           -0.3161652              -8.6033
        68        2.0000           -0.3101170              -8.4387 (HOMO)
        69        0.0000           -0.2896392              -7.8815 (LUMO)
        70                         -0.2459149              -6.6917
        71                         -0.1877337              -5.1085
        72                         -0.1844099              -5.0180
        73                         -0.1774590              -4.8289
        74                         -0.1386731              -3.7735
        75                         -0.1018602              -2.7718
        76                         -0.0994941              -2.7074
        77                         -0.0964996              -2.6259
        78                         -0.0826504              -2.2490
        79                         -0.0709507              -1.9307
       ...                                ...                  ...
       134                          0.7344904              19.9865
      -------------------------------------------------------------
                  HL-Gap            0.0204778 Eh            0.5572 eV

Wiberg/Mayer (AO) data.
largest (>0.10) Wiberg bond orders for each atom

     #   Z sym  total        # sym  WBO       # sym  WBO       # sym  WBO
 ---------------------------------------------------------------------------
     1   6 C    3.934 --    28 H    0.984    27 H    0.980    26 H    0.976
                             2 O    0.970
     2   8 O    1.961 --     1 C    0.970     3 C    0.841
     3   6 C    3.869 --     5 O    1.058     4 C    0.964     6 C    0.955
                             2 O    0.841
     4   6 C    3.994 --    30 H    0.988    29 H    0.988    31 H    0.986
                             3 C    0.964
     5   8 O    1.787 --     3 C    1.058    42 H    0.488
     6   6 C    3.951 --    24 C    1.470     7 N    1.220     3 C    0.955
                            25 O    0.107
     7   7 N    3.004 --     8 C    1.458     6 C    1.220
     8   6 C    3.959 --     7 N    1.458    21 N    1.354     9 C    0.959
     9   6 C    3.918 --    10 C    0.988    11 C    0.984     8 C    0.959
                            12 N    0.917
    10   6 C    3.995 --     9 C    0.988    34 H    0.987    33 H    0.985
                            32 H    0.984
    11   6 C    3.995 --    37 H    0.987    36 H    0.985    35 H    0.985
                             9 C    0.984
    12   7 N    3.404 --    13 C    1.325     9 C    0.917    38 H    0.861
                            14 O    0.192
    13   6 C    3.928 --    14 O    1.547    12 N    1.325    15 C    0.975
    14   8 O    1.868 --    13 C    1.547    12 N    0.192
    15   6 C    3.865 --    16 N    1.623    20 O    1.058    13 C    0.975
    16   7 N    3.007 --    15 C    1.623    17 N    1.187
    17   7 N    2.980 --    18 C    1.619    16 N    1.187
    18   6 C    3.876 --    17 N    1.619    20 O    1.079    19 C    1.029
    19   6 C    3.989 --    18 C    1.029    39 H    0.983    40 H    0.966
                            41 H    0.965
    20   8 O    2.321 --    18 C    1.079    15 C    1.058
    21   7 N    3.003 --     8 C    1.354    22 C    1.223    23 O    0.119
    22   6 C    3.921 --    23 O    1.450    21 N    1.223    24 C    1.080
    23   8 O    1.729 --    22 C    1.450    21 N    0.119
    24   6 C    3.945 --     6 C    1.470    25 O    1.177    22 C    1.080
    25   8 O    1.875 --    24 C    1.177    42 H    0.398     6 C    0.107
    26   1 H    1.029 --     1 C    0.976
    27   1 H    1.018 --     1 C    0.980
    28   1 H    1.024 --     1 C    0.984
    29   1 H    1.026 --     4 C    0.988
    30   1 H    1.017 --     4 C    0.988
    31   1 H    1.012 --     4 C    0.986
    32   1 H    1.023 --    10 C    0.984
    33   1 H    1.014 --    10 C    0.985
    34   1 H    1.008 --    10 C    0.987
    35   1 H    1.012 --    11 C    0.985
    36   1 H    1.016 --    11 C    0.985
    37   1 H    1.008 --    11 C    0.987
    38   1 H    0.994 --    12 N    0.861
    39   1 H    1.000 --    19 C    0.983
    40   1 H    0.998 --    19 C    0.966
    41   1 H    0.998 --    19 C    0.965
    42   1 H    0.902 --     5 O    0.488    25 O    0.398
 ---------------------------------------------------------------------------

           -------------------------------------------------
          | TOTAL ENERGY              -83.642562382271 Eh   |
          | GRADIENT NORM               0.000349030425 Eh/α |
          | HOMO-LUMO GAP               0.557229105456 eV   |
           -------------------------------------------------

 * finished run on 2023/06/20 at 17:34:38.695
