   * xtb version 6.5.1 (579679a) compiled by 'ehlert@majestix' on 2022-07-11
          program call               : /lustre/hpc/kemi/ree/PhD/git/ReactivityQM/dep/xtb-6.5.1/bin/xtb --gfn 1 /lustre/hpc/kemi/ree/PhD/git/ReactivityQM/calculations/R01/reac02prodN11/conf03/R01_reac02prodN11_conf03_gfn1.xyz --opt --vfukui --chrg 1 --uhf 0 --alpb DMSO

   ID    Z sym.   atoms
    1    6 C      1, 3, 5, 6, 8, 11-15
    2    8 O      2, 4, 7, 9
    3    7 N      10, 16, 17
    4    1 H      18-33

      * Solvation model:               ALPB
        Solvent                        DMSO
        Solvent mass                       7.8130E+01 g/mol
          :  Hamiltonian                  GFN1-xTB          :
 * total energy  :   -57.7890340 Eh     change       -0.3478107E-10 Eh
 * total energy  :   -57.8008270 Eh     change       -0.1179302E-01 Eh
 * total energy  :   -57.8050245 Eh     change       -0.4197504E-02 Eh
 * total energy  :   -57.8059415 Eh     change       -0.9170155E-03 Eh
 * total energy  :   -57.8063895 Eh     change       -0.4479525E-03 Eh
 * total energy  :   -57.8065561 Eh     change       -0.1666394E-03 Eh
 * total energy  :   -57.8066719 Eh     change       -0.1157325E-03 Eh
 * total energy  :   -57.8067596 Eh     change       -0.8775200E-04 Eh
 * total energy  :   -57.8068193 Eh     change       -0.5971905E-04 Eh
 * total energy  :   -57.8068607 Eh     change       -0.4135200E-04 Eh
 * total energy  :   -57.8668869 Eh     change       -0.1004688E-04 Eh
 * total energy  :   -57.8668994 Eh     change       -0.1247144E-04 Eh
 * total energy  :   -57.8669142 Eh     change       -0.1478489E-04 Eh
 * total energy  :   -57.8669286 Eh     change       -0.1435708E-04 Eh
 * total energy  :   -57.8669363 Eh     change       -0.7747090E-05 Eh
 * total energy  :   -57.8669447 Eh     change       -0.8438324E-05 Eh
 * total energy  :   -57.8669513 Eh     change       -0.6545913E-05 Eh
 * total energy  :   -57.8669594 Eh     change       -0.8141272E-05 Eh
 * total energy  :   -57.8669635 Eh     change       -0.4069808E-05 Eh
   *** GEOMETRY OPTIMIZATION CONVERGED AFTER 125 ITERATIONS ***

 final structure:
================
33
 xtb: 6.5.1 (579679a)
C            3.43699059178122        1.48198391526277       -2.86971853801979
O            2.47374366256943        0.96849585582090       -1.94193588193995
C            2.88423558991558       -0.00926558788189       -1.13517278580418
O            4.00402788130042       -0.46017091778921       -1.14852751570876
C            1.79492333197696       -0.47189197218295       -0.22358090821252
C            1.95424602507814       -1.43422572906498        0.73358259651067
O            3.09274841393396       -2.08000193723025        0.97427617177141
C            0.82604630959325       -1.81534786087515        1.57686305346728
O            0.93381674490446       -2.67493128089557        2.43887755518820
N           -0.36484196699691       -1.13584938582036        1.34044286043648
C           -1.48080326702716       -1.54422856162283        2.19175819467725
C           -0.44647185917369       -0.19688181770471        0.33964366117839
C           -1.69834533245541        0.61764316292519        0.03523236121213
C           -1.96100372092817        1.68120102597705        1.10232821352519
C           -1.55036574913854        1.27901062387999       -1.33778950996605
N           -2.92274881952853       -0.26594889399489       -0.06983096185302
N            0.57186476309742        0.11957200486873       -0.38669271495653
H            4.34447656180087        1.78584646522510       -2.34156852631783
H            3.68489687318102        0.71736283044510       -3.61019252295048
H            2.97333627236323        2.33931208500070       -3.35342887274308
H            2.95039729749397       -2.71507183291241        1.70164684300380
H           -2.72577491619286       -1.11041414661077       -0.59713197141227
H           -1.06550095661812       -2.06243838093487        3.05671412955614
H           -2.03788718373865       -0.67703995805563        2.52823660724011
H           -2.12763156038400       -2.22732808615013        1.64484166977816
H           -2.83761038683159        2.26595246704907        0.82962842002008
H           -2.12548452641669        1.24061866142880        2.08231742229147
H           -1.09741659756000        2.34345206184522        1.15699990583896
H           -1.37808514435839        0.52561761206626       -2.10415468544799
H           -0.70174820391403        1.96112276026609       -1.32158391629542
H           -2.45188309814715        1.84019987739779       -1.57595242567084
H           -3.65944569843742        0.23826414263401       -0.55380120226628
H           -3.29270233114343       -0.52461820236669        0.83767227387299

          :  Hamiltonian                  GFN1-xTB          :
         :: total energy             -57.866963492797 Eh    ::
         :: gradient norm              0.000618370726 Eh/a0 ::
         :: HOMO-LUMO gap              2.955347945241 eV    ::
         :: SCC energy               -58.446192317013 Eh    ::
         :: -> Gsolv                  -0.137996210272 Eh    ::
         :: repulsion energy           0.598553367977 Eh    ::

    * Orbital Energies and Occupations

         #    Occupation            Energy/Eh            Energy/eV
      -------------------------------------------------------------
         1        2.0000           -0.8980881             -24.4382
       ...           ...                  ...                  ...
        35        2.0000           -0.5531976             -15.0533
        36        2.0000           -0.5483941             -14.9226
        37        2.0000           -0.5466668             -14.8756
        38        2.0000           -0.5453434             -14.8395
        39        2.0000           -0.5347434             -14.5511
        40        2.0000           -0.5289171             -14.3926
        41        2.0000           -0.5201380             -14.1537
        42        2.0000           -0.5034950             -13.7008
        43        2.0000           -0.4958909             -13.4939
        44        2.0000           -0.4928367             -13.4108
        45        2.0000           -0.4791303             -13.0378
        46        2.0000           -0.4630352             -12.5998
        47        2.0000           -0.4465024             -12.1499 (HOMO)
        48                         -0.3378954              -9.1946 (LUMO)
        49                         -0.3076748              -8.3723
        50                         -0.2528946              -6.8816
        51                         -0.2087396              -5.6801
        52                         -0.1752210              -4.7680
        53                         -0.1718004              -4.6749
        54                         -0.1598994              -4.3511
        55                         -0.1468287              -3.9954
        56                         -0.1424489              -3.8762
        57                         -0.1368775              -3.7246
        58                         -0.1194254              -3.2497
       ...                                ...                  ...
       100                          0.7369299              20.0529
      -------------------------------------------------------------
                  HL-Gap            0.1086070 Eh            2.9553 eV

Wiberg/Mayer (AO) data.
largest (>0.10) Wiberg bond orders for each atom

     #   Z sym  total        # sym  WBO       # sym  WBO       # sym  WBO
 ---------------------------------------------------------------------------
     1   6 C    3.867 --    20 H    0.986    18 H    0.979    19 H    0.979
                             2 O    0.893
     2   8 O    2.201 --     3 C    1.116     1 C    0.893     4 O    0.137
     3   6 C    3.855 --     4 O    1.667     2 O    1.116     5 C    0.994
     4   8 O    1.932 --     3 C    1.667     2 O    0.137
     5   6 C    3.959 --     6 C    1.491    17 N    1.182     3 C    0.994
     6   6 C    3.922 --     5 C    1.491     7 O    1.127     8 C    1.065
     7   8 O    2.104 --     6 C    1.127    21 H    0.800
     8   6 C    3.910 --     9 O    1.579    10 N    1.116     6 C    1.065
     9   8 O    1.926 --     8 C    1.579    10 N    0.135
    10   7 N    3.499 --    12 C    1.163     8 C    1.116    11 C    0.928
                             9 O    0.135
    11   6 C    3.917 --    24 H    0.974    25 H    0.974    23 H    0.966
                            10 N    0.928
    12   6 C    3.942 --    17 N    1.587    10 N    1.163    13 C    0.979
    13   6 C    3.884 --    15 C    1.000    14 C    0.991    12 C    0.979
                            16 N    0.873
    14   6 C    3.981 --    13 C    0.991    26 H    0.979    28 H    0.976
                            27 H    0.974
    15   6 C    3.981 --    13 C    1.000    29 H    0.982    31 H    0.981
                            30 H    0.975
    16   7 N    3.564 --    22 H    0.887    33 H    0.887    32 H    0.883
                            13 C    0.873
    17   7 N    3.040 --    12 C    1.587     5 C    1.182
    18   1 H    1.007 --     1 C    0.979
    19   1 H    1.005 --     1 C    0.979
    20   1 H    1.010 --     1 C    0.986
    21   1 H    0.840 --     7 O    0.800
    22   1 H    0.905 --    16 N    0.887
    23   1 H    1.000 --    11 C    0.966
    24   1 H    1.000 --    11 C    0.974
    25   1 H    0.995 --    11 C    0.974
    26   1 H    0.992 --    14 C    0.979
    27   1 H    0.998 --    14 C    0.974
    28   1 H    0.995 --    14 C    0.976
    29   1 H    1.000 --    15 C    0.982
    30   1 H    1.009 --    15 C    0.975
    31   1 H    0.995 --    15 C    0.981
    32   1 H    0.904 --    16 N    0.883
    33   1 H    0.919 --    16 N    0.887
 ---------------------------------------------------------------------------

           -------------------------------------------------
          | TOTAL ENERGY              -57.866963492797 Eh   |
          | GRADIENT NORM               0.000618370726 Eh/α |
          | HOMO-LUMO GAP               2.955347945241 eV   |
           -------------------------------------------------

 * finished run on 2023/06/20 at 15:11:30.200
