   * xtb version 6.5.1 (579679a) compiled by 'ehlert@majestix' on 2022-07-11
          program call               : /lustre/hpc/kemi/ree/PhD/git/ReactivityQM/dep/xtb-6.5.1/bin/xtb --gfn 1 /lustre/hpc/kemi/ree/PhD/git/ReactivityQM/calculations/R02deprot/reac01/conf04/R02deprot_reac01_conf04_gfn1.xyz --opt --vfukui --chrg -1 --uhf 0 --alpb DMSO

   ID    Z sym.   atoms
    1    6 C      1, 3, 5, 7-10, 12, 14, 17, 18, 21, 23
    2    8 O      2, 4, 13, 19, 22, 24
    3    7 N      6, 11, 15, 16, 20
    4    1 H      25-38

      * Solvation model:               ALPB
        Solvent                        DMSO
        Solvent mass                       7.8130E+01 g/mol
          :  Hamiltonian                  GFN1-xTB          :
 * total energy  :   -79.5987970 Eh     change       -0.3149125E-10 Eh
 * total energy  :   -79.6091774 Eh     change       -0.1038035E-01 Eh
 * total energy  :   -79.6127918 Eh     change       -0.3614447E-02 Eh
 * total energy  :   -79.6133893 Eh     change       -0.5975049E-03 Eh
 * total energy  :   -79.6138912 Eh     change       -0.5018815E-03 Eh
 * total energy  :   -79.6141908 Eh     change       -0.2996112E-03 Eh
 * total energy  :   -79.6144601 Eh     change       -0.2693094E-03 Eh
 * total energy  :   -79.6146884 Eh     change       -0.2283102E-03 Eh
 * total energy  :   -79.6148440 Eh     change       -0.1555191E-03 Eh
 * total energy  :   -79.6149588 Eh     change       -0.1147966E-03 Eh
 * total energy  :   -79.6165348 Eh     change       -0.3079610E-04 Eh
 * total energy  :   -79.6165486 Eh     change       -0.1384692E-04 Eh
 * total energy  :   -79.6165779 Eh     change       -0.2922970E-04 Eh
 * total energy  :   -79.6165942 Eh     change       -0.1633862E-04 Eh
 * total energy  :   -79.6166234 Eh     change       -0.2921446E-04 Eh
 * total energy  :   -79.6166382 Eh     change       -0.1480754E-04 Eh
 * total energy  :   -79.6166480 Eh     change       -0.9805620E-05 Eh
 * total energy  :   -79.6166549 Eh     change       -0.6851481E-05 Eh
 * total energy  :   -79.6166587 Eh     change       -0.3802691E-05 Eh
   *** GEOMETRY OPTIMIZATION CONVERGED AFTER 46 ITERATIONS ***

 final structure:
================
38
 xtb: 6.5.1 (579679a)
C           -3.40429330561205        3.87308550408647       -0.43709462744090
O           -3.38562928707442        2.44953391318105       -0.48441073745892
C           -2.20072948077875        1.86459423910194       -0.23690725848684
O           -1.20330640170962        2.51619624924932        0.00622190914301
C           -2.24348874752990        0.38693134159114       -0.28154357891970
N           -1.03876204804450       -0.22028396810129       -0.03241264033172
C           -1.00229781671315       -1.53253876216675       -0.03648927488510
C            0.33491895897494       -2.19942711461335        0.26343060403473
C            0.22817154071456       -2.92161025655662        1.61408511010639
C            0.67686302200806       -3.18933918051819       -0.85765927613100
N            1.34723789861295       -1.14560931173049        0.32791841595101
C            2.64208732293119       -1.35303463414060        0.57799290957122
O            3.16281125623923       -2.43710009656937        0.81641433159960
C            3.45704231193597       -0.10457261790266        0.53836399430877
N            4.72856689127501        0.00652623130737        0.77449045088419
N            5.04920515653053        1.32083986877213        0.59727585114463
C            3.95392962273953        1.92898950138768        0.26215990607830
C            3.78000639164753        3.36564986577094       -0.04510101502380
O            2.91063112620632        1.08569777047410        0.20832852626386
N           -2.01254719771703       -2.37466452768456       -0.25547017995218
C           -3.23292759551114       -1.85298013401548       -0.51994351912411
O           -4.25499934558943       -2.53018001012325       -0.74849814237566
C           -3.34415169843800       -0.38952547151272       -0.52913645755328
O           -4.58444982576975        0.07866360292808       -0.79152034738264
H           -4.41810298008933        4.18536359904822       -0.68191911977636
H           -2.69865816071875        4.28878791589897       -1.16161654813703
H           -3.13573433248676        4.22490610050865        0.56301700616261
H            1.15072276945759       -3.45209312819477        1.84404991734281
H           -0.59223613122756       -3.63702910649651        1.56426306280955
H            0.02176736321697       -2.20276299773286        2.40628074102941
H            1.58443206014596       -3.74239924216436       -0.62132659480129
H           -0.15020173099381       -3.88939906742871       -0.97211873858984
H            0.81911418577917       -2.65503926356212       -1.79627923284074
H            1.00187008595969       -0.20451187293500        0.15545171146749
H            4.74349254567900        3.86651034407171        0.00405824237323
H            3.35585491781198        3.48606945406918       -1.04126787983222
H            3.09749611144428        3.82314344431201        0.67099559958478
H           -5.14370645331578       -0.71738818161331       -0.92376112081865

          :  Hamiltonian                  GFN1-xTB          :
         :: total energy             -79.616658684968 Eh    ::
         :: gradient norm              0.000889337706 Eh/a0 ::
         :: HOMO-LUMO gap              2.039939339953 eV    ::
         :: SCC energy               -80.336044627098 Eh    ::
         :: -> Gsolv                  -0.104046051076 Eh    ::
         :: repulsion energy           0.742188284535 Eh    ::

    * Orbital Energies and Occupations

         #    Occupation            Energy/Eh            Energy/eV
      -------------------------------------------------------------
         1        2.0000           -0.8563183             -23.3016
       ...           ...                  ...                  ...
        52        2.0000           -0.4746220             -12.9151
        53        2.0000           -0.4726167             -12.8606
        54        2.0000           -0.4690513             -12.7635
        55        2.0000           -0.4523345             -12.3086
        56        2.0000           -0.4496057             -12.2344
        57        2.0000           -0.4492613             -12.2250
        58        2.0000           -0.4404484             -11.9852
        59        2.0000           -0.4365093             -11.8780
        60        2.0000           -0.4309724             -11.7274
        61        2.0000           -0.4172698             -11.3545
        62        2.0000           -0.4038109             -10.9883
        63        2.0000           -0.3739740             -10.1763
        64        2.0000           -0.3717425             -10.1156 (HOMO)
        65                         -0.2967761              -8.0757 (LUMO)
        66                         -0.2761841              -7.5154
        67                         -0.2494719              -6.7885
        68                         -0.2282887              -6.2121
        69                         -0.1895663              -5.1584
        70                         -0.1851401              -5.0379
        71                         -0.1389218              -3.7803
        72                         -0.1263902              -3.4393
        73                         -0.1079740              -2.9381
        74                         -0.1043979              -2.8408
        75                         -0.1022052              -2.7811
       ...                                ...                  ...
       124                          0.7431560              20.2223
      -------------------------------------------------------------
                  HL-Gap            0.0749664 Eh            2.0399 eV

Wiberg/Mayer (AO) data.
largest (>0.10) Wiberg bond orders for each atom

     #   Z sym  total        # sym  WBO       # sym  WBO       # sym  WBO
 ---------------------------------------------------------------------------
     1   6 C    3.887 --    25 H    0.987    27 H    0.980    26 H    0.980
                             2 O    0.912
     2   8 O    2.183 --     3 C    1.082     1 C    0.912     4 O    0.123
     3   6 C    3.838 --     4 O    1.633     2 O    1.082     5 C    1.029
     4   8 O    1.896 --     3 C    1.633     2 O    0.123
     5   6 C    3.961 --    23 C    1.483     6 N    1.191     3 C    1.029
     6   7 N    3.025 --     7 C    1.472     5 C    1.191
     7   6 C    3.958 --     6 N    1.472    20 N    1.358     8 C    0.971
     8   6 C    3.929 --    10 C    0.986     9 C    0.982     7 C    0.971
                            11 N    0.922
     9   6 C    3.993 --    30 H    0.986    29 H    0.985    28 H    0.983
                             8 C    0.982
    10   6 C    3.993 --    33 H    0.987     8 C    0.986    31 H    0.984
                            32 H    0.983
    11   7 N    3.391 --    12 C    1.308     8 C    0.922    34 H    0.874
                            13 O    0.187
    12   6 C    3.925 --    13 O    1.552    11 N    1.308    14 C    0.983
    13   8 O    1.873 --    12 C    1.552    11 N    0.187
    14   6 C    3.868 --    15 N    1.625    19 O    1.050    12 C    0.983
    15   7 N    2.994 --    14 C    1.625    16 N    1.193
    16   7 N    2.979 --    17 C    1.615    15 N    1.193
    17   6 C    3.872 --    16 N    1.615    19 O    1.075    18 C    1.030
    18   6 C    3.988 --    17 C    1.030    35 H    0.983    36 H    0.965
                            37 H    0.963
    19   8 O    2.319 --    17 C    1.075    14 C    1.050
    20   7 N    2.984 --     7 C    1.358    21 C    1.254    22 O    0.125
    21   6 C    3.930 --    22 O    1.470    20 N    1.254    23 C    1.070
    22   8 O    1.808 --    21 C    1.470    20 N    0.125
    23   6 C    3.906 --     5 C    1.483    24 O    1.073    21 C    1.070
    24   8 O    2.049 --    23 C    1.073    38 H    0.814
    25   1 H    1.013 --     1 C    0.987
    26   1 H    1.011 --     1 C    0.980
    27   1 H    1.011 --     1 C    0.980
    28   1 H    1.012 --     9 C    0.983
    29   1 H    1.013 --     9 C    0.985
    30   1 H    1.005 --     9 C    0.986
    31   1 H    1.012 --    10 C    0.984
    32   1 H    1.018 --    10 C    0.983
    33   1 H    1.005 --    10 C    0.987
    34   1 H    0.971 --    11 N    0.874
    35   1 H    1.000 --    18 C    0.983
    36   1 H    0.998 --    18 C    0.965
    37   1 H    0.998 --    18 C    0.963
    38   1 H    0.876 --    24 O    0.814
 ---------------------------------------------------------------------------

           -------------------------------------------------
          | TOTAL ENERGY              -79.616658684968 Eh   |
          | GRADIENT NORM               0.000889337706 Eh/α |
          | HOMO-LUMO GAP               2.039939339953 eV   |
           -------------------------------------------------

 * finished run on 2023/06/20 at 17:32:21.629
