   * xtb version 6.5.1 (579679a) compiled by 'ehlert@majestix' on 2022-07-11
          program call               : /lustre/hpc/kemi/ree/PhD/git/ReactivityQM/dep/xtb-6.5.1/bin/xtb --gfn 1 /lustre/hpc/kemi/ree/PhD/git/ReactivityQM/calculations/R02oxygendeprot/reac01prodE04/conf14/R02oxygendeprot_reac01prodE04_conf14_gfn1.xyz --opt --vfukui --chrg -2 --uhf 0 --alpb DMSO

   ID    Z sym.   atoms
    1    6 C      1, 3, 5, 6, 8-11, 13, 15, 18, 19, 22, 24
    2    8 O      2, 4, 14, 20, 23, 25
    3    7 N      7, 12, 16, 17, 21
    4    1 H      26-42

      * Solvation model:               ALPB
        Solvent                        DMSO
        Solvent mass                       7.8130E+01 g/mol
          :  Hamiltonian                  GFN1-xTB          :
 * total energy  :   -83.5781417 Eh     change       -0.3669243E-10 Eh
 * total energy  :   -83.5985126 Eh     change       -0.2037091E-01 Eh
 * total energy  :   -83.6050490 Eh     change       -0.6536398E-02 Eh
 * total energy  :   -83.6064442 Eh     change       -0.1395176E-02 Eh
 * total energy  :   -83.6074538 Eh     change       -0.1009593E-02 Eh
 * total energy  :   -83.6079040 Eh     change       -0.4502143E-03 Eh
 * total energy  :   -83.6081983 Eh     change       -0.2942898E-03 Eh
 * total energy  :   -83.6084775 Eh     change       -0.2792498E-03 Eh
 * total energy  :   -83.6087416 Eh     change       -0.2640507E-03 Eh
 * total energy  :   -83.6089858 Eh     change       -0.2441869E-03 Eh
 * total energy  :   -83.6142993 Eh     change       -0.9088495E-05 Eh
 * total energy  :   -83.6143116 Eh     change       -0.1234224E-04 Eh
 * total energy  :   -83.6143298 Eh     change       -0.1818383E-04 Eh
 * total energy  :   -83.6143458 Eh     change       -0.1606292E-04 Eh
 * total energy  :   -83.6143565 Eh     change       -0.1066787E-04 Eh
 * total energy  :   -83.6143662 Eh     change       -0.9690889E-05 Eh
 * total energy  :   -83.6143742 Eh     change       -0.8021503E-05 Eh
 * total energy  :   -83.6143793 Eh     change       -0.5112319E-05 Eh
 * total energy  :   -83.6143830 Eh     change       -0.3671700E-05 Eh
   *** GEOMETRY OPTIMIZATION CONVERGED AFTER 67 ITERATIONS ***

 final structure:
================
42
 xtb: 6.5.1 (579679a)
C           -5.76833370570540       -0.90913955117358        0.75021780228805
O           -4.86521710814312        0.09279745069893        0.30302903008060
C           -3.57586972422925       -0.30064059350672        0.13101397350897
O           -3.23211294772481       -1.45750380584150        0.33264372123180
C           -2.64425091439820        0.85687594664704       -0.18798327066909
C           -3.30564842048131        1.91305071249991       -1.07572875256904
N           -1.45750566241028        0.33799974423490       -0.84677259847637
C           -0.56016361628698       -0.19604264999671       -0.10038825988656
C            0.56152273356238       -0.99765232379467       -0.74625530533208
C            0.69730242229175       -0.61780914557756       -2.22662620179712
C            0.16652473351299       -2.47637584083769       -0.59577540055033
N            1.80288765761822       -0.70672645760103       -0.02205591937968
C            3.00474100275924       -1.31580736171724       -0.41575657176183
O            3.04990075989518       -2.41122507383896       -1.01705563736597
C            4.17259737052261       -0.59827110817844       -0.01161344089940
N            5.45027785487412       -0.94560938967448       -0.19705572096468
N            6.20680514950186        0.07377406482281        0.31039107918211
C            5.39627841158016        0.97155038794162        0.76716282360373
C            5.75720357164871        2.26195702538469        1.40516008826196
O            4.09179713340444        0.63587875564014        0.61068998097765
N           -0.59332998782103       -0.18315697956942        1.25853485490563
C           -1.37441111837825        0.77281079040524        1.98867240271812
O           -1.02341852485561        0.99235438089759        3.18395215547340
C           -2.40781271053251        1.39598836930737        1.25233636721330
O           -3.17735657853164        2.31974404255685        1.68516961878813
H           -5.48586706700277       -1.27623205626310        1.74256416082588
H           -6.75637293909826       -0.45364577118451        0.79280051860208
H           -5.78275469356208       -1.75303303221442        0.05325419235093
H           -3.62708628982571        1.47090536808652       -2.01816542155006
H           -2.58927488117349        2.70648312162875       -1.28812745204857
H           -4.16840145742341        2.34503884084058       -0.56979569063407
H           -0.25685620175581       -0.76653923089297       -2.73156213394227
H            1.45584589204233       -1.23365966753886       -2.70766511480687
H            0.97893053975023        0.43084363521882       -2.31866449586710
H            0.80841653167060       -3.11932382462862       -1.19449714127006
H           -0.86597863975465       -2.60314982316804       -0.92423791487854
H            0.24082604877152       -2.77652656052635        0.44908770663357
H            1.91786974857783        0.28105034213004        0.17047729924802
H            5.35673761768040        2.31308196627770        2.41819406837038
H            5.34455561446234        3.09614037057998        0.83691200467155
H            6.83982393313379        2.35562267238121        1.44233871190166
H            0.21717846183355       -0.52587774046962        1.75274388380128

          :  Hamiltonian                  GFN1-xTB          :
         :: total energy             -83.614383007669 Eh    ::
         :: gradient norm              0.000359487791 Eh/a0 ::
         :: HOMO-LUMO gap              0.036169641799 eV    ::
         :: SCC energy               -84.339999903582 Eh    ::
         :: -> Gsolv                  -0.268778461941 Eh    ::
         :: repulsion energy           0.752338342625 Eh    ::

    * Orbital Energies and Occupations

         #    Occupation            Energy/Eh            Energy/eV
      -------------------------------------------------------------
         1        2.0000           -0.8029859             -21.8504
       ...           ...                  ...                  ...
        56        2.0000           -0.4452746             -12.1165
        57        2.0000           -0.4410900             -12.0027
        58        2.0000           -0.4279479             -11.6451
        59        2.0000           -0.4240062             -11.5378
        60        2.0000           -0.4088611             -11.1257
        61        2.0000           -0.4052041             -11.0262
        62        2.0000           -0.4041580             -10.9977
        63        2.0000           -0.3985056             -10.8439
        64        2.0000           -0.3898572             -10.6086
        65        2.0000           -0.3783511             -10.2955
        66        2.0000           -0.3742359             -10.1835
        67        2.0000           -0.3446303              -9.3779
        68        1.3362           -0.2690403              -7.3210 (HOMO)
        69        0.6638           -0.2677111              -7.2848 (LUMO)
        70                         -0.2208988              -6.0110
        71                         -0.2103189              -5.7231
        72                         -0.2006185              -5.4591
        73                         -0.1416698              -3.8550
        74                         -0.1233868              -3.3575
        75                         -0.1218344              -3.3153
        76                         -0.1137986              -3.0966
        77                         -0.0944526              -2.5702
        78                         -0.0899748              -2.4483
        79                         -0.0880168              -2.3951
       ...                                ...                  ...
       134                          0.7146317              19.4461
      -------------------------------------------------------------
                  HL-Gap            0.0013292 Eh            0.0362 eV

Wiberg/Mayer (AO) data.
largest (>0.10) Wiberg bond orders for each atom

     #   Z sym  total        # sym  WBO       # sym  WBO       # sym  WBO
 ---------------------------------------------------------------------------
     1   6 C    3.897 --    27 H    0.987    28 H    0.981    26 H    0.981
                             2 O    0.921
     2   8 O    2.152 --     3 C    1.044     1 C    0.921     4 O    0.107
     3   6 C    3.775 --     4 O    1.594     2 O    1.044     5 C    0.944
     4   8 O    1.855 --     3 C    1.594     2 O    0.107
     5   6 C    3.959 --     6 C    0.992     7 N    0.981     3 C    0.944
                            24 C    0.876
     6   6 C    3.990 --     5 C    0.992    29 H    0.989    30 H    0.987
                            31 H    0.984
     7   7 N    2.939 --     8 C    1.652     5 C    0.981    21 N    0.147
     8   6 C    3.931 --     7 N    1.652    21 N    1.176     9 C    0.971
     9   6 C    3.949 --    10 C    0.991    11 C    0.983     8 C    0.971
                            12 N    0.942
    10   6 C    3.993 --     9 C    0.991    34 H    0.986    33 H    0.985
                            32 H    0.985
    11   6 C    3.994 --    36 H    0.986    37 H    0.986     9 C    0.983
                            35 H    0.981
    12   7 N    3.146 --    13 C    1.080     9 C    0.942    38 H    0.920
                            14 O    0.107
    13   6 C    3.748 --    14 O    1.447    15 C    1.154    12 N    1.080
    14   8 O    1.686 --    13 C    1.447    12 N    0.107
    15   6 C    3.697 --    16 N    1.402    13 C    1.154    20 O    0.969
    16   7 N    2.727 --    15 C    1.402    17 N    1.190
    17   7 N    2.981 --    18 C    1.627    16 N    1.190
    18   6 C    3.813 --    17 N    1.627    20 O    1.043    19 C    1.024
    19   6 C    3.994 --    18 C    1.024    41 H    0.986    39 H    0.971
                            40 H    0.971
    20   8 O    2.183 --    18 C    1.043    15 C    0.969
    21   7 N    3.325 --     8 C    1.176    22 C    0.963    42 H    0.910
                             7 N    0.147
    22   6 C    3.746 --    23 O    1.392    24 C    1.240    21 N    0.963
    23   8 O    1.604 --    22 C    1.392
    24   6 C    3.728 --    25 O    1.373    22 C    1.240     5 C    0.876
    25   8 O    1.577 --    24 C    1.373
    26   1 H    1.012 --     1 C    0.981
    27   1 H    1.015 --     1 C    0.987
    28   1 H    1.014 --     1 C    0.981
    29   1 H    1.010 --     6 C    0.989
    30   1 H    1.012 --     6 C    0.987
    31   1 H    1.027 --     6 C    0.984
    32   1 H    1.021 --    10 C    0.985
    33   1 H    1.012 --    10 C    0.985
    34   1 H    1.010 --    10 C    0.986
    35   1 H    1.025 --    11 C    0.981
    36   1 H    1.015 --    11 C    0.986
    37   1 H    1.010 --    11 C    0.986
    38   1 H    0.965 --    12 N    0.920
    39   1 H    1.000 --    19 C    0.971
    40   1 H    1.000 --    19 C    0.971
    41   1 H    1.004 --    19 C    0.986
    42   1 H    0.971 --    21 N    0.910
 ---------------------------------------------------------------------------

           -------------------------------------------------
          | TOTAL ENERGY              -83.614383007669 Eh   |
          | GRADIENT NORM               0.000359487791 Eh/α |
          | HOMO-LUMO GAP               0.036169641799 eV   |
           -------------------------------------------------

 * finished run on 2023/06/21 at 17:04:52.496
