   * xtb version 6.5.1 (579679a) compiled by 'ehlert@majestix' on 2022-07-11
          program call               : /lustre/hpc/kemi/ree/PhD/git/ReactivityQM/dep/xtb-6.5.1/bin/xtb --gfn 1 /lustre/hpc/kemi/ree/PhD/git/ReactivityQM/calculations/R02methylcation/reac01/conf02/R02methylcation_reac01_conf02_gfn1.xyz --opt --vfukui --chrg -1 --uhf 0 --alpb DMSO

   ID    Z sym.   atoms
    1    6 C      1, 3, 5, 7-10, 12, 14, 17, 18, 21, 23
    2    8 O      2, 4, 13, 19, 22, 24
    3    7 N      6, 11, 15, 16, 20
    4    1 H      25-38

      * Solvation model:               ALPB
        Solvent                        DMSO
        Solvent mass                       7.8130E+01 g/mol
          :  Hamiltonian                  GFN1-xTB          :
 * total energy  :   -79.6041886 Eh     change       -0.3691980E-10 Eh
 * total energy  :   -79.6161968 Eh     change       -0.1200819E-01 Eh
 * total energy  :   -79.6203963 Eh     change       -0.4199452E-02 Eh
 * total energy  :   -79.6209984 Eh     change       -0.6021735E-03 Eh
 * total energy  :   -79.6214400 Eh     change       -0.4415774E-03 Eh
 * total energy  :   -79.6216840 Eh     change       -0.2439778E-03 Eh
 * total energy  :   -79.6219246 Eh     change       -0.2406051E-03 Eh
 * total energy  :   -79.6221122 Eh     change       -0.1876058E-03 Eh
 * total energy  :   -79.6222390 Eh     change       -0.1267863E-03 Eh
 * total energy  :   -79.6223278 Eh     change       -0.8885390E-04 Eh
 * total energy  :   -79.6226593 Eh     change       -0.3346119E-04 Eh
 * total energy  :   -79.6226867 Eh     change       -0.2744846E-04 Eh
 * total energy  :   -79.6227126 Eh     change       -0.2587371E-04 Eh
 * total energy  :   -79.6227352 Eh     change       -0.2258583E-04 Eh
 * total energy  :   -79.6227544 Eh     change       -0.1916342E-04 Eh
 * total energy  :   -79.6227690 Eh     change       -0.1464108E-04 Eh
 * total energy  :   -79.6227772 Eh     change       -0.8180483E-05 Eh
 * total energy  :   -79.6227864 Eh     change       -0.9219213E-05 Eh
 * total energy  :   -79.6227901 Eh     change       -0.3670048E-05 Eh
   *** GEOMETRY OPTIMIZATION CONVERGED AFTER 24 ITERATIONS ***

 final structure:
================
38
 xtb: 6.5.1 (579679a)
C           -6.18004803337563       -0.29097002728280        1.95768192865997
O           -5.02388460280655        0.40743274105082        1.51912478071181
C           -4.04688097273263       -0.35539361967914        0.96612265289520
O           -4.18271052644819       -1.57035585553104        0.87393253978602
C           -2.88042276668659        0.38521715413571        0.50992506442514
N           -1.92722932232829       -0.43014857525632       -0.07248709991583
C           -0.84134868126104        0.06048238394191       -0.53803012728845
C            0.16772013878771       -0.82788152307120       -1.23574964877331
C           -0.13395925359266       -2.29748327725521       -0.92607597271234
C            0.10408318665593       -0.55638683191628       -2.74683228331876
N            1.50458876586625       -0.47849973539094       -0.72658702741434
C            2.63836824442230       -1.04446231669161       -1.17576959146661
O            2.71649014808431       -1.88584444860578       -2.05814488335682
C            3.85357157599877       -0.53309122814072       -0.48578542421040
N            5.08570609597736       -0.86827282431233       -0.71361433229163
N            5.85653579727626       -0.14592852342866        0.14959855012206
C            5.04691017377606        0.58517712566952        0.84982339014253
C            5.39363624332597        1.54849602003656        1.91741849444869
O            3.76494781618692        0.38818367577708        0.49834775032737
N           -0.57269123216777        1.41580505514028       -0.49298375407252
C           -1.42502053717243        2.33972930913143        0.05906887769977
O           -1.11400762245030        3.52771416465339        0.06428976024642
C           -2.71865481232619        1.79096146189276        0.62264696652334
O           -3.52858072761067        2.58836529001035        1.12928968217327
H           -5.92419953652947       -1.01320860897959        2.73952980291905
H           -6.64913060809886       -0.82600552843296        1.12551589023123
H           -6.87175421505889        0.45154331049725        2.35423961219247
H           -0.03764458991574       -2.47819064926714        0.14370563269536
H            0.55304993883705       -2.94796438695050       -1.46342701065791
H           -1.15534558773851       -2.52507604688432       -1.22925516571833
H           -0.91471220656892       -0.71706938913783       -3.09729292509391
H            0.77215636023393       -1.22450856001764       -3.28657571099307
H            0.39110363750360        0.47340029029917       -2.95242171839673
H            1.56649408245067        0.16339568955223        0.04708022898992
H            4.85657280331173        1.30182840980767        2.83277622052730
H            6.46467376221962        1.51769693650494        2.10122371276160
H            5.10560023246018        2.55633153884045        1.61784103729828
H            0.28601683149355        1.77070939928879       -0.87815190009627

          :  Hamiltonian                  GFN1-xTB          :
         :: total energy             -79.622790071523 Eh    ::
         :: gradient norm              0.000957458675 Eh/a0 ::
         :: HOMO-LUMO gap              1.657452103663 eV    ::
         :: SCC energy               -80.349704786795 Eh    ::
         :: -> Gsolv                  -0.121260952552 Eh    ::
         :: repulsion energy           0.749676692465 Eh    ::

    * Orbital Energies and Occupations

         #    Occupation            Energy/Eh            Energy/eV
      -------------------------------------------------------------
         1        2.0000           -0.8607324             -23.4217
       ...           ...                  ...                  ...
        52        2.0000           -0.4835433             -13.1579
        53        2.0000           -0.4746324             -12.9154
        54        2.0000           -0.4636046             -12.6153
        55        2.0000           -0.4581891             -12.4680
        56        2.0000           -0.4545534             -12.3690
        57        2.0000           -0.4541417             -12.3578
        58        2.0000           -0.4460499             -12.1376
        59        2.0000           -0.4395983             -11.9621
        60        2.0000           -0.4385458             -11.9334
        61        2.0000           -0.4349086             -11.8345
        62        2.0000           -0.4153854             -11.3032
        63        2.0000           -0.3776387             -10.2761
        64        2.0000           -0.3648053              -9.9269 (HOMO)
        65                         -0.3038950              -8.2694 (LUMO)
        66                         -0.2688849              -7.3167
        67                         -0.2527206              -6.8769
        68                         -0.2384099              -6.4875
        69                         -0.1958829              -5.3302
        70                         -0.1920445              -5.2258
        71                         -0.1397669              -3.8032
        72                         -0.1204970              -3.2789
        73                         -0.1157485              -3.1497
        74                         -0.1117943              -3.0421
        75                         -0.1072845              -2.9194
       ...                                ...                  ...
       124                          0.7573962              20.6098
      -------------------------------------------------------------
                  HL-Gap            0.0609102 Eh            1.6575 eV

Wiberg/Mayer (AO) data.
largest (>0.10) Wiberg bond orders for each atom

     #   Z sym  total        # sym  WBO       # sym  WBO       # sym  WBO
 ---------------------------------------------------------------------------
     1   6 C    3.899 --    27 H    0.987    25 H    0.980    26 H    0.980
                             2 O    0.925
     2   8 O    2.160 --     3 C    1.048     1 C    0.925     4 O    0.110
     3   6 C    3.850 --     4 O    1.575     5 C    1.114     2 O    1.048
     4   8 O    1.850 --     3 C    1.575     2 O    0.110
     5   6 C    3.915 --    23 C    1.271     6 N    1.153     3 C    1.114
                            24 O    0.130
     6   7 N    3.032 --     7 C    1.638     5 C    1.153
     7   6 C    3.933 --     6 N    1.638    20 N    1.088     8 C    0.979
     8   6 C    3.929 --     9 C    0.993    10 C    0.982     7 C    0.979
                            11 N    0.911
     9   6 C    3.991 --     8 C    0.993    28 H    0.985    29 H    0.984
                            30 H    0.983
    10   6 C    3.989 --    31 H    0.986    33 H    0.985     8 C    0.982
                            32 H    0.980
    11   7 N    3.359 --    12 C    1.275     8 C    0.911    34 H    0.896
                            13 O    0.180
    12   6 C    3.919 --    13 O    1.575    11 N    1.275    14 C    0.988
    13   8 O    1.894 --    12 C    1.575    11 N    0.180
    14   6 C    3.870 --    15 N    1.625    19 O    1.048    12 C    0.988
    15   7 N    2.997 --    14 C    1.625    16 N    1.195
    16   7 N    2.981 --    17 C    1.615    15 N    1.195
    17   6 C    3.870 --    16 N    1.615    19 O    1.072    18 C    1.031
    18   6 C    3.987 --    17 C    1.031    36 H    0.983    35 H    0.965
                            37 H    0.962
    19   8 O    2.316 --    17 C    1.072    14 C    1.048
    20   7 N    3.422 --    21 C    1.157     7 C    1.088    38 H    0.897
                            22 O    0.135
    21   6 C    3.877 --    22 O    1.582    20 N    1.157    23 C    0.966
    22   8 O    1.862 --    21 C    1.582    20 N    0.135
    23   6 C    3.943 --    24 O    1.521     5 C    1.271    21 C    0.966
    24   8 O    1.827 --    23 C    1.521     5 C    0.130
    25   1 H    1.014 --     1 C    0.980
    26   1 H    1.014 --     1 C    0.980
    27   1 H    1.016 --     1 C    0.987
    28   1 H    1.008 --     9 C    0.985
    29   1 H    1.010 --     9 C    0.984
    30   1 H    1.015 --     9 C    0.983
    31   1 H    1.004 --    10 C    0.986
    32   1 H    1.011 --    10 C    0.980
    33   1 H    1.003 --    10 C    0.985
    34   1 H    0.942 --    11 N    0.896
    35   1 H    0.997 --    18 C    0.965
    36   1 H    0.999 --    18 C    0.983
    37   1 H    0.997 --    18 C    0.962
    38   1 H    0.944 --    20 N    0.897
 ---------------------------------------------------------------------------

           -------------------------------------------------
          | TOTAL ENERGY              -79.622790071523 Eh   |
          | GRADIENT NORM               0.000957458675 Eh/α |
          | HOMO-LUMO GAP               1.657452103663 eV   |
           -------------------------------------------------

 * finished run on 2023/06/21 at 17:04:07.546
