                         Program Version 5.0.1 -  RELEASE  -
|  1> # ORCA input file
|  2> ! SP r2SCAN-3c CPCM
|  3>
|  4> %maxcore 1875.0
|  5> %pal nprocs 4 end
|  6> %cpcm smd true SMDsolvent "DMSO" end
|  7>
|  8> *xyz -1 1
|  9> C      -0.400343    1.960200   -0.552615
| 10> C      -0.288740    0.469374   -0.097202
| 11> C      -1.752579   -0.063732   -0.006515
| 12> N      -1.758774   -1.496893    0.311508
| 13> C       0.493253   -0.325211   -1.129004
| 14> C       1.691191   -0.928918   -0.853548
| 15> C       2.240440   -0.869203    0.426829
| 16> F       3.455775   -1.507558    0.679291
| 17> C       1.580741   -0.223381    1.474454
| 18> C       0.383955    0.403304    1.263141
| 19> H       0.599001    2.390425   -0.625667
| 20> H      -0.881634    2.031274   -1.529589
| 21> H      -0.978682    2.542521    0.167069
| 22> H      -2.294723    0.468403    0.785685
| 23> H      -2.277056    0.119532   -0.959902
| 24> H      -1.286080   -1.981469   -0.448753
| 25> H      -2.716837   -1.816816    0.307749
| 26> H       0.071301   -0.372439   -2.129136
| 27> H       2.220959   -1.470152   -1.634655
| 28> H       2.028491   -0.227721    2.466588
| 29> H      -0.129662    0.898460    2.084272
| 30> **                         ****END OF INPUT****

CARTESIAN COORDINATES (ANGSTROEM)
---------------------------------
  C     -0.400343    1.960200   -0.552615
  C     -0.288740    0.469374   -0.097202
  C     -1.752579   -0.063732   -0.006515
  N     -1.758774   -1.496893    0.311508
  C      0.493253   -0.325211   -1.129004
  C      1.691191   -0.928918   -0.853548
  C      2.240440   -0.869203    0.426829
  F      3.455775   -1.507558    0.679291
  C      1.580741   -0.223381    1.474454
  C      0.383955    0.403304    1.263141
  H      0.599001    2.390425   -0.625667
  H     -0.881634    2.031274   -1.529589
  H     -0.978682    2.542521    0.167069
  H     -2.294723    0.468403    0.785685
  H     -2.277056    0.119532   -0.959902
  H     -1.286080   -1.981469   -0.448753
  H     -2.716837   -1.816816    0.307749
  H      0.071301   -0.372439   -2.129136
  H      2.220959   -1.470152   -1.634655
  H      2.028491   -0.227721    2.466588
  H     -0.129662    0.898460    2.084272

 Total Charge           Charge          ....   -1
 Multiplicity           Mult            ....    1
 Number of Electrons    NEL             ....   76
 Basis Dimension        Dim             ....  255

ORBITAL ENERGIES
----------------

  NO   OCC          E(Eh)            E(eV)
   0   2.0000     -24.451068      -665.3474
   1   2.0000     -14.119581      -384.2133
   2   2.0000     -10.036226      -273.0996
   3   2.0000     -10.025223      -272.8002
   4   2.0000     -10.021183      -272.6902
   5   2.0000     -10.001326      -272.1499
   6   2.0000     -10.000721      -272.1334
   7   2.0000      -9.992696      -271.9151
   8   2.0000      -9.979871      -271.5661
   9   2.0000      -9.978864      -271.5387
  10   2.0000      -1.127865       -30.6908
  11   2.0000      -0.830534       -22.6000
  12   2.0000      -0.771717       -20.9995
  13   2.0000      -0.706149       -19.2153
  14   2.0000      -0.677402       -18.4331
  15   2.0000      -0.608877       -16.5684
  16   2.0000      -0.590359       -16.0645
  17   2.0000      -0.537500       -14.6261
  18   2.0000      -0.516186       -14.0461
  19   2.0000      -0.461666       -12.5626
  20   2.0000      -0.438324       -11.9274
  21   2.0000      -0.415052       -11.2941
  22   2.0000      -0.411958       -11.2099
  23   2.0000      -0.388272       -10.5654
  24   2.0000      -0.379758       -10.3337
  25   2.0000      -0.364728        -9.9248
  26   2.0000      -0.355940        -9.6856
  27   2.0000      -0.348176        -9.4744
  28   2.0000      -0.346798        -9.4369
  29   2.0000      -0.331361        -9.0168
  30   2.0000      -0.303736        -8.2651
  31   2.0000      -0.302685        -8.2365
  32   2.0000      -0.274872        -7.4796
  33   2.0000      -0.253238        -6.8909
  34   2.0000      -0.252364        -6.8672
  35   2.0000      -0.208088        -5.6624
  36   2.0000      -0.196665        -5.3515
  37   2.0000      -0.085551        -2.3280
  38   0.0000       0.003095         0.0842
  39   0.0000       0.086747         2.3605
  40   0.0000       0.089663         2.4399
  41   0.0000       0.101709         2.7676
  42   0.0000       0.117030         3.1846

MULLIKEN ATOMIC CHARGES
-----------------------
   0 C :   -0.554822
   1 C :    0.647754
   2 C :   -0.340084
   3 N :   -0.637969
   4 C :   -0.711855
   5 C :   -0.265297
   6 C :    0.155009
   7 F :   -0.316791
   8 C :   -0.272899
   9 C :   -0.691399
  10 H :    0.158840
  11 H :    0.152827
  12 H :    0.150804
  13 H :    0.153005
  14 H :    0.137224
  15 H :    0.285636
  16 H :    0.276203
  17 H :    0.173136
  18 H :    0.166057
  19 H :    0.166169
  20 H :    0.168450
Sum of atomic charges:   -1.0000000

LOEWDIN ATOMIC CHARGES
----------------------
   0 C :   -0.440542
   1 C :   -0.144957
   2 C :   -0.081685
   3 N :   -0.775655
   4 C :   -0.341276
   5 C :   -0.214870
   6 C :    0.007585
   7 F :   -0.395713
   8 C :   -0.217370
   9 C :   -0.330896
  10 H :    0.152579
  11 H :    0.152502
  12 H :    0.153081
  13 H :    0.172218
  14 H :    0.154076
  15 H :    0.242586
  16 H :    0.239838
  17 H :    0.159978
  18 H :    0.174370
  19 H :    0.174263
  20 H :    0.159889

  Mayer bond orders larger than 0.100000
B(  0-C ,  1-C ) :   0.8201 B(  0-C , 10-H ) :   0.9878 B(  0-C , 11-H ) :   0.9809
B(  0-C , 12-H ) :   0.9784 B(  1-C ,  2-C ) :   0.8262 B(  1-C ,  3-N ) :  -0.1345
B(  1-C ,  4-C ) :   0.8088 B(  1-C ,  9-C ) :   0.7994 B(  2-C ,  3-N ) :   0.9536
B(  2-C , 13-H ) :   0.9864 B(  2-C , 14-H ) :   0.9898 B(  3-N , 15-H ) :   0.8907
B(  3-N , 16-H ) :   0.9032 B(  4-C ,  5-C ) :   1.4680 B(  4-C ,  9-C ) :   0.2193
B(  4-C , 17-H ) :   0.9633 B(  5-C ,  6-C ) :   1.3388 B(  5-C , 18-H ) :   0.9457
B(  6-C ,  7-F ) :   0.8228 B(  6-C ,  8-C ) :   1.3158 B(  8-C ,  9-C ) :   1.5083
B(  8-C , 19-H ) :   0.9439 B(  9-C , 20-H ) :   0.9643

Dispersion correction           -0.007644108
FINAL SINGLE POINT ENERGY      -466.015390402499

DIPOLE MOMENT
-------------
                                X             Y             Z
Electronic contribution:     12.22967      -6.24459       2.74285
Nuclear contribution   :    -14.05550       6.62236      -3.52883
                        -----------------------------------------
Total Dipole Moment    :     -1.82583       0.37777      -0.78598
                        -----------------------------------------
Magnitude (a.u.)       :      2.02340
Magnitude (Debye)      :      5.14306

Rotational constants in cm-1:     0.074299     0.030325     0.028508
Rotational constants in MHz :  2227.429810   909.114286   854.643225

                             ****ORCA TERMINATED NORMALLY****
TOTAL RUN TIME: 0 days 0 hours 0 minutes 21 seconds 147 msec
