   * xtb version 6.5.1 (579679a) compiled by 'ehlert@majestix' on 2022-07-11
          program call               : /lustre/hpc/kemi/ree/PhD/git/ReactivityQM/dep/xtb-6.5.1/bin/xtb --gfn 1 /lustre/hpc/kemi/ree/PhD/git/ReactivityQM/calculations/R03/reac01prodE01/conf07/R03_reac01prodE01_conf07_gfn1.xyz --opt --vfukui --chrg -1 --uhf 0 --alpb DMSO

   ID    Z sym.   atoms
    1    6 C      1-3, 5-7, 9, 10
    2    7 N      4
    3    9 F      8
    4    1 H      11-21

      * Solvation model:               ALPB
        Solvent                        DMSO
        Solvent mass                       7.8130E+01 g/mol
          :  Hamiltonian                  GFN1-xTB          :
 * total energy  :   -31.4533110 Eh     change       -0.1982414E-11 Eh
 * total energy  :   -31.4557490 Eh     change       -0.2437921E-02 Eh
 * total energy  :   -31.4561064 Eh     change       -0.3574313E-03 Eh
 * total energy  :   -31.4561935 Eh     change       -0.8708651E-04 Eh
 * total energy  :   -31.4562475 Eh     change       -0.5402088E-04 Eh
 * total energy  :   -31.4563043 Eh     change       -0.5675418E-04 Eh
 * total energy  :   -31.4563511 Eh     change       -0.4688208E-04 Eh
 * total energy  :   -31.4563742 Eh     change       -0.2302600E-04 Eh
 * total energy  :   -31.4563799 Eh     change       -0.5728831E-05 Eh
 * total energy  :   -31.4563809 Eh     change       -0.9655596E-06 Eh
   *** GEOMETRY OPTIMIZATION CONVERGED AFTER 10 ITERATIONS ***

 final structure:
================
21
 xtb: 6.5.1 (579679a)
C           -0.40034272046065        1.96020021993676       -0.55261523024778
C           -0.28873956953100        0.46937377231268       -0.09720171846624
C           -1.75257862934452       -0.06373208962183       -0.00651454583141
N           -1.75877378458714       -1.49689280559223        0.31150840013721
C            0.49325342414349       -0.32521065146635       -1.12900355856919
C            1.69119105661392       -0.92891817306935       -0.85354815469147
C            2.24043997554622       -0.86920257009716        0.42682905506592
F            3.45577498872688       -1.50755784725966        0.67929061004669
C            1.58074133365451       -0.22338074880002        1.47445402760296
C            0.38395495303036        0.40330426579549        1.26314141673435
H            0.59900139646344        2.39042462503423       -0.62566739365898
H           -0.88163381896754        2.03127357819319       -1.52958869597529
H           -0.97868215455471        2.54252104440608        0.16706945441416
H           -2.29472287468139        0.46840270829100        0.78568454962492
H           -2.27705642466207        0.11953247658508       -0.95990219773855
H           -1.28607975458779       -1.98146896319331       -0.44875297381069
H           -2.71683741546423       -1.81681630480582        0.30774932597899
H            0.07130093753214       -0.37243909818852       -2.12913624046255
H            2.22095926059270       -1.47015235041971       -1.63465506223803
H            2.02849127236071       -0.22772071319264        2.46658765224561
H           -0.12966245182317        0.89845962515212        2.08427227983939

          :  Hamiltonian                  GFN1-xTB          :
         :: total energy             -31.456380852672 Eh    ::
         :: gradient norm              0.000517062755 Eh/a0 ::
         :: HOMO-LUMO gap              2.361758106323 eV    ::
         :: SCC energy               -31.825212959978 Eh    ::
         :: -> Gsolv                  -0.083342524093 Eh    ::
         :: repulsion energy           0.379495392813 Eh    ::

    * Orbital Energies and Occupations

         #    Occupation            Energy/Eh            Energy/eV
      -------------------------------------------------------------
         1        2.0000           -0.7746964             -21.0806
       ...           ...                  ...                  ...
        16        2.0000           -0.4861376             -13.2285
        17        2.0000           -0.4770217             -12.9804
        18        2.0000           -0.4661800             -12.6854
        19        2.0000           -0.4626805             -12.5902
        20        2.0000           -0.4548607             -12.3774
        21        2.0000           -0.4434282             -12.0663
        22        2.0000           -0.4343106             -11.8182
        23        2.0000           -0.4161559             -11.3242
        24        2.0000           -0.4042122             -10.9992
        25        2.0000           -0.3935468             -10.7090
        26        2.0000           -0.3728625             -10.1461
        27        2.0000           -0.3698292             -10.0636
        28        2.0000           -0.2717451              -7.3946 (HOMO)
        29                         -0.1849521              -5.0328 (LUMO)
        30                         -0.1053045              -2.8655
        31                         -0.0877015              -2.3865
        32                         -0.0713040              -1.9403
        33                         -0.0681160              -1.8535
        34                         -0.0578426              -1.5740
        35                         -0.0496230              -1.3503
        36                         -0.0471166              -1.2821
        37                         -0.0292277              -0.7953
        38                         -0.0220343              -0.5996
        39                         -0.0139186              -0.3787
       ...                                ...                  ...
        62                          0.6514944              17.7281
      -------------------------------------------------------------
                  HL-Gap            0.0867930 Eh            2.3618 eV

Wiberg/Mayer (AO) data.
largest (>0.10) Wiberg bond orders for each atom

     #   Z sym  total        # sym  WBO       # sym  WBO       # sym  WBO
 ---------------------------------------------------------------------------
     1   6 C    3.990 --    11 H    0.987    13 H    0.987    12 H    0.986
                             2 C    0.963
     2   6 C    3.983 --    10 C    1.008     5 C    1.008     1 C    0.963
                             3 C    0.959
     3   6 C    3.967 --     4 N    0.989    14 H    0.982    15 H    0.976
                             2 C    0.959
     4   7 N    2.940 --     3 C    0.989    17 H    0.959    16 H    0.955
     5   6 C    3.927 --     6 C    1.584     2 C    1.008    18 H    0.975
                            10 C    0.109     7 C    0.108
     6   6 C    3.992 --     5 C    1.584     7 C    1.321    19 H    0.972
     7   6 C    3.740 --     6 C    1.321     9 C    1.312     8 F    0.828
                             5 C    0.108    10 C    0.106
     8   9 F    0.920 --     7 C    0.828
     9   6 C    3.991 --    10 C    1.598     7 C    1.312    20 H    0.972
    10   6 C    3.929 --     9 C    1.598     2 C    1.008    21 H    0.975
                             5 C    0.109     7 C    0.106
    11   1 H    1.029 --     1 C    0.987
    12   1 H    1.012 --     1 C    0.986
    13   1 H    1.011 --     1 C    0.987
    14   1 H    1.020 --     3 C    0.982
    15   1 H    1.008 --     3 C    0.976
    16   1 H    0.991 --     4 N    0.955
    17   1 H    0.974 --     4 N    0.959
    18   1 H    1.003 --     5 C    0.975
    19   1 H    1.008 --     6 C    0.972
    20   1 H    1.008 --     9 C    0.972
    21   1 H    1.004 --    10 C    0.975
 ---------------------------------------------------------------------------

           -------------------------------------------------
          | TOTAL ENERGY              -31.456380852672 Eh   |
          | GRADIENT NORM               0.000517062755 Eh/α |
          | HOMO-LUMO GAP               2.361758106323 eV   |
           -------------------------------------------------

 * finished run on 2023/06/20 at 15:12:35.409
