   * xtb version 6.5.1 (579679a) compiled by 'ehlert@majestix' on 2022-07-11
          program call               : /lustre/hpc/kemi/ree/PhD/git/ReactivityQM/dep/xtb-6.5.1/bin/xtb --gfn 1 /lustre/hpc/kemi/ree/PhD/git/ReactivityQM/calculations/R02oxygendeprot/reac01prodN06/conf10/R02oxygendeprot_reac01prodN06_conf10_gfn1.xyz --opt --vfukui --chrg 0 --uhf 0 --alpb DMSO

   ID    Z sym.   atoms
    1    6 C      1, 3, 5, 7-10, 12, 14, 16, 17, 20, 22, 24
    2    8 O      2, 4, 13, 15, 23, 25
    3    7 N      6, 11, 18, 19, 21
    4    1 H      26-42

      * Solvation model:               ALPB
        Solvent                        DMSO
        Solvent mass                       7.8130E+01 g/mol
          :  Hamiltonian                  GFN1-xTB          :
 * total energy  :   -82.9549013 Eh     change       -0.3208726E-08 Eh
 * total energy  :   -82.9699636 Eh     change       -0.1506234E-01 Eh
 * total energy  :   -82.9774535 Eh     change       -0.7489891E-02 Eh
 * total energy  :   -82.9789039 Eh     change       -0.1450363E-02 Eh
 * total energy  :   -82.9801213 Eh     change       -0.1217415E-02 Eh
 * total energy  :   -82.9807373 Eh     change       -0.6160099E-03 Eh
 * total energy  :   -82.9812484 Eh     change       -0.5111301E-03 Eh
 * total energy  :   -82.9816260 Eh     change       -0.3775935E-03 Eh
 * total energy  :   -82.9818622 Eh     change       -0.2362233E-03 Eh
 * total energy  :   -82.9820026 Eh     change       -0.1403234E-03 Eh
 * total energy  :   -82.9826406 Eh     change       -0.7941036E-05 Eh
 * total energy  :   -82.9826567 Eh     change       -0.1611968E-04 Eh
 * total energy  :   -82.9826749 Eh     change       -0.1821175E-04 Eh
 * total energy  :   -82.9826926 Eh     change       -0.1771893E-04 Eh
 * total energy  :   -82.9827055 Eh     change       -0.1285001E-04 Eh
 * total energy  :   -82.9827166 Eh     change       -0.1106992E-04 Eh
 * total energy  :   -82.9827248 Eh     change       -0.8279001E-05 Eh
 * total energy  :   -82.9827305 Eh     change       -0.5672070E-05 Eh
 * total energy  :   -82.9827355 Eh     change       -0.4933280E-05 Eh
   *** GEOMETRY OPTIMIZATION CONVERGED AFTER 36 ITERATIONS ***

 final structure:
================
42
 xtb: 6.5.1 (579679a)
C           -6.33652900299160       -1.19654658084904       -2.29052263328176
O           -5.30455501910484       -1.35241842862507       -1.32410983018616
C           -4.33201390395476       -0.41324172440852       -1.34177136850864
O           -4.35695362384351        0.50414724834706       -2.15132476570044
C           -3.29337050522085       -0.59445900216081       -0.33120383261934
N           -2.33622867801951        0.39577222451365       -0.36680576175859
C           -1.36236368306474        0.40357193849031        0.46760799822341
C           -0.34034523512055        1.52510357209006        0.41318180990309
C           -0.69415805333988        2.47779537325085       -0.72963301484847
C           -0.26435212252227        2.29217317245266        1.73625349678780
N            0.98392311559292        0.94747783241888        0.07504395639938
C            1.78710687714977        0.29607468598172        0.91388795071712
O            1.59298161409838        0.03104452449776        2.09023319380107
C            3.05895209072103       -0.14211583567567        0.26066221375972
O            3.34859579406634        0.07933880745280       -1.01733085534096
C            4.57379571894561       -0.44012511356046       -1.21700322598256
C            5.21406279010815       -0.36176148554042       -2.54066919895653
N            5.04306967993739       -0.96818913524693       -0.12626041789513
N            4.08329123863302       -0.77311040472278        0.79979731439578
C            4.29396772011780       -1.24770370697721        2.15128626195424
N           -1.21640507431399       -0.57661639151540        1.42344373824845
C           -2.07173203175913       -1.64281758596592        1.55484380717455
O           -1.86157756253891       -2.49156615335722        2.41540180552918
C           -3.24390553714788       -1.67063981386715        0.59730783018947
O           -4.05565403238171       -2.60686315228666        0.67847758649268
H           -6.83814570019392       -0.23196030166269       -2.16671266296088
H           -5.92705957438645       -1.25430445289953       -3.30343681536338
H           -7.04715524801071       -2.00671427024507       -2.13174537226782
H            0.04697214217527        3.27100496101580       -0.79735074258161
H           -0.73086807047417        1.93585965800400       -1.67380835938959
H           -1.67389968411987        2.91654365660870       -0.54531549329607
H            0.54487657730452        3.01855934545239        1.69432301693210
H           -0.09439449851863        1.62457457372362        2.57741625059419
H           -1.20515502231626        2.81892292955088        1.89196625205478
H            1.30655642308369        1.08791378920293       -0.86859657396982
H            6.20359233973209       -0.81050014542121       -2.50099492756963
H            5.29139038248578        0.68198802828314       -2.84713414149764
H            4.59988091169257       -0.88028693659203       -3.27816733701407
H            4.03667573255498       -2.30607978109102        2.19526750890082
H            5.34517275370318       -1.11245772753007        2.39416426766716
H            3.65785332836106       -0.68036110420242        2.82674351157968
H           -0.42589636712466       -0.54702508693796        2.05028355968524

          :  Hamiltonian                  GFN1-xTB          :
         :: total energy             -82.982735452519 Eh    ::
         :: gradient norm              0.000729012980 Eh/a0 ::
         :: HOMO-LUMO gap              0.209335714170 eV    ::
         :: SCC energy               -83.769032965809 Eh    ::
         :: -> Gsolv                  -0.110405492871 Eh    ::
         :: repulsion energy           0.811643582400 Eh    ::

    * Orbital Energies and Occupations

         #    Occupation            Energy/Eh            Energy/eV
      -------------------------------------------------------------
         1        2.0000           -0.9275797             -25.2407
       ...           ...                  ...                  ...
        55        2.0000           -0.5092203             -13.8566
        56        2.0000           -0.5039438             -13.7130
        57        2.0000           -0.5005922             -13.6218
        58        2.0000           -0.4923562             -13.3977
        59        2.0000           -0.4860378             -13.2258
        60        2.0000           -0.4730362             -12.8720
        61        2.0000           -0.4700593             -12.7910
        62        2.0000           -0.4638681             -12.6225
        63        2.0000           -0.4479336             -12.1889
        64        2.0000           -0.4435494             -12.0696
        65        2.0000           -0.4257456             -11.5851
        66        2.0000           -0.3871403             -10.5346
        67        1.9657           -0.3749179             -10.2020 (HOMO)
        68        0.0343           -0.3672250              -9.9927 (LUMO)
        69                         -0.3156119              -8.5882
        70                         -0.2771322              -7.5412
        71                         -0.2516575              -6.8479
        72                         -0.2438268              -6.6349
        73                         -0.2039693              -5.5503
        74                         -0.1651121              -4.4929
        75                         -0.1634012              -4.4464
        76                         -0.1310081              -3.5649
        77                         -0.1255128              -3.4154
        78                         -0.1239443              -3.3727
       ...                                ...                  ...
       134                          0.7527026              20.4821
      -------------------------------------------------------------
                  HL-Gap            0.0076929 Eh            0.2093 eV

Wiberg/Mayer (AO) data.
largest (>0.10) Wiberg bond orders for each atom

     #   Z sym  total        # sym  WBO       # sym  WBO       # sym  WBO
 ---------------------------------------------------------------------------
     1   6 C    3.894 --    28 H    0.987    27 H    0.980    26 H    0.980
                             2 O    0.920
     2   8 O    2.167 --     3 C    1.060     1 C    0.920     4 O    0.114
     3   6 C    3.847 --     4 O    1.586     5 C    1.096     2 O    1.060
     4   8 O    1.854 --     3 C    1.586     2 O    0.114
     5   6 C    3.876 --    24 C    1.255     6 N    1.172     3 C    1.096
                            25 O    0.118
     6   7 N    3.029 --     7 C    1.612     5 C    1.172
     7   6 C    3.919 --     6 N    1.612    21 N    1.108     8 C    0.965
     8   6 C    3.910 --     9 C    1.001    10 C    0.990     7 C    0.965
                            11 N    0.887
     9   6 C    3.990 --     8 C    1.001    29 H    0.986    30 H    0.982
                            31 H    0.981
    10   6 C    3.987 --     8 C    0.990    32 H    0.984    34 H    0.983
                            33 H    0.979
    11   7 N    3.397 --    12 C    1.319    35 H    0.889     8 C    0.887
                            13 O    0.197
    12   6 C    3.918 --    13 O    1.547    11 N    1.319    14 C    0.972
    13   8 O    1.921 --    12 C    1.547    11 N    0.197
    14   6 C    3.798 --    19 N    1.424    15 O    1.110    12 C    0.972
    15   8 O    2.348 --    14 C    1.110    16 C    1.065
    16   6 C    3.839 --    18 N    1.585    15 O    1.065    17 C    1.042
    17   6 C    3.972 --    16 C    1.042    36 H    0.978    37 H    0.951
                            38 H    0.950
    18   7 N    2.960 --    16 C    1.585    19 N    1.147
    19   7 N    3.613 --    14 C    1.424    18 N    1.147    20 C    0.911
    20   6 C    3.882 --    40 H    0.974    41 H    0.971    39 H    0.961
                            19 N    0.911
    21   7 N    3.427 --    22 C    1.157     7 C    1.108    42 H    0.880
                            23 O    0.134
    22   6 C    3.875 --    23 O    1.588    21 N    1.157    24 C    0.964
    23   8 O    1.861 --    22 C    1.588    21 N    0.134
    24   6 C    3.931 --    25 O    1.535     5 C    1.255    22 C    0.964
    25   8 O    1.817 --    24 C    1.535     5 C    0.118
    26   1 H    1.013 --     1 C    0.980
    27   1 H    1.012 --     1 C    0.980
    28   1 H    1.015 --     1 C    0.987
    29   1 H    0.999 --     9 C    0.986
    30   1 H    1.008 --     9 C    0.982
    31   1 H    1.009 --     9 C    0.981
    32   1 H    0.999 --    10 C    0.984
    33   1 H    1.008 --    10 C    0.979
    34   1 H    1.001 --    10 C    0.983
    35   1 H    0.930 --    11 N    0.889
    36   1 H    0.991 --    17 C    0.978
    37   1 H    0.990 --    17 C    0.951
    38   1 H    0.989 --    17 C    0.950
    39   1 H    0.990 --    20 C    0.961
    40   1 H    0.993 --    20 C    0.974
    41   1 H    1.005 --    20 C    0.971
    42   1 H    0.947 --    21 N    0.880
 ---------------------------------------------------------------------------

           -------------------------------------------------
          | TOTAL ENERGY              -82.982735452519 Eh   |
          | GRADIENT NORM               0.000729012980 Eh/α |
          | HOMO-LUMO GAP               0.209335714170 eV   |
           -------------------------------------------------

 * finished run on 2023/06/21 at 17:21:55.394
