   * xtb version 6.5.1 (579679a) compiled by 'ehlert@majestix' on 2022-07-11
          program call               : /lustre/hpc/kemi/ree/PhD/git/ReactivityQM/dep/xtb-6.5.1/bin/xtb --gfn 1 /lustre/hpc/kemi/ree/PhD/git/ReactivityQM/calculations/R02/reac01prodN16/conf20/R02_reac01prodN16_conf20_gfn1.xyz --opt --vfukui --chrg 1 --uhf 0 --alpb DMSO

   ID    Z sym.   atoms
    1    6 C      1, 2, 5, 6, 9-12, 14, 15, 18-20, 22
    2    7 N      3, 4, 8, 13, 24
    3    8 O      7, 16, 17, 21, 23, 25
    4    1 H      26-43

      * Solvation model:               ALPB
        Solvent                        DMSO
        Solvent mass                       7.8130E+01 g/mol
          :  Hamiltonian                  GFN1-xTB          :
 * total energy  :   -83.0996847 Eh     change       -0.3041123E-10 Eh
 * total energy  :   -83.1135518 Eh     change       -0.1386711E-01 Eh
 * total energy  :   -83.1185899 Eh     change       -0.5038137E-02 Eh
 * total energy  :   -83.1200221 Eh     change       -0.1432133E-02 Eh
 * total energy  :   -83.1209814 Eh     change       -0.9593338E-03 Eh
 * total energy  :   -83.1216232 Eh     change       -0.6418166E-03 Eh
 * total energy  :   -83.1221633 Eh     change       -0.5400492E-03 Eh
 * total energy  :   -83.1226008 Eh     change       -0.4375221E-03 Eh
 * total energy  :   -83.1228870 Eh     change       -0.2862166E-03 Eh
 * total energy  :   -83.1232320 Eh     change       -0.3449694E-03 Eh
 * total energy  :   -83.1281624 Eh     change       -0.1199670E-04 Eh
 * total energy  :   -83.1281723 Eh     change       -0.9879709E-05 Eh
 * total energy  :   -83.1281810 Eh     change       -0.8663167E-05 Eh
 * total energy  :   -83.1281791 Eh     change        0.1869712E-05 Eh
 * total energy  :   -83.1281845 Eh     change       -0.5377062E-05 Eh
 * total energy  :   -83.1281899 Eh     change       -0.5437216E-05 Eh
 * total energy  :   -83.1281935 Eh     change       -0.3559036E-05 Eh
 * total energy  :   -83.1281988 Eh     change       -0.5344093E-05 Eh
 * total energy  :   -83.1282006 Eh     change       -0.1820699E-05 Eh
   *** GEOMETRY OPTIMIZATION CONVERGED AFTER 41 ITERATIONS ***

 final structure:
================
43
 xtb: 6.5.1 (579679a)
C            5.26538384718071       -2.92903516851439        1.26036720307769
C            5.25393438224326       -1.61718295603701        0.57818213067396
N            6.26116963651776       -0.95527153869211        0.10047419573459
N            5.75963847272660        0.19172019894000       -0.43582188642721
C            4.47716568581020        0.16199747983524       -0.25160093984034
C            3.47160601627674        1.16967200705275       -0.66441267557480
O            3.77029806202001        2.18320018055808       -1.26799800663799
N            2.21793014147885        0.82801709874593       -0.27333925870579
C            1.02686630072178        1.57409687977694       -0.68793307859495
C            1.11948064633690        3.03319159107755       -0.21293844771602
C            0.85868454373568        1.49083280902872       -2.20803473344159
C           -0.15406673973583        0.93709946472218        0.00871285938280
N           -1.25611276166837        0.74934559930818       -0.63166704094309
C           -2.33854345506128        0.18773080848207        0.01096085358300
C           -3.49617988637584        0.09899899104963       -0.85262130378947
O           -3.70175795232918        0.57316979163763       -1.91455297420632
O           -4.62957053377618       -0.67204730660866       -0.23306339243164
C           -5.92696691239129       -0.31132962757387       -0.79313428053591
C           -4.42539089069698       -2.11393801050582       -0.12851626149502
C           -2.26449010675770       -0.14882901531739        1.34214696519102
O           -3.25412300195351       -0.68163612614439        2.03840834324115
C           -1.01897631995706        0.08941781340056        2.08997798489008
O           -0.91522627949987       -0.18153624564081        3.26972506426721
N           -0.01402540550527        0.63148918839483        1.33571164821904
O            4.09452767786880       -0.96541677091021        0.38772949151511
H            4.80087435962443       -2.83868438273642        2.24169362023495
H            6.28874117971821       -3.28123847723038        1.36790464773597
H            4.68799523284094       -3.65083301200800        0.68267341014305
H            2.07939238762281       -0.09769227105371        0.09384197452683
H            1.91152990220549        3.55216130721060       -0.74982561629217
H            1.33021092077204        3.06282589920641        0.85424258561933
H            0.17140614523963        3.53373241395593       -0.40318861534416
H           -0.05262993279145        2.00890722987716       -2.50210627440716
H            1.71222885537037        1.95546916610870       -2.69916920650343
H            0.78759098730005        0.44898990143637       -2.51504936908319
H           -5.97660384769081       -0.62826148878983       -1.83481432607631
H           -6.67312206580204       -0.81727387232228       -0.18671179338072
H           -6.01543713332337        0.76895862293964       -0.70390436677473
H           -3.38744847615124       -2.27810389712476        0.14182290979076
H           -4.65955809493229       -2.57992143907599       -1.08485200618234
H           -5.08742132356126       -2.46091575392846        0.66045735679042
H           -2.96766610324810       -0.81225926323937        2.96685487666892
H            0.86866083961797        0.79038418073731        1.80336973312316

          :  Hamiltonian                  GFN1-xTB          :
         :: total energy             -83.128200619747 Eh    ::
         :: gradient norm              0.000682054771 Eh/a0 ::
         :: HOMO-LUMO gap              1.984768272092 eV    ::
         :: SCC energy               -83.934812831987 Eh    ::
         :: -> Gsolv                  -0.128268660660 Eh    ::
         :: repulsion energy           0.832877265615 Eh    ::

    * Orbital Energies and Occupations

         #    Occupation            Energy/Eh            Energy/eV
      -------------------------------------------------------------
         1        2.0000           -0.9304685             -25.3193
       ...           ...                  ...                  ...
        55        2.0000           -0.5252742             -14.2934
        56        2.0000           -0.5223828             -14.2148
        57        2.0000           -0.5163895             -14.0517
        58        2.0000           -0.5102055             -13.8834
        59        2.0000           -0.5081264             -13.8268
        60        2.0000           -0.4931139             -13.4183
        61        2.0000           -0.4841518             -13.1744
        62        2.0000           -0.4821804             -13.1208
        63        2.0000           -0.4708622             -12.8128
        64        2.0000           -0.4679021             -12.7323
        65        2.0000           -0.4636862             -12.6175
        66        2.0000           -0.4556191             -12.3980
        67        2.0000           -0.4535330             -12.3413 (HOMO)
        68                         -0.3805941             -10.3565 (LUMO)
        69                         -0.3166433              -8.6163
        70                         -0.3146043              -8.5608
        71                         -0.2910126              -7.9189
        72                         -0.2591986              -7.0532
        73                         -0.2039742              -5.5504
        74                         -0.1990261              -5.4158
        75                         -0.1811538              -4.9294
        76                         -0.1722910              -4.6883
        77                         -0.1428547              -3.8873
        78                         -0.1380214              -3.7558
       ...                                ...                  ...
       136                          0.7477660              20.3477
      -------------------------------------------------------------
                  HL-Gap            0.0729389 Eh            1.9848 eV

Wiberg/Mayer (AO) data.
largest (>0.10) Wiberg bond orders for each atom

     #   Z sym  total        # sym  WBO       # sym  WBO       # sym  WBO
 ---------------------------------------------------------------------------
     1   6 C    3.986 --     2 C    1.032    27 H    0.982    26 H    0.963
                            28 H    0.961
     2   6 C    3.867 --     3 N    1.609    25 O    1.071     1 C    1.032
     3   7 N    2.982 --     2 C    1.609     4 N    1.200
     4   7 N    3.002 --     5 C    1.622     3 N    1.200
     5   6 C    3.873 --     4 N    1.622    25 O    1.045     6 C    0.996
     6   6 C    3.913 --     7 O    1.603     8 N    1.229     5 C    0.996
     7   8 O    1.916 --     6 C    1.603     8 N    0.170
     8   7 N    3.322 --     6 C    1.229     9 C    0.928    29 H    0.892
                             7 O    0.170
     9   6 C    3.934 --    11 C    0.989    12 C    0.983    10 C    0.972
                             8 N    0.928
    10   6 C    3.984 --    32 H    0.985    31 H    0.984    30 H    0.975
                             9 C    0.972
    11   6 C    3.987 --     9 C    0.989    35 H    0.985    33 H    0.983
                            34 H    0.981
    12   6 C    3.921 --    13 N    1.600    24 N    1.159     9 C    0.983
    13   7 N    3.023 --    12 C    1.600    14 C    1.150
    14   6 C    3.960 --    20 C    1.447    13 N    1.150    15 C    1.098
    15   6 C    3.801 --    16 O    1.824    14 C    1.098    17 O    0.742
    16   8 O    2.085 --    15 C    1.824
    17   8 O    2.483 --    18 C    0.814    19 C    0.807    15 C    0.742
    18   6 C    3.785 --    36 H    0.979    37 H    0.977    38 H    0.976
                            17 O    0.814
    19   6 C    3.783 --    40 H    0.979    41 H    0.976    39 H    0.976
                            17 O    0.807
    20   6 C    3.911 --    14 C    1.447    21 O    1.155    22 C    1.029
    21   8 O    2.132 --    20 C    1.155    42 H    0.778
    22   6 C    3.915 --    23 O    1.612    24 N    1.153    20 C    1.029
    23   8 O    1.937 --    22 C    1.612    24 N    0.142
    24   7 N    3.477 --    12 C    1.159    22 C    1.153    43 H    0.871
                            23 O    0.142
    25   8 O    2.315 --     2 C    1.071     5 C    1.045
    26   1 H    0.996 --     1 C    0.963
    27   1 H    0.998 --     1 C    0.982
    28   1 H    0.996 --     1 C    0.961
    29   1 H    0.935 --     8 N    0.892
    30   1 H    1.009 --    10 C    0.975
    31   1 H    1.000 --    10 C    0.984
    32   1 H    1.000 --    10 C    0.985
    33   1 H    1.007 --    11 C    0.983
    34   1 H    1.005 --    11 C    0.981
    35   1 H    1.003 --    11 C    0.985
    36   1 H    0.996 --    18 C    0.979
    37   1 H    0.993 --    18 C    0.977
    38   1 H    0.995 --    18 C    0.976
    39   1 H    1.000 --    19 C    0.976
    40   1 H    0.991 --    19 C    0.979
    41   1 H    0.996 --    19 C    0.976
    42   1 H    0.819 --    21 O    0.778
    43   1 H    0.915 --    24 N    0.871
 ---------------------------------------------------------------------------

           -------------------------------------------------
          | TOTAL ENERGY              -83.128200619747 Eh   |
          | GRADIENT NORM               0.000682054771 Eh/α |
          | HOMO-LUMO GAP               1.984768272092 eV   |
           -------------------------------------------------

 * finished run on 2023/06/20 at 15:43:01.427
