                         Program Version 5.0.1 -  RELEASE  -
|  1> # ORCA input file
|  2> ! SP r2SCAN-3c CPCM
|  3>
|  4> %maxcore 1875.0
|  5> %pal nprocs 4 end
|  6> %cpcm smd true SMDsolvent "DMSO" end
|  7>
|  8> *xyz -2 1
|  9> C       7.008911   -0.309068    0.821376
| 10> O       5.706354    0.249786    0.941881
| 11> C       4.765839   -0.250188    0.115492
| 12> O       5.028806   -1.129148   -0.685156
| 13> C       3.433854    0.366163    0.283766
| 14> N       2.477489   -0.103901   -0.575872
| 15> C       1.261958    0.391450   -0.481049
| 16> C       0.206657   -0.110486   -1.467933
| 17> C      -0.104617    1.064827   -2.420886
| 18> C       0.746002   -1.312190   -2.253612
| 19> N      -0.958823   -0.502917   -0.676156
| 20> C      -2.210899   -0.737019   -1.349278
| 21> O      -2.229895   -1.107122   -2.564529
| 22> C      -3.301745   -0.784383   -0.504940
| 23> O      -3.297036   -0.154974    0.785543
| 24> C      -4.553047    0.255933    0.967306
| 25> C      -4.889563    0.977792    2.228429
| 26> N      -5.400606   -0.005465    0.044998
| 27> N      -4.688097   -0.723976   -0.988256
| 28> C      -5.298608   -2.060770   -1.077516
| 29> N       0.842925    1.326894    0.379029
| 30> C       1.728359    1.844584    1.254278
| 31> O       1.459642    2.728182    2.099622
| 32> C       3.099525    1.330617    1.198899
| 33> O       3.946064    1.881062    2.103556
| 34> H       7.378225   -0.207286   -0.203614
| 35> H       6.998012   -1.369578    1.090406
| 36> H       7.654448    0.239902    1.504929
| 37> H      -0.489343    1.909351   -1.848174
| 38> H      -0.841371    0.773662   -3.168994
| 39> H       0.808087    1.375646   -2.930250
| 40> H       1.673144   -1.039978   -2.758904
| 41> H       0.022141   -1.641940   -2.997849
| 42> H       0.951871   -2.137421   -1.570504
| 43> H      -1.081400    0.137723    0.108188
| 44> H      -5.955200    1.190582    2.255329
| 45> H      -4.333511    1.913018    2.291887
| 46> H      -4.621987    0.365449    3.088889
| 47> H      -6.349543   -1.948393   -1.341655
| 48> H      -4.780088   -2.609541   -1.863404
| 49> H      -5.216649   -2.608103   -0.132198
| 50> H       3.403715    2.531226    2.601268
| 51> **                         ****END OF INPUT****

CARTESIAN COORDINATES (ANGSTROEM)
---------------------------------
  C      7.008911   -0.309068    0.821376
  O      5.706354    0.249786    0.941881
  C      4.765839   -0.250188    0.115492
  O      5.028806   -1.129148   -0.685156
  C      3.433854    0.366163    0.283766
  N      2.477489   -0.103901   -0.575872
  C      1.261958    0.391450   -0.481049
  C      0.206657   -0.110486   -1.467933
  C     -0.104617    1.064827   -2.420886
  C      0.746002   -1.312190   -2.253612
  N     -0.958823   -0.502917   -0.676156
  C     -2.210899   -0.737019   -1.349278
  O     -2.229895   -1.107122   -2.564529
  C     -3.301745   -0.784383   -0.504940
  O     -3.297036   -0.154974    0.785543
  C     -4.553047    0.255933    0.967306
  C     -4.889563    0.977792    2.228429
  N     -5.400606   -0.005465    0.044998
  N     -4.688097   -0.723976   -0.988256
  C     -5.298608   -2.060770   -1.077516
  N      0.842925    1.326894    0.379029
  C      1.728359    1.844584    1.254278
  O      1.459642    2.728182    2.099622
  C      3.099525    1.330617    1.198899
  O      3.946064    1.881062    2.103556
  H      7.378225   -0.207286   -0.203614
  H      6.998012   -1.369578    1.090406
  H      7.654448    0.239902    1.504929
  H     -0.489343    1.909351   -1.848174
  H     -0.841371    0.773662   -3.168994
  H      0.808087    1.375646   -2.930250
  H      1.673144   -1.039978   -2.758904
  H      0.022141   -1.641940   -2.997849
  H      0.951871   -2.137421   -1.570504
  H     -1.081400    0.137723    0.108188
  H     -5.955200    1.190582    2.255329
  H     -4.333511    1.913018    2.291887
  H     -4.621987    0.365449    3.088889
  H     -6.349543   -1.948393   -1.341655
  H     -4.780088   -2.609541   -1.863404
  H     -5.216649   -2.608103   -0.132198
  H      3.403715    2.531226    2.601268

 Total Charge           Charge          ....   -2
 Multiplicity           Mult            ....    1
 Number of Electrons    NEL             ....  186
 Basis Dimension        Dim             ....  615

ORBITAL ENERGIES
----------------

  NO   OCC          E(Eh)            E(eV)
   0   2.0000     -18.986751      -516.6558
   1   2.0000     -18.978265      -516.4248
   2   2.0000     -18.969823      -516.1951
   3   2.0000     -18.921511      -514.8805
   4   2.0000     -18.890023      -514.0237
   5   2.0000     -18.846337      -512.8349
   6   2.0000     -14.167512      -385.5176
   7   2.0000     -14.149066      -385.0157
   8   2.0000     -14.124279      -384.3412
   9   2.0000     -14.121450      -384.2642
  10   2.0000     -14.121415      -384.2632
  11   2.0000     -10.143764      -276.0259
  12   2.0000     -10.101963      -274.8884
  13   2.0000     -10.093377      -274.6548
  14   2.0000     -10.082386      -274.3557
  15   2.0000     -10.068426      -273.9758
  16   2.0000     -10.067442      -273.9490
  17   2.0000     -10.058017      -273.6926
  18   2.0000     -10.056071      -273.6396
  19   2.0000     -10.051077      -273.5037
  20   2.0000     -10.026092      -272.8238
  21   2.0000     -10.024793      -272.7885
  22   2.0000     -10.024298      -272.7750
  23   2.0000      -9.993537      -271.9380
  24   2.0000      -9.988466      -271.8000
  25   2.0000      -1.058622       -28.8066
  26   2.0000      -1.052502       -28.6400
  27   2.0000      -1.018983       -27.7279
  28   2.0000      -0.965437       -26.2709
  29   2.0000      -0.956386       -26.0246
  30   2.0000      -0.918560       -24.9953
  31   2.0000      -0.908221       -24.7139
  32   2.0000      -0.905788       -24.6478
  33   2.0000      -0.832937       -22.6654
  34   2.0000      -0.809887       -22.0381
  35   2.0000      -0.783643       -21.3240
  36   2.0000      -0.736976       -20.0541
  37   2.0000      -0.704280       -19.1644
  38   2.0000      -0.690539       -18.7905
  39   2.0000      -0.675283       -18.3754
  40   2.0000      -0.641722       -17.4621
  41   2.0000      -0.631701       -17.1895
  42   2.0000      -0.603373       -16.4186
  43   2.0000      -0.596880       -16.2419
  44   2.0000      -0.580118       -15.7858
  45   2.0000      -0.529573       -14.4104
  46   2.0000      -0.524761       -14.2795
  47   2.0000      -0.521081       -14.1793
  48   2.0000      -0.504430       -13.7262
  49   2.0000      -0.484213       -13.1761
  50   2.0000      -0.473978       -12.8976
  51   2.0000      -0.457792       -12.4571
  52   2.0000      -0.447737       -12.1835
  53   2.0000      -0.438896       -11.9430
  54   2.0000      -0.435169       -11.8415
  55   2.0000      -0.423384       -11.5209
  56   2.0000      -0.419212       -11.4073
  57   2.0000      -0.408728       -11.1220
  58   2.0000      -0.392862       -10.6903
  59   2.0000      -0.388365       -10.5679
  60   2.0000      -0.377883       -10.2827
  61   2.0000      -0.375234       -10.2106
  62   2.0000      -0.372100       -10.1254
  63   2.0000      -0.366820        -9.9817
  64   2.0000      -0.364228        -9.9111
  65   2.0000      -0.361440        -9.8353
  66   2.0000      -0.358028        -9.7424
  67   2.0000      -0.354100        -9.6355
  68   2.0000      -0.343043        -9.3347
  69   2.0000      -0.341685        -9.2977
  70   2.0000      -0.337144        -9.1742
  71   2.0000      -0.330735        -8.9997
  72   2.0000      -0.322499        -8.7756
  73   2.0000      -0.313669        -8.5354
  74   2.0000      -0.309541        -8.4230
  75   2.0000      -0.305084        -8.3017
  76   2.0000      -0.303082        -8.2473
  77   2.0000      -0.298579        -8.1248
  78   2.0000      -0.294589        -8.0162
  79   2.0000      -0.282527        -7.6880
  80   2.0000      -0.262004        -7.1295
  81   2.0000      -0.260203        -7.0805
  82   2.0000      -0.254329        -6.9207
  83   2.0000      -0.246900        -6.7185
  84   2.0000      -0.235914        -6.4195
  85   2.0000      -0.230541        -6.2733
  86   2.0000      -0.204892        -5.5754
  87   2.0000      -0.200997        -5.4694
  88   2.0000      -0.195682        -5.3248
  89   2.0000      -0.186018        -5.0618
  90   2.0000      -0.174150        -4.7388
  91   2.0000      -0.164512        -4.4766
  92   2.0000      -0.090151        -2.4531
  93   0.0000      -0.059173        -1.6102
  94   0.0000      -0.000152        -0.0041
  95   0.0000       0.014859         0.4043
  96   0.0000       0.047714         1.2984
  97   0.0000       0.051330         1.3968

MULLIKEN ATOMIC CHARGES
-----------------------
   0 C :   -0.321662
   1 O :   -0.158501
   2 C :    0.079760
   3 O :   -0.409602
   4 C :    0.121906
   5 N :   -0.166206
   6 C :    0.232906
   7 C :    0.218124
   8 C :   -0.701565
   9 C :   -0.723360
  10 N :   -0.271505
  11 C :    0.064844
  12 O :   -0.548383
  13 C :   -0.218283
  14 O :   -0.120462
  15 C :    0.377917
  16 C :   -0.653727
  17 N :   -0.344526
  18 N :   -0.160362
  19 C :   -0.413647
  20 N :   -0.277070
  21 C :   -0.045404
  22 O :   -0.479769
  23 C :    0.035397
  24 O :   -0.360027
  25 H :    0.169738
  26 H :    0.169410
  27 H :    0.170350
  28 H :    0.177984
  29 H :    0.193472
  30 H :    0.166105
  31 H :    0.168392
  32 H :    0.188000
  33 H :    0.168858
  34 H :    0.292386
  35 H :    0.188824
  36 H :    0.183973
  37 H :    0.183369
  38 H :    0.157019
  39 H :    0.172081
  40 H :    0.151881
  41 H :    0.341367
Sum of atomic charges:   -2.0000000

LOEWDIN ATOMIC CHARGES
----------------------
   0 C :   -0.046514
   1 O :   -0.587833
   2 C :    0.399507
   3 O :   -0.438328
   4 C :    0.166832
   5 N :   -0.628837
   6 C :    0.304185
   7 C :    0.089058
   8 C :   -0.380018
   9 C :   -0.377204
  10 N :   -0.701546
  11 C :    0.292444
  12 O :   -0.655953
  13 C :    0.234433
  14 O :   -0.516774
  15 C :    0.336298
  16 C :   -0.333261
  17 N :   -0.443272
  18 N :   -0.667044
  19 C :   -0.131409
  20 N :   -0.587017
  21 C :    0.300043
  22 O :   -0.570507
  23 C :    0.255304
  24 O :   -0.481229
  25 H :    0.178964
  26 H :    0.177612
  27 H :    0.181603
  28 H :    0.164978
  29 H :    0.173290
  30 H :    0.158452
  31 H :    0.162260
  32 H :    0.172223
  33 H :    0.162428
  34 H :    0.282696
  35 H :    0.179418
  36 H :    0.178692
  37 H :    0.179902
  38 H :    0.172135
  39 H :    0.178750
  40 H :    0.159035
  41 H :    0.306203

  Mayer bond orders larger than 0.100000
B(  0-C ,  1-O ) :   0.8419 B(  0-C , 25-H ) :   0.9590 B(  0-C , 26-H ) :   0.9571
B(  0-C , 27-H ) :   0.9666 B(  1-O ,  2-C ) :   1.1443 B(  2-C ,  3-O ) :   1.9175
B(  2-C ,  4-C ) :   1.0434 B(  2-C ,  5-N ) :   0.1340 B(  4-C ,  5-N ) :   0.9493
B(  4-C , 23-C ) :   1.3221 B(  5-N ,  6-C ) :   1.7082 B(  5-N ,  7-C ) :  -0.1233
B(  6-C ,  7-C ) :   0.8656 B(  6-C , 20-N ) :   1.1355 B(  7-C ,  8-C ) :   0.8033
B(  7-C ,  9-C ) :   0.8631 B(  7-C , 10-N ) :   0.9392 B(  8-C , 28-H ) :   0.9848
B(  8-C , 29-H ) :   0.9757 B(  8-C , 30-H ) :   0.9697 B(  9-C , 31-H ) :   0.9810
B(  9-C , 32-H ) :   0.9717 B(  9-C , 33-H ) :   0.9877 B( 10-N , 11-C ) :   0.9686
B( 10-N , 34-H ) :   0.8568 B( 11-C , 12-O ) :   1.7764 B( 11-C , 13-C ) :   1.3796
B( 13-C , 14-O ) :   0.8377 B( 13-C , 18-N ) :   0.8448 B( 14-O , 15-C ) :   1.1226
B( 15-C , 16-C ) :   0.8402 B( 15-C , 17-N ) :   1.7638 B( 16-C , 35-H ) :   0.9994
B( 16-C , 36-H ) :   0.9474 B( 16-C , 37-H ) :   0.9543 B( 17-N , 18-N ) :   1.1505
B( 18-N , 19-C ) :   0.9009 B( 19-C , 38-H ) :   0.9727 B( 19-C , 39-H ) :   0.9708
B( 19-C , 40-H ) :   0.9598 B( 20-N , 21-C ) :   1.3707 B( 21-C , 22-O ) :   1.9720
B( 21-C , 23-C ) :   0.9240 B( 22-O , 23-C ) :  -0.1065 B( 23-C , 24-O ) :   1.1032
B( 24-O , 41-H ) :   0.8058

Dispersion correction           -0.018646570
FINAL SINGLE POINT ENERGY     -1268.838808828145

DIPOLE MOMENT
-------------
                                X             Y             Z
Electronic contribution:     11.57331       5.62662       7.24727
Nuclear contribution   :     -8.00465      -4.91787      -4.53397
                        -----------------------------------------
Total Dipole Moment    :      3.56866       0.70875       2.71330
                        -----------------------------------------
Magnitude (a.u.)       :      4.53868
Magnitude (Debye)      :     11.53642

Rotational constants in cm-1:     0.015487     0.003289     0.002882
Rotational constants in MHz :   464.281219    98.601395    86.397956

                             ****ORCA TERMINATED NORMALLY****
TOTAL RUN TIME: 0 days 0 hours 1 minutes 41 seconds 179 msec
