   * xtb version 6.5.1 (579679a) compiled by 'ehlert@majestix' on 2022-07-11
          program call               : /lustre/hpc/kemi/ree/PhD/git/ReactivityQM/dep/xtb-6.5.1/bin/xtb --gfn 1 /lustre/hpc/kemi/ree/PhD/git/ReactivityQM/calculations/R02deprot/reac01prodE09/conf19/R02deprot_reac01prodE09_conf19_gfn1.xyz --opt --vfukui --chrg -2 --uhf 0 --alpb DMSO

   ID    Z sym.   atoms
    1    6 C      1, 3, 5, 7-10, 12, 14, 16, 17, 20, 22, 24
    2    8 O      2, 4, 13, 15, 23, 25
    3    7 N      6, 11, 18, 19, 21
    4    1 H      26-42

      * Solvation model:               ALPB
        Solvent                        DMSO
        Solvent mass                       7.8130E+01 g/mol
          :  Hamiltonian                  GFN1-xTB          :
 * total energy  :   -83.5837516 Eh     change       -0.2614215E-08 Eh
 * total energy  :   -83.5969608 Eh     change       -0.1320911E-01 Eh
 * total energy  :   -83.6014254 Eh     change       -0.4464635E-02 Eh
 * total energy  :   -83.6024723 Eh     change       -0.1046904E-02 Eh
 * total energy  :   -83.6044630 Eh     change       -0.1990738E-02 Eh
 * total energy  :   -83.6066453 Eh     change       -0.2182308E-02 Eh
 * total energy  :   -83.6089428 Eh     change       -0.2297466E-02 Eh
 * total energy  :   -83.6111863 Eh     change       -0.2243489E-02 Eh
 * total energy  :   -83.6127952 Eh     change       -0.1608927E-02 Eh
 * total energy  :   -83.6140110 Eh     change       -0.1215740E-02 Eh
 * total energy  :   -83.6199562 Eh     change       -0.1316597E-04 Eh
 * total energy  :   -83.6199715 Eh     change       -0.1529428E-04 Eh
 * total energy  :   -83.6199774 Eh     change       -0.5936405E-05 Eh
 * total energy  :   -83.6199841 Eh     change       -0.6677832E-05 Eh
 * total energy  :   -83.6199900 Eh     change       -0.5864027E-05 Eh
 * total energy  :   -83.6199956 Eh     change       -0.5593572E-05 Eh
 * total energy  :   -83.6199960 Eh     change       -0.4288340E-06 Eh
 * total energy  :   -83.6200019 Eh     change       -0.5935371E-05 Eh
 * total energy  :   -83.6200049 Eh     change       -0.2922357E-05 Eh
   *** GEOMETRY OPTIMIZATION CONVERGED AFTER 45 ITERATIONS ***

 final structure:
================
42
 xtb: 6.5.1 (579679a)
C            7.00891050675944       -0.30906818843363        0.82137598101878
O            5.70635399299043        0.24978646277472        0.94188095207178
C            4.76583905145070       -0.25018815536991        0.11549172132273
O            5.02880648617050       -1.12914820058164       -0.68515626725493
C            3.43385446861936        0.36616319408806        0.28376599636918
N            2.47748862990780       -0.10390121095228       -0.57587192246048
C            1.26195843800893        0.39144950094345       -0.48104925500218
C            0.20665694556622       -0.11048589828495       -1.46793320649469
C           -0.10461689880832        1.06482652519162       -2.42088635494125
C            0.74600209429618       -1.31218999737228       -2.25361228775238
N           -0.95882316273335       -0.50291674687959       -0.67615555658411
C           -2.21089883467305       -0.73701915742264       -1.34927812382558
O           -2.22989481208029       -1.10712214080372       -2.56452867829452
C           -3.30174496587902       -0.78438294829806       -0.50494049433634
O           -3.29703617769962       -0.15497377804873        0.78554308251806
C           -4.55304674672606        0.25593298265999        0.96730633465920
C           -4.88956273132025        0.97779157066360        2.22842867459977
N           -5.40060617686800       -0.00546481479556        0.04499783199302
N           -4.68809706168676       -0.72397598088161       -0.98825638285178
C           -5.29860844405740       -2.06077021610546       -1.07751623305432
N            0.84292470100533        1.32689351415807        0.37902854578792
C            1.72835888032530        1.84458390311368        1.25427833719700
O            1.45964198369961        2.72818213677182        2.09962207697763
C            3.09952462375230        1.33061709240278        1.19889909984743
O            3.94606406643351        1.88106236272539        2.10355596640632
H            7.37822546696045       -0.20728563379047       -0.20361444226777
H            6.99801217991231       -1.36957803753812        1.09040557706799
H            7.65444763847074        0.23990246152870        1.50492909461010
H           -0.48934326457886        1.90935102335687       -1.84817447785816
H           -0.84137094111750        0.77366172121952       -3.16899389277968
H            0.80808696895580        1.37564614795637       -2.93025009338636
H            1.67314435452239       -1.03997793638391       -2.75890440696450
H            0.02214051035134       -1.64194034589053       -2.99784946987940
H            0.95187146910742       -2.13742121023527       -1.57050423661637
H           -1.08139963749626        0.13772294094714        0.10818843544869
H           -5.95520047929667        1.19058239169840        2.25532860774342
H           -4.33351079090644        1.91301846609070        2.29188652436896
H           -4.62198660344543        0.36544888108241        3.08888939653459
H           -6.34954269259463       -1.94839347665020       -1.34165527659894
H           -4.78008806879845       -2.60954111998969       -1.86340416115605
H           -5.21664867752349       -2.60810296087751       -0.13219757969416
H            3.40371471104624        2.53122587621418        2.60126756352450

          :  Hamiltonian                  GFN1-xTB          :
         :: total energy             -83.620004868455 Eh    ::
         :: gradient norm              0.000669146379 Eh/a0 ::
         :: HOMO-LUMO gap              0.437616563898 eV    ::
         :: SCC energy               -84.353100786995 Eh    ::
         :: -> Gsolv                  -0.267747415700 Eh    ::
         :: repulsion energy           0.758172527406 Eh    ::

    * Orbital Energies and Occupations

         #    Occupation            Energy/Eh            Energy/eV
      -------------------------------------------------------------
         1        2.0000           -0.8092419             -22.0206
       ...           ...                  ...                  ...
        56        2.0000           -0.4417649             -12.0210
        57        2.0000           -0.4367049             -11.8833
        58        2.0000           -0.4211956             -11.4613
        59        2.0000           -0.4129929             -11.2381
        60        2.0000           -0.4058147             -11.0428
        61        2.0000           -0.4048796             -11.0173
        62        2.0000           -0.3868194             -10.5259
        63        2.0000           -0.3761241             -10.2349
        64        2.0000           -0.3676841             -10.0052
        65        2.0000           -0.3593709              -9.7790
        66        2.0000           -0.3584544              -9.7540
        67        2.0000           -0.3521600              -9.5828
        68        1.9996           -0.2839419              -7.7265 (HOMO)
        69        0.0004           -0.2678598              -7.2888 (LUMO)
        70                         -0.2120360              -5.7698
        71                         -0.2008021              -5.4641
        72                         -0.1795467              -4.8857
        73                         -0.1326333              -3.6091
        74                         -0.1255682              -3.4169
        75                         -0.1184248              -3.2225
        76                         -0.0924043              -2.5144
        77                         -0.0885043              -2.4083
        78                         -0.0849712              -2.3122
        79                         -0.0803218              -2.1857
       ...                                ...                  ...
       134                          0.7450982              20.2752
      -------------------------------------------------------------
                  HL-Gap            0.0160821 Eh            0.4376 eV

Wiberg/Mayer (AO) data.
largest (>0.10) Wiberg bond orders for each atom

     #   Z sym  total        # sym  WBO       # sym  WBO       # sym  WBO
 ---------------------------------------------------------------------------
     1   6 C    3.892 --    28 H    0.987    27 H    0.980    26 H    0.980
                             2 O    0.917
     2   8 O    2.177 --     3 C    1.073     1 C    0.917     4 O    0.120
     3   6 C    3.833 --     4 O    1.626     2 O    1.073     5 C    1.035
     4   8 O    1.889 --     3 C    1.626     2 O    0.120
     5   6 C    3.964 --    24 C    1.473     6 N    1.203     3 C    1.035
     6   7 N    2.993 --     7 C    1.469     5 C    1.203
     7   6 C    3.948 --     6 N    1.469    21 N    1.347     8 C    0.971
     8   6 C    3.965 --    10 C    0.999     9 C    0.974     7 C    0.971
                            11 N    0.963
     9   6 C    3.995 --    31 H    0.988    29 H    0.986    30 H    0.982
                             8 C    0.974
    10   6 C    3.997 --     8 C    0.999    32 H    0.987    34 H    0.987
                            33 H    0.981
    11   7 N    3.095 --    12 C    0.988     8 C    0.963    35 H    0.927
    12   6 C    3.925 --    14 C    1.464    13 O    1.353    11 N    0.988
    13   8 O    1.706 --    12 C    1.353    14 C    0.161
    14   6 C    3.599 --    12 C    1.464    19 N    0.945    15 O    0.862
                            13 O    0.161
    15   8 O    2.188 --    16 C    1.098    14 C    0.862    18 N    0.137
    16   6 C    3.909 --    18 N    1.703    15 O    1.098    17 C    1.012
    17   6 C    3.995 --    16 C    1.012    36 H    0.987    38 H    0.974
                            37 H    0.973
    18   7 N    2.943 --    16 C    1.703    19 N    0.982    15 O    0.137
    19   7 N    3.051 --    18 N    0.982    20 C    0.973    14 C    0.945
    20   6 C    3.984 --    39 H    0.989    40 H    0.988    41 H    0.983
                            19 N    0.973
    21   7 N    2.991 --     7 C    1.347    22 C    1.271    23 O    0.126
    22   6 C    3.933 --    23 O    1.448    21 N    1.271    24 C    1.077
    23   8 O    1.789 --    22 C    1.448    21 N    0.126
    24   6 C    3.903 --     5 C    1.473    22 C    1.077    25 O    1.062
    25   8 O    2.039 --    24 C    1.062    42 H    0.816
    26   1 H    1.012 --     1 C    0.980
    27   1 H    1.011 --     1 C    0.980
    28   1 H    1.014 --     1 C    0.987
    29   1 H    1.016 --     9 C    0.986
    30   1 H    1.025 --     9 C    0.982
    31   1 H    1.009 --     9 C    0.988
    32   1 H    1.021 --    10 C    0.987
    33   1 H    1.033 --    10 C    0.981
    34   1 H    1.019 --    10 C    0.987
    35   1 H    0.994 --    11 N    0.927
    36   1 H    1.007 --    17 C    0.987
    37   1 H    1.004 --    17 C    0.973
    38   1 H    1.004 --    17 C    0.974
    39   1 H    1.027 --    20 C    0.989
    40   1 H    1.033 --    20 C    0.988
    41   1 H    1.024 --    20 C    0.983
    42   1 H    0.882 --    25 O    0.816
 ---------------------------------------------------------------------------

           -------------------------------------------------
          | TOTAL ENERGY              -83.620004868455 Eh   |
          | GRADIENT NORM               0.000669146379 Eh/α |
          | HOMO-LUMO GAP               0.437616563898 eV   |
           -------------------------------------------------

 * finished run on 2023/06/20 at 17:53:10.718
