   * xtb version 6.5.1 (579679a) compiled by 'ehlert@majestix' on 2022-07-11
          program call               : /lustre/hpc/kemi/ree/PhD/git/ReactivityQM/dep/xtb-6.5.1/bin/xtb --gfn 1 /lustre/hpc/kemi/ree/PhD/git/ReactivityQM/calculations/R02deprot/reac01prodE04/conf03/R02deprot_reac01prodE04_conf03_gfn1.xyz --opt --vfukui --chrg -2 --uhf 0 --alpb DMSO

   ID    Z sym.   atoms
    1    6 C      1, 3, 5, 6, 8-11, 13, 15, 18, 19, 22, 24
    2    8 O      2, 4, 14, 20, 23, 25
    3    7 N      7, 12, 16, 17, 21
    4    1 H      26-42

      * Solvation model:               ALPB
        Solvent                        DMSO
        Solvent mass                       7.8130E+01 g/mol
          :  Hamiltonian                  GFN1-xTB          :
 * total energy  :   -83.5726151 Eh     change       -0.1278977E-12 Eh
 * total energy  :   -83.5892472 Eh     change       -0.1663207E-01 Eh
 * total energy  :   -83.5950931 Eh     change       -0.5845896E-02 Eh
 * total energy  :   -83.5960563 Eh     change       -0.9631588E-03 Eh
 * total energy  :   -83.5966575 Eh     change       -0.6012039E-03 Eh
 * total energy  :   -83.5969599 Eh     change       -0.3023993E-03 Eh
 * total energy  :   -83.5972161 Eh     change       -0.2561880E-03 Eh
 * total energy  :   -83.5974716 Eh     change       -0.2555605E-03 Eh
 * total energy  :   -83.5977286 Eh     change       -0.2570034E-03 Eh
 * total energy  :   -83.5979574 Eh     change       -0.2288259E-03 Eh
 * total energy  :   -83.6006999 Eh     change       -0.3812463E-04 Eh
 * total energy  :   -83.6007224 Eh     change       -0.2249504E-04 Eh
 * total energy  :   -83.6007399 Eh     change       -0.1752348E-04 Eh
 * total energy  :   -83.6007610 Eh     change       -0.2113852E-04 Eh
 * total energy  :   -83.6007754 Eh     change       -0.1441436E-04 Eh
 * total energy  :   -83.6007924 Eh     change       -0.1700351E-04 Eh
 * total energy  :   -83.6008036 Eh     change       -0.1115072E-04 Eh
 * total energy  :   -83.6008097 Eh     change       -0.6155402E-05 Eh
 * total energy  :   -83.6008134 Eh     change       -0.3654473E-05 Eh
   *** GEOMETRY OPTIMIZATION CONVERGED AFTER 43 ITERATIONS ***

 final structure:
================
42
 xtb: 6.5.1 (579679a)
C           -3.69980313426942        3.25594154445285       -0.85347046390603
O           -3.09325557038805        2.47584167215637        0.16732497821069
C           -2.29157001384367        1.45538056764025       -0.24919788686010
O           -2.08143671755234        1.26792879250197       -1.43824584109690
C           -1.88848590765070        0.51923722469229        0.90254107091254
C           -1.66657768275014        1.30206109873290        2.20960019287916
N           -0.67904234400527       -0.20275306317332        0.55512255667997
C           -0.81716344252406       -1.41430182615598        0.07092170565631
C            0.48381425070266       -2.11752456843650       -0.35512774892203
C            0.69884648840073       -3.33668902220432        0.55585395284417
C            0.35347641227106       -2.56219582050243       -1.81969232903252
N            1.58808677460950       -1.17336020563205       -0.21001495683036
C            2.87694548970879       -1.45195283455899       -0.48798881279476
O            3.28644099425465       -2.54613179844244       -0.91159132833198
C            3.79884411449995       -0.33611583754124       -0.26610174443962
N            5.10090529030657       -0.33436107587214       -0.46992022652211
N            5.54567375076016        0.91839912435114       -0.15105111566610
C            4.51392327015807        1.60418216574808        0.22337375332040
C            4.49321507439282        3.02013322275235        0.66090320345764
O            3.37209684873761        0.88545064936925        0.18010425102341
N           -1.89415845229193       -2.17026782354224       -0.09171580174557
C           -3.10338691217797       -1.66688503627489        0.40065454577110
O           -4.15769873335884       -2.38212604762429        0.40662430238572
C           -3.08537667150215       -0.37910087221027        0.93723351139935
O           -4.27224444872313        0.13722617275967        1.49852917511852
H           -4.25795167644735        4.05080955038069       -0.36065162808215
H           -2.94032314428194        3.69342637652171       -1.50952623628817
H           -4.38051431110299        2.64786136662544       -1.45873043719830
H           -2.58549952861366        1.79557469974871        2.52315297166872
H           -0.88860547595720        2.05191092966536        2.07126497272636
H           -1.35094164039751        0.61008921184618        2.99005870103808
H            0.86963197917972       -3.01075317182987        1.58208366277601
H           -0.19846019154533       -3.95618561053606        0.52768293009206
H            1.55180891027667       -3.92995597883131        0.22775186805050
H            0.28966800272013       -1.69071961646551       -2.47207480834810
H            1.20547713818346       -3.16884933989736       -2.12467503881278
H           -0.55894835376813       -3.15040857546718       -1.92639812516730
H            1.33071613785293       -0.26657305584095        0.17540403063141
H            3.80494926972878        3.59762292900858        0.04386240673495
H            5.49276683637442        3.43837534372538        0.57435852676914
H            4.16282920904474        3.09323163144933        1.69703484170882
H           -4.92866988902110       -0.57347209308814        1.39120841820478

          :  Hamiltonian                  GFN1-xTB          :
         :: total energy             -83.600813395730 Eh    ::
         :: gradient norm              0.000485107613 Eh/a0 ::
         :: HOMO-LUMO gap              0.088125035869 eV    ::
         :: SCC energy               -84.324689355846 Eh    ::
         :: -> Gsolv                  -0.273534368585 Eh    ::
         :: repulsion energy           0.750164300128 Eh    ::

    * Orbital Energies and Occupations

         #    Occupation            Energy/Eh            Energy/eV
      -------------------------------------------------------------
         1        2.0000           -0.8243465             -22.4316
       ...           ...                  ...                  ...
        56        2.0000           -0.4358146             -11.8591
        57        2.0000           -0.4312702             -11.7355
        58        2.0000           -0.4224070             -11.4943
        59        2.0000           -0.4210569             -11.4575
        60        2.0000           -0.4173620             -11.3570
        61        2.0000           -0.4077942             -11.0966
        62        2.0000           -0.4025479             -10.9539
        63        2.0000           -0.3922315             -10.6732
        64        2.0000           -0.3817306             -10.3874
        65        2.0000           -0.3501099              -9.5270
        66        2.0000           -0.3229573              -8.7881
        67        2.0000           -0.3216885              -8.7536
        68        1.6922           -0.2760313              -7.5112 (HOMO)
        69        0.3078           -0.2727928              -7.4231 (LUMO)
        70                         -0.2259785              -6.1492
        71                         -0.2102142              -5.7202
        72                         -0.1686200              -4.5884
        73                         -0.1537944              -4.1850
        74                         -0.1302570              -3.5445
        75                         -0.1181544              -3.2151
        76                         -0.0919259              -2.5014
        77                         -0.0884435              -2.4067
        78                         -0.0856351              -2.3303
        79                         -0.0796458              -2.1673
       ...                                ...                  ...
       134                          0.7102933              19.3281
      -------------------------------------------------------------
                  HL-Gap            0.0032385 Eh            0.0881 eV

Wiberg/Mayer (AO) data.
largest (>0.10) Wiberg bond orders for each atom

     #   Z sym  total        # sym  WBO       # sym  WBO       # sym  WBO
 ---------------------------------------------------------------------------
     1   6 C    3.901 --    26 H    0.987    27 H    0.981    28 H    0.981
                             2 O    0.924
     2   8 O    2.149 --     3 C    1.037     1 C    0.924     4 O    0.107
     3   6 C    3.767 --     4 O    1.608     2 O    1.037     5 C    0.910
                            24 C    0.106
     4   8 O    1.863 --     3 C    1.608     2 O    0.107
     5   6 C    3.972 --     7 N    0.992     6 C    0.977    24 C    0.964
                             3 C    0.910
     6   6 C    3.983 --    30 H    0.988    31 H    0.987    29 H    0.986
                             5 C    0.977
     7   7 N    2.887 --     8 C    1.494     5 C    0.992    21 N    0.171
     8   6 C    3.957 --     7 N    1.494    21 N    1.392     9 C    0.954
     9   6 C    3.925 --    11 C    0.987    10 C    0.985     8 C    0.954
                            12 N    0.926
    10   6 C    3.993 --    32 H    0.987     9 C    0.985    34 H    0.985
                            33 H    0.984
    11   6 C    3.994 --     9 C    0.987    35 H    0.987    36 H    0.985
                            37 H    0.984
    12   7 N    3.310 --    13 C    1.252     9 C    0.926    38 H    0.881
                            14 O    0.160
    13   6 C    3.848 --    14 O    1.475    12 N    1.252    15 C    1.049
    14   8 O    1.760 --    13 C    1.475    12 N    0.160
    15   6 C    3.744 --    16 N    1.510    13 C    1.049    20 O    1.006
    16   7 N    2.845 --    15 C    1.510    17 N    1.188
    17   7 N    2.980 --    18 C    1.625    16 N    1.188
    18   6 C    3.838 --    17 N    1.625    20 O    1.058    19 C    1.026
    19   6 C    3.992 --    18 C    1.026    40 H    0.985    39 H    0.970
                            41 H    0.968
    20   8 O    2.237 --    18 C    1.058    15 C    1.006
    21   7 N    2.866 --     8 C    1.392    22 C    1.094     7 N    0.171
    22   6 C    3.912 --    23 O    1.358    24 C    1.339    21 N    1.094
    23   8 O    1.654 --    22 C    1.358    24 C    0.101
    24   6 C    3.601 --    22 C    1.339     5 C    0.964    25 O    0.955
                             3 C    0.106    23 O    0.101
    25   8 O    1.898 --    24 C    0.955    42 H    0.852
    26   1 H    1.016 --     1 C    0.987
    27   1 H    1.015 --     1 C    0.981
    28   1 H    1.013 --     1 C    0.981
    29   1 H    1.018 --     6 C    0.986
    30   1 H    1.013 --     6 C    0.988
    31   1 H    1.017 --     6 C    0.987
    32   1 H    1.009 --    10 C    0.987
    33   1 H    1.026 --    10 C    0.984
    34   1 H    1.017 --    10 C    0.985
    35   1 H    1.009 --    11 C    0.987
    36   1 H    1.018 --    11 C    0.985
    37   1 H    1.029 --    11 C    0.984
    38   1 H    0.990 --    12 N    0.881
    39   1 H    0.999 --    19 C    0.970
    40   1 H    1.003 --    19 C    0.985
    41   1 H    0.999 --    19 C    0.968
    42   1 H    0.905 --    25 O    0.852
 ---------------------------------------------------------------------------

           -------------------------------------------------
          | TOTAL ENERGY              -83.600813395730 Eh   |
          | GRADIENT NORM               0.000485107613 Eh/α |
          | HOMO-LUMO GAP               0.088125035869 eV   |
           -------------------------------------------------

 * finished run on 2023/06/20 at 17:37:24.250
