   * xtb version 6.5.1 (579679a) compiled by 'ehlert@majestix' on 2022-07-11
          program call               : /lustre/hpc/kemi/ree/PhD/git/ReactivityQM/dep/xtb-6.5.1/bin/xtb --gfn 1 /lustre/hpc/kemi/ree/PhD/git/ReactivityQM/calculations/R02oxygendeprot/reac01prodN15/conf18/R02oxygendeprot_reac01prodN15_conf18_gfn1.xyz --opt --vfukui --chrg 0 --uhf 0 --alpb DMSO

   ID    Z sym.   atoms
    1    6 C      1, 3, 5, 7-10, 12, 14, 17, 18, 21, 23, 24
    2    8 O      2, 4, 13, 19, 22, 25
    3    7 N      6, 11, 15, 16, 20
    4    1 H      26-42

      * Solvation model:               ALPB
        Solvent                        DMSO
        Solvent mass                       7.8130E+01 g/mol
          :  Hamiltonian                  GFN1-xTB          :
 * total energy  :   -82.8915663 Eh     change       -0.1502087E-10 Eh
 * total energy  :   -82.9125132 Eh     change       -0.2094691E-01 Eh
 * total energy  :   -82.9311759 Eh     change       -0.1866266E-01 Eh
 * total energy  :   -82.9497140 Eh     change       -0.1853814E-01 Eh
 * total energy  :   -82.9741159 Eh     change       -0.2440194E-01 Eh
 * total energy  :   -82.8533973 Eh     change        0.1207186E+00 Eh
 * total energy  :   -82.9923999 Eh     change       -0.1390025E+00 Eh
 * total energy  :   -82.9925830 Eh     change       -0.1831475E-03 Eh
 * total energy  :   -82.9989460 Eh     change       -0.6362990E-02 Eh
 * total energy  :   -83.0001736 Eh     change       -0.1227554E-02 Eh
 * total energy  :   -83.0036425 Eh     change       -0.1029016E-04 Eh
 * total energy  :   -83.0036489 Eh     change       -0.6410641E-05 Eh
 * total energy  :   -83.0036557 Eh     change       -0.6837244E-05 Eh
 * total energy  :   -83.0036660 Eh     change       -0.1030528E-04 Eh
 * total energy  :   -83.0036757 Eh     change       -0.9710169E-05 Eh
 * total energy  :   -83.0036884 Eh     change       -0.1262927E-04 Eh
 * total energy  :   -83.0036932 Eh     change       -0.4851387E-05 Eh
 * total energy  :   -83.0036994 Eh     change       -0.6197351E-05 Eh
 * total energy  :   -83.0037026 Eh     change       -0.3197231E-05 Eh
   *** GEOMETRY OPTIMIZATION CONVERGED AFTER 41 ITERATIONS ***

 final structure:
================
42
 xtb: 6.5.1 (579679a)
C           -6.14579623176522       -0.84021344606151        1.69302583582266
O           -4.91256321176088       -0.17351623482925        1.38857002009240
C           -4.03175752025764       -0.85075215247707        0.67274649218363
O           -4.19934837355400       -1.97088415244656        0.26175750884481
C           -2.76215634848596       -0.06160706597446        0.38812281155494
N           -1.65333259878718       -0.90739960676734        0.15370974367498
C           -0.59809377651749       -0.42024310620152       -0.36644296712464
C            0.62072861016364       -1.29702718473357       -0.56571518450920
C            0.65939869555608       -1.72599819329847       -2.04040980911885
C            0.55893337383322       -2.51267026388445        0.36366230128419
N            1.79603549633691       -0.48201940384049       -0.24466304770475
C            3.06546466653103       -0.93354932794016       -0.37005094472510
O            3.39548655528913       -1.99864118549468       -0.85644023356902
C            4.02961184135220        0.06261582546628        0.16279728142164
N            3.72842219147604        1.18443182603343        0.74528432922332
N            4.90602626460783        1.77859048777796        1.08533231542045
C            5.85108786853353        0.98008525552976        0.68933520136373
C            7.31191941968050        1.17074254188431        0.82289156097548
O            5.36045327302874       -0.12080481944313        0.10125620777091
N           -0.51349789771083        0.86162187026404       -0.87261356939593
C           -1.60492866503082        1.67925076239523       -1.04685879854150
O           -1.58702246602848        2.60638282925734       -1.82749321800229
C           -2.80159070337917        1.31137559434084       -0.22078602757012
C           -4.07438011620343        2.04366018243240       -0.57093490325565
O           -2.52130467074057        1.08903014576844        1.13932177845928
H           -6.76857181600462       -0.11547642098620        2.21169593707851
H           -5.95176996813129       -1.70437878667434        2.33101906984000
H           -6.62762096666689       -1.16847576306132        0.77000995250766
H           -0.27307819315238       -2.22810698019248       -2.29318634406748
H            1.48849087942230       -2.40951817234464       -2.21070912300654
H            0.77952630958718       -0.85424656663916       -2.68087016153131
H           -0.35280589265333       -3.07364422825266        0.16476741205122
H            1.42049113765273       -3.15492086423725        0.19190159863120
H            0.55437487896019       -2.18597484345333        1.40247708782185
H            1.65699158589263        0.37361776836161        0.27188750359630
H            7.73826885721733        0.36844408688095        1.42566052806984
H            7.78152045773946        1.13964293899649       -0.16027109127954
H            7.51527221890705        2.12899445480764        1.29499916892977
H            0.29938085033536        1.10529599465450       -1.41904736780887
H           -4.46037415520363        1.68093527935959       -1.52193084700968
H           -4.82189712516133        1.90213106818114        0.20444210893110
H           -3.85599273490833        3.10707585684438       -0.66825411734466

          :  Hamiltonian                  GFN1-xTB          :
         :: total energy             -83.003702597527 Eh    ::
         :: gradient norm              0.000638311852 Eh/a0 ::
         :: HOMO-LUMO gap              3.715823612983 eV    ::
         :: SCC energy               -83.775586701222 Eh    ::
         :: -> Gsolv                  -0.049555688142 Eh    ::
         :: repulsion energy           0.797242288682 Eh    ::

    * Orbital Energies and Occupations

         #    Occupation            Energy/Eh            Energy/eV
      -------------------------------------------------------------
         1        2.0000           -0.8654389             -23.5498
       ...           ...                  ...                  ...
        55        2.0000           -0.5087556             -13.8439
        56        2.0000           -0.5077089             -13.8155
        57        2.0000           -0.5064774             -13.7820
        58        2.0000           -0.5042209             -13.7206
        59        2.0000           -0.4850842             -13.1998
        60        2.0000           -0.4799798             -13.0609
        61        2.0000           -0.4707391             -12.8095
        62        2.0000           -0.4690005             -12.7622
        63        2.0000           -0.4660692             -12.6824
        64        2.0000           -0.4625914             -12.5878
        65        2.0000           -0.4544047             -12.3650
        66        2.0000           -0.4508434             -12.2681
        67        2.0000           -0.4501560             -12.2494 (HOMO)
        68                         -0.3136020              -8.5335 (LUMO)
        69                         -0.3047803              -8.2935
        70                         -0.2901938              -7.8966
        71                         -0.2612925              -7.1101
        72                         -0.2585091              -7.0344
        73                         -0.2016633              -5.4875
        74                         -0.1437330              -3.9112
        75                         -0.1428757              -3.8878
        76                         -0.1343736              -3.6565
        77                         -0.1309665              -3.5638
        78                         -0.1253451              -3.4108
       ...                                ...                  ...
       134                          0.7252952              19.7363
      -------------------------------------------------------------
                  HL-Gap            0.1365540 Eh            3.7158 eV

Wiberg/Mayer (AO) data.
largest (>0.10) Wiberg bond orders for each atom

     #   Z sym  total        # sym  WBO       # sym  WBO       # sym  WBO
 ---------------------------------------------------------------------------
     1   6 C    3.859 --    26 H    0.985    28 H    0.980    27 H    0.979
                             2 O    0.883
     2   8 O    2.227 --     3 C    1.143     1 C    0.883     4 O    0.142
     3   6 C    3.851 --     4 O    1.688     2 O    1.143     5 C    0.936
     4   8 O    1.940 --     3 C    1.688     2 O    0.142
     5   6 C    3.869 --     6 N    1.026     3 C    0.936    25 O    0.908
                            23 C    0.834
     6   7 N    3.026 --     7 C    1.712     5 C    1.026
     7   6 C    3.928 --     6 N    1.712    20 N    1.107     8 C    0.979
     8   6 C    3.934 --    10 C    0.990     7 C    0.979     9 C    0.975
                            11 N    0.924
     9   6 C    3.987 --    29 H    0.985    31 H    0.984    30 H    0.977
                             8 C    0.975
    10   6 C    3.989 --     8 C    0.990    34 H    0.985    32 H    0.983
                            33 H    0.982
    11   7 N    3.331 --    12 C    1.238     8 C    0.924    35 H    0.894
                            13 O    0.174
    12   6 C    3.915 --    13 O    1.604    11 N    1.238    14 C    0.990
    13   8 O    1.919 --    12 C    1.604    11 N    0.174
    14   6 C    3.876 --    15 N    1.609    19 O    1.065    12 C    0.990
    15   7 N    3.018 --    14 C    1.609    16 N    1.201
    16   7 N    2.981 --    17 C    1.603    15 N    1.201
    17   6 C    3.870 --    16 N    1.603    19 O    1.083    18 C    1.032
    18   6 C    3.986 --    17 C    1.032    38 H    0.983    37 H    0.964
                            36 H    0.962
    19   8 O    2.332 --    17 C    1.083    14 C    1.065
    20   7 N    3.416 --    21 C    1.142     7 C    1.107    39 H    0.885
                            22 O    0.126
    21   6 C    3.893 --    22 O    1.656    20 N    1.142    23 C    0.980
    22   8 O    1.934 --    21 C    1.656    20 N    0.126
    23   6 C    3.861 --    24 C    1.002    21 C    0.980    25 O    0.894
                             5 C    0.834
    24   6 C    3.985 --    23 C    1.002    41 H    0.980    40 H    0.980
                            42 H    0.974
    25   8 O    1.966 --     5 C    0.908    23 C    0.894
    26   1 H    1.008 --     1 C    0.985
    27   1 H    1.004 --     1 C    0.979
    28   1 H    1.005 --     1 C    0.980
    29   1 H    1.001 --     9 C    0.985
    30   1 H    1.009 --     9 C    0.977
    31   1 H    1.000 --     9 C    0.984
    32   1 H    1.009 --    10 C    0.983
    33   1 H    1.006 --    10 C    0.982
    34   1 H    1.004 --    10 C    0.985
    35   1 H    0.951 --    11 N    0.894
    36   1 H    0.996 --    18 C    0.962
    37   1 H    0.996 --    18 C    0.964
    38   1 H    0.998 --    18 C    0.983
    39   1 H    0.930 --    20 N    0.885
    40   1 H    0.999 --    24 C    0.980
    41   1 H    1.008 --    24 C    0.980
    42   1 H    1.002 --    24 C    0.974
 ---------------------------------------------------------------------------

           -------------------------------------------------
          | TOTAL ENERGY              -83.003702597527 Eh   |
          | GRADIENT NORM               0.000638311852 Eh/α |
          | HOMO-LUMO GAP               3.715823612983 eV   |
           -------------------------------------------------

 * finished run on 2023/06/21 at 17:35:28.741
