   * xtb version 6.5.1 (579679a) compiled by 'ehlert@majestix' on 2022-07-11
          program call               : /lustre/hpc/kemi/ree/PhD/git/ReactivityQM/dep/xtb-6.5.1/bin/xtb --gfn 1 /lustre/hpc/kemi/ree/PhD/git/ReactivityQM/calculations/R02deprot/reac01prodN10/conf03/R02deprot_reac01prodN10_conf03_gfn1.xyz --opt --vfukui --chrg 0 --uhf 0 --alpb DMSO

   ID    Z sym.   atoms
    1    6 C      1, 3, 5, 6, 8-11, 13, 15, 18, 19, 22, 24
    2    8 O      2, 4, 14, 20, 23, 25
    3    7 N      7, 12, 16, 17, 21
    4    1 H      26-42

      * Solvation model:               ALPB
        Solvent                        DMSO
        Solvent mass                       7.8130E+01 g/mol
          :  Hamiltonian                  GFN1-xTB          :
 * total energy  :   -82.9348341 Eh     change       -0.6124878E-11 Eh
 * total energy  :   -82.9478893 Eh     change       -0.1305522E-01 Eh
 * total energy  :   -82.9529732 Eh     change       -0.5083941E-02 Eh
 * total energy  :   -82.9539679 Eh     change       -0.9946728E-03 Eh
 * total energy  :   -82.9546580 Eh     change       -0.6900980E-03 Eh
 * total energy  :   -82.9550014 Eh     change       -0.3434254E-03 Eh
 * total energy  :   -82.9553277 Eh     change       -0.3262438E-03 Eh
 * total energy  :   -82.9556184 Eh     change       -0.2907551E-03 Eh
 * total energy  :   -82.9558332 Eh     change       -0.2147507E-03 Eh
 * total energy  :   -82.9560150 Eh     change       -0.1818819E-03 Eh
 * total energy  :   -82.9570992 Eh     change       -0.6991907E-05 Eh
 * total energy  :   -82.9571062 Eh     change       -0.6983523E-05 Eh
 * total energy  :   -82.9571138 Eh     change       -0.7620707E-05 Eh
 * total energy  :   -82.9571200 Eh     change       -0.6268289E-05 Eh
 * total energy  :   -82.9571260 Eh     change       -0.6006618E-05 Eh
 * total energy  :   -82.9571323 Eh     change       -0.6258044E-05 Eh
 * total energy  :   -82.9571401 Eh     change       -0.7828451E-05 Eh
 * total energy  :   -82.9571484 Eh     change       -0.8230768E-05 Eh
 * total energy  :   -82.9571512 Eh     change       -0.2815389E-05 Eh
   *** GEOMETRY OPTIMIZATION CONVERGED AFTER 44 ITERATIONS ***

 final structure:
================
42
 xtb: 6.5.1 (579679a)
C           -3.28346990984211        3.36836026110210       -0.94283033148872
O           -2.88329456363338        2.43935115116015        0.08358770973006
C           -2.30228719556690        1.33405268420320       -0.29739778942367
O           -2.06594073409163        0.99098166730173       -1.41574515188694
C           -1.92288315216073        0.44404151026114        0.97293981700416
C           -1.68763021633161        1.34216165317582        2.18998906303006
N           -0.73704819364071       -0.25211279281030        0.60385371786039
C           -0.82336830804329       -1.45944545347610        0.14008277531807
C            0.45370158417640       -2.14289615026929       -0.31914292068598
C            0.70164004954992       -3.37137629784613        0.56787280438093
C            0.29721360360891       -2.54816175129175       -1.79178743016852
N            1.54902670692444       -1.18744090416199       -0.17695644621583
C            2.82349054388210       -1.45398858087846       -0.49755837269940
O            3.24266751513236       -2.51924539408356       -0.92758383202628
C            3.72887784066435       -0.29185383586350       -0.28548480513223
N            5.00739790786699       -0.24423174215070       -0.49613667025787
N            5.41199580211673        1.01991400619879       -0.18178934873650
C            4.35528400187481        1.66526133294555        0.20009390631516
C            4.26738089245976        3.07432080447777        0.64124416230144
O            3.25565678942301        0.89357404712144        0.15864709256432
N           -1.92590239485757       -2.23940160178558        0.01952462642047
C           -3.09607231699974       -1.79259879068911        0.47379123876381
O           -4.17937450533248       -2.38339800614785        0.50792881450224
C           -3.10052233963029       -0.41416194939779        1.04570720226247
O           -4.22773962403690       -0.01550206288983        1.51209620563725
H           -3.55476808650322        4.28688870370267       -0.42897931998450
H           -2.45345353995792        3.53810872461441       -1.62984687720857
H           -4.13908221314870        2.96251721645254       -1.48430974255923
H           -2.61334004269058        1.83526151262406        2.47624639132564
H           -0.93363784435945        2.08722807163835        1.95084522430612
H           -1.33360156013059        0.72632349439680        3.01429303753720
H            0.86870850190996       -3.05741797841229        1.59705865695729
H           -0.17304867838125       -4.01937568754199        0.53064017177439
H            1.57195308582363       -3.92279129384175        0.21607839075290
H            0.18005131472909       -1.65908368871362       -2.40998538698631
H            1.17189716639486       -3.10370726527094       -2.12584634117089
H           -0.58735971244775       -3.17477881640294       -1.89711997791429
H            1.29944172123668       -0.27623446831784        0.18462017029261
H            3.55567351064812        3.61558781637855        0.01874631096770
H            5.24632405440818        3.54199208024638        0.56863920343182
H            3.91714729016374        3.12134411650346        1.67203650722458
H           -4.88170275121545       -0.75806534225268        1.37841354388190

          :  Hamiltonian                  GFN1-xTB          :
         :: total energy             -82.957151180388 Eh    ::
         :: gradient norm              0.000505062561 Eh/a0 ::
         :: HOMO-LUMO gap              1.252065014936 eV    ::
         :: SCC energy               -83.728793848795 Eh    ::
         :: -> Gsolv                  -0.059251359009 Eh    ::
         :: repulsion energy           0.798113333831 Eh    ::

    * Orbital Energies and Occupations

         #    Occupation            Energy/Eh            Energy/eV
      -------------------------------------------------------------
         1        2.0000           -0.8747029             -23.8019
       ...           ...                  ...                  ...
        55        2.0000           -0.5024391             -13.6721
        56        2.0000           -0.4989385             -13.5768
        57        2.0000           -0.4957606             -13.4903
        58        2.0000           -0.4857812             -13.2188
        59        2.0000           -0.4840393             -13.1714
        60        2.0000           -0.4770169             -12.9803
        61        2.0000           -0.4616429             -12.5619
        62        2.0000           -0.4561281             -12.4119
        63        2.0000           -0.4537553             -12.3473
        64        2.0000           -0.4467904             -12.1578
        65        2.0000           -0.4408965             -11.9974
        66        2.0000           -0.4318107             -11.7502
        67        2.0000           -0.4242138             -11.5434 (HOMO)
        68                         -0.3782012             -10.2914 (LUMO)
        69                         -0.3053530              -8.3091
        70                         -0.2933763              -7.9832
        71                         -0.2700708              -7.3490
        72                         -0.2547325              -6.9316
        73                         -0.1976042              -5.3771
        74                         -0.1932131              -5.2576
        75                         -0.1512163              -4.1148
        76                         -0.1422855              -3.8718
        77                         -0.1326790              -3.6104
        78                         -0.1177923              -3.2053
       ...                                ...                  ...
       134                          0.7346039              19.9896
      -------------------------------------------------------------
                  HL-Gap            0.0460125 Eh            1.2521 eV

Wiberg/Mayer (AO) data.
largest (>0.10) Wiberg bond orders for each atom

     #   Z sym  total        # sym  WBO       # sym  WBO       # sym  WBO
 ---------------------------------------------------------------------------
     1   6 C    3.839 --    26 H    0.983    27 H    0.980    28 H    0.978
                             2 O    0.860
     2   8 O    2.242 --     3 C    1.179     1 C    0.860     4 O    0.142
     3   6 C    3.851 --     4 O    1.727     2 O    1.179     5 C    0.770
     4   8 O    2.021 --     3 C    1.727     2 O    0.142
     5   6 C    3.967 --    24 C    1.058     7 N    1.022     6 C    0.955
                             3 C    0.770
     6   6 C    3.978 --    30 H    0.983    29 H    0.983    31 H    0.981
                             5 C    0.955
     7   7 N    3.020 --     8 C    1.595     5 C    1.022
     8   6 C    3.943 --     7 N    1.595    21 N    1.242     9 C    0.980
     9   6 C    3.936 --     8 C    0.980    11 C    0.979    10 C    0.978
                            12 N    0.930
    10   6 C    3.989 --    32 H    0.986    33 H    0.984    34 H    0.981
                             9 C    0.978
    11   6 C    3.990 --    35 H    0.986    37 H    0.984    36 H    0.982
                             9 C    0.979
    12   7 N    3.372 --    13 C    1.284     9 C    0.930    38 H    0.879
                            14 O    0.182
    13   6 C    3.921 --    14 O    1.569    12 N    1.284    15 C    0.987
    14   8 O    1.888 --    13 C    1.569    12 N    0.182
    15   6 C    3.870 --    16 N    1.626    20 O    1.047    13 C    0.987
    16   7 N    2.997 --    15 C    1.626    17 N    1.194
    17   7 N    2.981 --    18 C    1.616    16 N    1.194
    18   6 C    3.870 --    17 N    1.616    20 O    1.071    19 C    1.031
    19   6 C    3.987 --    18 C    1.031    40 H    0.983    39 H    0.965
                            41 H    0.963
    20   8 O    2.314 --    18 C    1.071    15 C    1.047
    21   7 N    3.010 --    22 C    1.314     8 C    1.242    23 O    0.163
                            24 C    0.112
    22   6 C    3.935 --    23 O    1.509    21 N    1.314    24 C    0.988
    23   8 O    1.884 --    22 C    1.509    21 N    0.163
    24   6 C    3.784 --    25 O    1.331     5 C    1.058    22 C    0.988
                            21 N    0.112
    25   8 O    2.252 --    24 C    1.331    42 H    0.743
    26   1 H    1.005 --     1 C    0.983
    27   1 H    1.002 --     1 C    0.980
    28   1 H    1.001 --     1 C    0.978
    29   1 H    1.003 --     6 C    0.983
    30   1 H    1.001 --     6 C    0.983
    31   1 H    0.999 --     6 C    0.981
    32   1 H    1.003 --    10 C    0.986
    33   1 H    1.010 --    10 C    0.984
    34   1 H    1.010 --    10 C    0.981
    35   1 H    1.003 --    11 C    0.986
    36   1 H    1.010 --    11 C    0.982
    37   1 H    1.011 --    11 C    0.984
    38   1 H    0.960 --    12 N    0.879
    39   1 H    0.997 --    19 C    0.965
    40   1 H    0.999 --    19 C    0.983
    41   1 H    0.997 --    19 C    0.963
    42   1 H    0.822 --    25 O    0.743
 ---------------------------------------------------------------------------

           -------------------------------------------------
          | TOTAL ENERGY              -82.957151180388 Eh   |
          | GRADIENT NORM               0.000505062561 Eh/α |
          | HOMO-LUMO GAP               1.252065014936 eV   |
           -------------------------------------------------

 * finished run on 2023/06/20 at 18:18:16.674
