   * xtb version 6.5.1 (579679a) compiled by 'ehlert@majestix' on 2022-07-11
          program call               : /lustre/hpc/kemi/ree/PhD/git/ReactivityQM/dep/xtb-6.5.1/bin/xtb --gfn 1 /lustre/hpc/kemi/ree/PhD/git/ReactivityQM/calculations/R03/reac01prodN04/conf04/R03_reac01prodN04_conf04_gfn1.xyz --opt --vfukui --chrg 1 --uhf 0 --alpb DMSO

   ID    Z sym.   atoms
    1    6 C      1-5, 7-9
    2    7 N      6
    3    9 F      10
    4    1 H      11-21

      * Solvation model:               ALPB
        Solvent                        DMSO
        Solvent mass                       7.8130E+01 g/mol
          :  Hamiltonian                  GFN1-xTB          :
 * total energy  :   -30.7631109 Eh     change       -0.6687273E-10 Eh
 * total energy  :   -30.7674098 Eh     change       -0.4298943E-02 Eh
 * total energy  :   -30.7685772 Eh     change       -0.1167431E-02 Eh
 * total energy  :   -30.7687451 Eh     change       -0.1678172E-03 Eh
 * total energy  :   -30.7688981 Eh     change       -0.1530399E-03 Eh
 * total energy  :   -30.7689930 Eh     change       -0.9493263E-04 Eh
 * total energy  :   -30.7691404 Eh     change       -0.1474038E-03 Eh
 * total energy  :   -30.7692580 Eh     change       -0.1175502E-03 Eh
 * total energy  :   -30.7693254 Eh     change       -0.6737235E-04 Eh
 * total energy  :   -30.7693669 Eh     change       -0.4156048E-04 Eh
 * total energy  :   -30.7696682 Eh     change       -0.7761311E-04 Eh
 * total energy  :   -30.7696916 Eh     change       -0.2339439E-04 Eh
 * total energy  :   -30.7697178 Eh     change       -0.2615710E-04 Eh
 * total energy  :   -30.7697397 Eh     change       -0.2193390E-04 Eh
 * total energy  :   -30.7697570 Eh     change       -0.1727968E-04 Eh
 * total energy  :   -30.7697691 Eh     change       -0.1207406E-04 Eh
 * total energy  :   -30.7697776 Eh     change       -0.8522333E-05 Eh
 * total energy  :   -30.7697827 Eh     change       -0.5161707E-05 Eh
 * total energy  :   -30.7697854 Eh     change       -0.2654669E-05 Eh
   *** GEOMETRY OPTIMIZATION CONVERGED AFTER 24 ITERATIONS ***

 final structure:
================
21
 xtb: 6.5.1 (579679a)
C           -2.51669993787031        1.01542323751092        0.00923352836200
C           -1.45313358837468       -0.04784753217837       -0.37306100001711
C           -0.07675935805089        0.47019071807033       -0.38273825659905
C            0.96781706428359       -0.18648064445030        0.21346071035911
C            2.35970506537298        0.39653267101629        0.17349357969012
N            2.46737062432827        1.36421840721566       -0.90832406380313
C            0.72067518811605       -1.39433224894045        0.89779265254427
C           -0.55072801267458       -1.96024821296571        0.96827861170086
C           -1.59595804114948       -1.30304734241845        0.37378970962684
F           -2.80266638761932       -1.80131764406021        0.43975974649687
H           -3.50866884712640        0.57592750892294       -0.06966848589400
H           -2.34346379083220        1.34684761849908        1.03045901022159
H           -2.43714358393604        1.86273210233800       -0.66748939618799
H           -1.68544947047818       -0.30064260376673       -1.42478890347831
H            0.10590133131333        1.40807023718558       -0.89812493209553
H            2.54039998716264        0.90995080761646        1.12299186355965
H            3.09584127617220       -0.41179622167248        0.08027118286433
H            2.62986526889683        0.87597784264758       -1.77808040547028
H            3.25759731793485        1.96889780749852       -0.73456594825666
H            1.54476859664229       -1.89939877450557        1.39037171207160
H           -0.71926870211054       -2.88965673356357        1.49856308430567

          :  Hamiltonian                  GFN1-xTB          :
         :: total energy             -30.769785395530 Eh    ::
         :: gradient norm              0.000632043144 Eh/a0 ::
         :: HOMO-LUMO gap              0.331354364067 eV    ::
         :: SCC energy               -31.161801066949 Eh    ::
         :: -> Gsolv                  -0.081780006907 Eh    ::
         :: repulsion energy           0.401867592812 Eh    ::

    * Orbital Energies and Occupations

         #    Occupation            Energy/Eh            Energy/eV
      -------------------------------------------------------------
         1        2.0000           -0.9459453             -25.7405
       ...           ...                  ...                  ...
        15        2.0000           -0.5995528             -16.3147
        16        2.0000           -0.5957813             -16.2120
        17        2.0000           -0.5881965             -16.0056
        18        2.0000           -0.5808675             -15.8062
        19        2.0000           -0.5632822             -15.3277
        20        2.0000           -0.5564584             -15.1420
        21        2.0000           -0.5485175             -14.9259
        22        2.0000           -0.5454776             -14.8432
        23        2.0000           -0.5325868             -14.4924
        24        2.0000           -0.5274430             -14.3525
        25        2.0000           -0.5204055             -14.1610
        26        2.0000           -0.4963445             -13.5062
        27        1.9967           -0.4290794             -11.6758 (HOMO)
        28        0.0033           -0.4169023             -11.3445 (LUMO)
        29                         -0.3258768              -8.8676
        30                         -0.2466033              -6.7104
        31                         -0.1593343              -4.3357
        32                         -0.1533086              -4.1717
        33                         -0.1476287              -4.0172
        34                         -0.1367239              -3.7204
        35                         -0.1242792              -3.3818
        36                         -0.1170998              -3.1864
        37                         -0.1039008              -2.8273
        38                         -0.0931076              -2.5336
       ...                                ...                  ...
        62                          0.5452289              14.8364
      -------------------------------------------------------------
                  HL-Gap            0.0121770 Eh            0.3314 eV

Wiberg/Mayer (AO) data.
largest (>0.10) Wiberg bond orders for each atom

     #   Z sym  total        # sym  WBO       # sym  WBO       # sym  WBO
 ---------------------------------------------------------------------------
     1   6 C    3.965 --    12 H    0.984    13 H    0.983    11 H    0.982
                             2 C    0.913
     2   6 C    3.989 --     3 C    1.087     9 C    1.069     1 C    0.913
                            14 H    0.835
     3   6 C    3.950 --     4 C    1.544     2 C    1.087    15 H    0.956
     4   6 C    3.976 --     3 C    1.544     7 C    1.313     5 C    1.002
     5   6 C    3.977 --     6 N    1.007     4 C    1.002    17 H    0.963
                            16 H    0.954
     6   7 N    2.959 --     5 C    1.007    18 H    0.940    19 H    0.931
     7   6 C    3.943 --     8 C    1.403     4 C    1.313    20 H    0.964
     8   6 C    3.982 --     9 C    1.468     7 C    1.403    21 H    0.956
     9   6 C    3.841 --     8 C    1.468     2 C    1.069    10 F    1.030
    10   9 F    1.198 --     9 C    1.030
    11   1 H    0.996 --     1 C    0.982
    12   1 H    0.995 --     1 C    0.984
    13   1 H    0.993 --     1 C    0.983
    14   1 H    0.977 --     2 C    0.835
    15   1 H    1.011 --     3 C    0.956
    16   1 H    1.002 --     5 C    0.954
    17   1 H    0.997 --     5 C    0.963
    18   1 H    0.950 --     6 N    0.940
    19   1 H    0.945 --     6 N    0.931
    20   1 H    0.990 --     7 C    0.964
    21   1 H    0.984 --     8 C    0.956
 ---------------------------------------------------------------------------

           -------------------------------------------------
          | TOTAL ENERGY              -30.769785395530 Eh   |
          | GRADIENT NORM               0.000632043144 Eh/α |
          | HOMO-LUMO GAP               0.331354364067 eV   |
           -------------------------------------------------

 * finished run on 2023/06/20 at 15:14:35.121
