                         Program Version 5.0.1 -  RELEASE  -
|  1> # ORCA input file
|  2> ! SP r2SCAN-3c CPCM
|  3>
|  4> %maxcore 1875.0
|  5> %pal nprocs 4 end
|  6> %cpcm smd true SMDsolvent "DMSO" end
|  7>
|  8> *xyz 0 1
|  9> C      -4.421324    0.025697    2.119727
| 10> O      -3.480079    0.210419    1.049536
| 11> C      -3.915673   -0.017166   -0.174788
| 12> O      -5.038474   -0.326792   -0.466423
| 13> C      -2.789037    0.183921   -1.227290
| 14> C      -3.306944   -0.237428   -2.602743
| 15> N      -1.696881   -0.677480   -0.827602
| 16> C      -0.744765   -0.230290   -0.122765
| 17> C       0.337824   -1.162651    0.377230
| 18> C       0.063493   -1.478146    1.850287
| 19> C       0.375830   -2.440522   -0.464947
| 20> N       1.624529   -0.471667    0.292940
| 21> C       2.018821    0.118906   -0.859264
| 22> O       1.297706    0.275832   -1.830303
| 23> C       3.419564    0.598600   -0.817553
| 24> N       4.069184    1.233083   -1.743073
| 25> N       5.325058    1.450285   -1.262683
| 26> C       5.365466    0.934412   -0.073571
| 27> C       6.505286    0.909415    0.867572
| 28> O       4.190948    0.380071    0.269022
| 29> N      -0.643197    1.084764    0.312370
| 30> C      -1.432819    2.098436   -0.131705
| 31> O      -1.313006    3.241263    0.250179
| 32> C      -2.465718    1.665844   -1.180526
| 33> O      -3.006438    2.470639   -1.893458
| 34> H      -3.927083    0.369415    3.024853
| 35> H      -4.675978   -1.032036    2.203567
| 36> H      -5.324356    0.607952    1.926454
| 37> H      -2.517140   -0.123776   -3.342219
| 38> H      -3.618867   -1.278656   -2.568091
| 39> H      -4.156394    0.384224   -2.880449
| 40> H      -0.914872   -1.945989    1.948017
| 41> H       0.079957   -0.564426    2.441420
| 42> H       0.821879   -2.159344    2.230655
| 43> H      -0.574346   -2.963791   -0.372720
| 44> H       1.178374   -3.085833   -0.115147
| 45> H       0.542850   -2.191641   -1.512326
| 46> H       2.303150   -0.652486    1.012336
| 47> H       6.258836    1.479914    1.763089
| 48> H       7.384303    1.338584    0.392607
| 49> H       6.713348   -0.116137    1.170663
| 50> H       0.086985    1.316547    0.967119
| 51> **                         ****END OF INPUT****

CARTESIAN COORDINATES (ANGSTROEM)
---------------------------------
  C     -4.421324    0.025697    2.119727
  O     -3.480079    0.210419    1.049536
  C     -3.915673   -0.017166   -0.174788
  O     -5.038474   -0.326792   -0.466423
  C     -2.789037    0.183921   -1.227290
  C     -3.306944   -0.237428   -2.602743
  N     -1.696881   -0.677480   -0.827602
  C     -0.744765   -0.230290   -0.122765
  C      0.337824   -1.162651    0.377230
  C      0.063493   -1.478146    1.850287
  C      0.375830   -2.440522   -0.464947
  N      1.624529   -0.471667    0.292940
  C      2.018821    0.118906   -0.859264
  O      1.297706    0.275832   -1.830303
  C      3.419564    0.598600   -0.817553
  N      4.069184    1.233083   -1.743073
  N      5.325058    1.450285   -1.262683
  C      5.365466    0.934412   -0.073571
  C      6.505286    0.909415    0.867572
  O      4.190948    0.380071    0.269022
  N     -0.643197    1.084764    0.312370
  C     -1.432819    2.098436   -0.131705
  O     -1.313006    3.241263    0.250179
  C     -2.465718    1.665844   -1.180526
  O     -3.006438    2.470639   -1.893458
  H     -3.927083    0.369415    3.024853
  H     -4.675978   -1.032036    2.203567
  H     -5.324356    0.607952    1.926454
  H     -2.517140   -0.123776   -3.342219
  H     -3.618867   -1.278656   -2.568091
  H     -4.156394    0.384224   -2.880449
  H     -0.914872   -1.945989    1.948017
  H      0.079957   -0.564426    2.441420
  H      0.821879   -2.159344    2.230655
  H     -0.574346   -2.963791   -0.372720
  H      1.178374   -3.085833   -0.115147
  H      0.542850   -2.191641   -1.512326
  H      2.303150   -0.652486    1.012336
  H      6.258836    1.479914    1.763089
  H      7.384303    1.338584    0.392607
  H      6.713348   -0.116137    1.170663
  H      0.086985    1.316547    0.967119

 Total Charge           Charge          ....    0
 Multiplicity           Mult            ....    1
 Number of Electrons    NEL             ....  184
 Basis Dimension        Dim             ....  615

ORBITAL ENERGIES
----------------

  NO   OCC          E(Eh)            E(eV)
   0   2.0000     -19.067745      -518.8597
   1   2.0000     -19.017753      -517.4994
   2   2.0000     -18.973471      -516.2944
   3   2.0000     -18.955530      -515.8062
   4   2.0000     -18.949910      -515.6533
   5   2.0000     -18.941316      -515.4194
   6   2.0000     -14.219656      -386.9365
   7   2.0000     -14.207545      -386.6070
   8   2.0000     -14.206407      -386.5760
   9   2.0000     -14.199201      -386.3799
  10   2.0000     -14.158685      -385.2774
  11   2.0000     -10.174771      -276.8696
  12   2.0000     -10.161992      -276.5219
  13   2.0000     -10.158389      -276.4238
  14   2.0000     -10.149431      -276.1801
  15   2.0000     -10.145491      -276.0728
  16   2.0000     -10.145296      -276.0675
  17   2.0000     -10.127708      -275.5889
  18   2.0000     -10.105096      -274.9737
  19   2.0000     -10.102592      -274.9055
  20   2.0000     -10.083016      -274.3728
  21   2.0000     -10.045974      -273.3649
  22   2.0000     -10.030403      -272.9411
  23   2.0000     -10.024067      -272.7687
  24   2.0000     -10.019852      -272.6540
  25   2.0000      -1.157693       -31.5024
  26   2.0000      -1.094876       -29.7931
  27   2.0000      -1.052193       -28.6316
  28   2.0000      -1.031654       -28.0727
  29   2.0000      -1.025761       -27.9124
  30   2.0000      -1.004210       -27.3260
  31   2.0000      -0.978141       -26.6166
  32   2.0000      -0.965115       -26.2621
  33   2.0000      -0.917001       -24.9529
  34   2.0000      -0.880517       -23.9601
  35   2.0000      -0.834142       -22.6981
  36   2.0000      -0.790925       -21.5222
  37   2.0000      -0.751240       -20.4423
  38   2.0000      -0.715141       -19.4600
  39   2.0000      -0.705529       -19.1984
  40   2.0000      -0.685045       -18.6410
  41   2.0000      -0.670230       -18.2379
  42   2.0000      -0.665847       -18.1186
  43   2.0000      -0.631378       -17.1807
  44   2.0000      -0.612512       -16.6673
  45   2.0000      -0.604631       -16.4529
  46   2.0000      -0.587583       -15.9889
  47   2.0000      -0.561806       -15.2875
  48   2.0000      -0.547657       -14.9025
  49   2.0000      -0.536657       -14.6032
  50   2.0000      -0.526823       -14.3356
  51   2.0000      -0.517542       -14.0830
  52   2.0000      -0.506598       -13.7852
  53   2.0000      -0.496777       -13.5180
  54   2.0000      -0.468336       -12.7441
  55   2.0000      -0.463757       -12.6195
  56   2.0000      -0.458717       -12.4823
  57   2.0000      -0.455694       -12.4001
  58   2.0000      -0.435586       -11.8529
  59   2.0000      -0.432206       -11.7609
  60   2.0000      -0.425061       -11.5665
  61   2.0000      -0.421673       -11.4743
  62   2.0000      -0.417287       -11.3550
  63   2.0000      -0.412947       -11.2369
  64   2.0000      -0.408642       -11.1197
  65   2.0000      -0.404353       -11.0030
  66   2.0000      -0.392506       -10.6806
  67   2.0000      -0.388456       -10.5704
  68   2.0000      -0.382340       -10.4040
  69   2.0000      -0.376476       -10.2444
  70   2.0000      -0.370879       -10.0921
  71   2.0000      -0.364282        -9.9126
  72   2.0000      -0.358122        -9.7450
  73   2.0000      -0.356633        -9.7045
  74   2.0000      -0.352906        -9.6031
  75   2.0000      -0.350668        -9.5422
  76   2.0000      -0.346497        -9.4287
  77   2.0000      -0.338636        -9.2147
  78   2.0000      -0.332606        -9.0507
  79   2.0000      -0.329564        -8.9679
  80   2.0000      -0.322978        -8.7887
  81   2.0000      -0.316391        -8.6094
  82   2.0000      -0.295020        -8.0279
  83   2.0000      -0.290498        -7.9049
  84   2.0000      -0.271241        -7.3808
  85   2.0000      -0.269548        -7.3348
  86   2.0000      -0.265013        -7.2114
  87   2.0000      -0.261351        -7.1117
  88   2.0000      -0.253875        -6.9083
  89   2.0000      -0.247127        -6.7247
  90   2.0000      -0.239093        -6.5060
  91   2.0000      -0.220738        -6.0066
  92   0.0000      -0.117012        -3.1841
  93   0.0000      -0.091095        -2.4788
  94   0.0000      -0.057539        -1.5657
  95   0.0000      -0.022256        -0.6056
  96   0.0000      -0.002715        -0.0739

MULLIKEN ATOMIC CHARGES
-----------------------
   0 C :   -0.311931
   1 O :   -0.126641
   2 C :    0.198493
   3 O :   -0.364112
   4 C :    0.273575
   5 C :   -0.551426
   6 N :   -0.291077
   7 C :    0.344427
   8 C :   -0.054548
   9 C :   -0.545405
  10 C :   -0.579494
  11 N :   -0.172192
  12 C :   -0.112738
  13 O :   -0.419922
  14 C :    0.440336
  15 N :   -0.167969
  16 N :   -0.281579
  17 C :    0.397742
  18 C :   -0.632296
  19 O :   -0.056405
  20 N :   -0.085445
  21 C :    0.083679
  22 O :   -0.358720
  23 C :    0.139834
  24 O :   -0.283630
  25 H :    0.182872
  26 H :    0.184118
  27 H :    0.181394
  28 H :    0.188106
  29 H :    0.186534
  30 H :    0.189574
  31 H :    0.197977
  32 H :    0.192613
  33 H :    0.192636
  34 H :    0.186931
  35 H :    0.185217
  36 H :    0.193214
  37 H :    0.321175
  38 H :    0.203444
  39 H :    0.205704
  40 H :    0.200193
  41 H :    0.325743
Sum of atomic charges:   -0.0000000

LOEWDIN ATOMIC CHARGES
----------------------
   0 C :   -0.028597
   1 O :   -0.563247
   2 C :    0.403046
   3 O :   -0.389797
   4 C :    0.119823
   5 C :   -0.326258
   6 N :   -0.580101
   7 C :    0.355685
   8 C :    0.104709
   9 C :   -0.336009
  10 C :   -0.342237
  11 N :   -0.572424
  12 C :    0.383943
  13 O :   -0.430999
  14 C :    0.413865
  15 N :   -0.331247
  16 N :   -0.357527
  17 C :    0.380962
  18 C :   -0.316748
  19 O :   -0.389741
  20 N :   -0.457723
  21 C :    0.370249
  22 O :   -0.391417
  23 C :    0.325564
  24 O :   -0.385666
  25 H :    0.189766
  26 H :    0.185854
  27 H :    0.186799
  28 H :    0.174412
  29 H :    0.178199
  30 H :    0.181422
  31 H :    0.179920
  32 H :    0.176019
  33 H :    0.176934
  34 H :    0.177436
  35 H :    0.169760
  36 H :    0.179497
  37 H :    0.301481
  38 H :    0.193056
  39 H :    0.191621
  40 H :    0.191627
  41 H :    0.308090

  Mayer bond orders larger than 0.100000
B(  0-C ,  1-O ) :   0.8131 B(  0-C , 25-H ) :   0.9604 B(  0-C , 26-H ) :   0.9502
B(  0-C , 27-H ) :   0.9519 B(  1-O ,  2-C ) :   1.1049 B(  2-C ,  3-O ) :   1.9242
B(  2-C ,  4-C ) :   1.0014 B(  2-C , 23-C ) :   0.1152 B(  4-C ,  5-C ) :   0.8908
B(  4-C ,  6-N ) :   0.6911 B(  4-C , 23-C ) :   0.7182 B(  5-C , 28-H ) :   0.9754
B(  5-C , 29-H ) :   0.9655 B(  5-C , 30-H ) :   0.9727 B(  6-N ,  7-C ) :   1.8844
B(  7-C ,  8-C ) :   0.8102 B(  7-C , 13-O ) :   0.1544 B(  7-C , 20-N ) :   0.9369
B(  8-C ,  9-C ) :   0.9354 B(  8-C , 10-C ) :   0.9160 B(  8-C , 11-N ) :   0.7302
B(  8-C , 20-N ) :   0.1073 B(  9-C , 31-H ) :   0.9623 B(  9-C , 32-H ) :   0.9480
B(  9-C , 33-H ) :   0.9601 B( 10-C , 34-H ) :   0.9590 B( 10-C , 35-H ) :   0.9703
B( 10-C , 36-H ) :   0.9636 B( 11-N , 12-C ) :   1.1670 B( 11-N , 37-H ) :   0.8917
B( 12-C , 13-O ) :   1.8567 B( 12-C , 14-C ) :   0.7813 B( 12-C , 16-N ) :   0.1030
B( 13-O , 14-C ) :  -0.1029 B( 14-C , 15-N ) :   1.7221 B( 14-C , 17-C ) :   0.1225
B( 14-C , 19-O ) :   1.0757 B( 15-N , 16-N ) :   1.2692 B( 16-N , 17-C ) :   1.6184
B( 17-C , 18-C ) :   0.8256 B( 17-C , 19-O ) :   1.0661 B( 18-C , 38-H ) :   0.9383
B( 18-C , 39-H ) :   0.9893 B( 18-C , 40-H ) :   0.9462 B( 20-N , 21-C ) :   1.0350
B( 20-N , 41-H ) :   0.8753 B( 21-C , 22-O ) :   2.0839 B( 21-C , 23-C ) :   0.8171
B( 23-C , 24-O ) :   2.0364

Dispersion correction           -0.019815078
FINAL SINGLE POINT ENERGY     -1268.655440351328

DIPOLE MOMENT
-------------
                                X             Y             Z
Electronic contribution:      2.45012      12.97885      -7.33923
Nuclear contribution   :     -0.00190     -16.14813      12.66450
                        -----------------------------------------
Total Dipole Moment    :      2.44822      -3.16929       5.32528
                        -----------------------------------------
Magnitude (a.u.)       :      6.66309
Magnitude (Debye)      :     16.93622

Rotational constants in cm-1:     0.016095     0.003963     0.003763
Rotational constants in MHz :   482.502380   118.818006   112.814364

                             ****ORCA TERMINATED NORMALLY****
TOTAL RUN TIME: 0 days 0 hours 1 minutes 26 seconds 107 msec
