   * xtb version 6.5.1 (579679a) compiled by 'ehlert@majestix' on 2022-07-11
          program call               : /lustre/hpc/kemi/ree/PhD/git/ReactivityQM/dep/xtb-6.5.1/bin/xtb --gfn 1 /lustre/hpc/kemi/ree/PhD/git/ReactivityQM/calculations/R02oxygendeprot/reac01prodN03/conf04/R02oxygendeprot_reac01prodN03_conf04_gfn1.xyz --opt --vfukui --chrg 0 --uhf 0 --alpb DMSO

   ID    Z sym.   atoms
    1    6 C      1, 3, 5, 6, 8-11, 13, 15, 18, 19, 22, 24
    2    8 O      2, 4, 14, 20, 23, 25
    3    7 N      7, 12, 16, 17, 21
    4    1 H      26-42

      * Solvation model:               ALPB
        Solvent                        DMSO
        Solvent mass                       7.8130E+01 g/mol
          :  Hamiltonian                  GFN1-xTB          :
 * total energy  :   -82.9874923 Eh     change       -0.1259082E-10 Eh
 * total energy  :   -82.9977226 Eh     change       -0.1023037E-01 Eh
 * total energy  :   -83.0016936 Eh     change       -0.3970959E-02 Eh
 * total energy  :   -83.0027364 Eh     change       -0.1042765E-02 Eh
 * total energy  :   -83.0037390 Eh     change       -0.1002642E-02 Eh
 * total energy  :   -83.0044950 Eh     change       -0.7559614E-03 Eh
 * total energy  :   -83.0051252 Eh     change       -0.6302774E-03 Eh
 * total energy  :   -83.0056163 Eh     change       -0.4910644E-03 Eh
 * total energy  :   -83.0058770 Eh     change       -0.2607475E-03 Eh
 * total energy  :   -83.0060027 Eh     change       -0.1256084E-03 Eh
 * total energy  :   -83.0092790 Eh     change       -0.2913144E-04 Eh
 * total energy  :   -83.0093067 Eh     change       -0.2765481E-04 Eh
 * total energy  :   -83.0093374 Eh     change       -0.3070442E-04 Eh
 * total energy  :   -83.0093618 Eh     change       -0.2441889E-04 Eh
 * total energy  :   -83.0093887 Eh     change       -0.2685190E-04 Eh
 * total energy  :   -83.0094058 Eh     change       -0.1714060E-04 Eh
 * total energy  :   -83.0094154 Eh     change       -0.9618669E-05 Eh
 * total energy  :   -83.0094237 Eh     change       -0.8263578E-05 Eh
 * total energy  :   -83.0094283 Eh     change       -0.4584916E-05 Eh
   *** GEOMETRY OPTIMIZATION CONVERGED AFTER 70 ITERATIONS ***

 final structure:
================
42
 xtb: 6.5.1 (579679a)
C           -4.42132402127975        0.02569652967546        2.11972730214804
O           -3.48007863936777        0.21041872613770        1.04953577824077
C           -3.91567339868808       -0.01716614590487       -0.17478839780471
O           -5.03847366521739       -0.32679237343902       -0.46642343911729
C           -2.78903723507752        0.18392121552688       -1.22729033527107
C           -3.30694401743369       -0.23742756223373       -2.60274339249522
N           -1.69688123385005       -0.67747987460874       -0.82760208189946
C           -0.74476499376331       -0.23028999837506       -0.12276451604243
C            0.33782374119945       -1.16265129421655        0.37722968294882
C            0.06349346294516       -1.47814586842513        1.85028736127433
C            0.37583031005964       -2.44052193629911       -0.46494669622554
N            1.62452860399571       -0.47166710312778        0.29294002347801
C            2.01882113174764        0.11890573937294       -0.85926434327089
O            1.29770641972879        0.27583183057570       -1.83030282068109
C            3.41956410825021        0.59860029037239       -0.81755309566116
N            4.06918389584668        1.23308330393639       -1.74307278806701
N            5.32505805813902        1.45028514197979       -1.26268259077118
C            5.36546571876321        0.93441226063229       -0.07357116201337
C            6.50528573303922        0.90941457875082        0.86757236121974
O            4.19094801169411        0.38007087140150        0.26902235626209
N           -0.64319728638978        1.08476413581971        0.31237038547975
C           -1.43281858010694        2.09843608407648       -0.13170531452107
O           -1.31300559381735        3.24126250322673        0.25017925563281
C           -2.46571813316562        1.66584402752968       -1.18052591686766
O           -3.00643779135007        2.47063937647651       -1.89345776894708
H           -3.92708273558498        0.36941478724038        3.02485299998725
H           -4.67597794292160       -1.03203582663076        2.20356703685211
H           -5.32435622597562        0.60795211155230        1.92645410232419
H           -2.51713974609243       -0.12377587976406       -3.34221896854126
H           -3.61886691087661       -1.27865578461732       -2.56809093587037
H           -4.15639391476725        0.38422404876820       -2.88044915964114
H           -0.91487192392342       -1.94598930788953        1.94801695208290
H            0.07995681168695       -0.56442592627186        2.44142049896558
H            0.82187900678622       -2.15934413653612        2.23065487875877
H           -0.57434591216215       -2.96379120808206       -0.37272037832344
H            1.17837371122666       -3.08583342286448       -0.11514664250321
H            0.54284956688893       -2.19164112820300       -1.51232581753677
H            2.30315025839951       -0.65248582539009        1.01233559366765
H            6.25883646445447        1.47991384862672        1.76308856565748
H            7.38430309148940        1.33858370749997        0.39260662181781
H            6.71334805577695       -0.11613686352910        1.17066325029513
H            0.08698473970888        1.31654734723888        0.96711855497457

          :  Hamiltonian                  GFN1-xTB          :
         :: total energy             -83.009428286239 Eh    ::
         :: gradient norm              0.000838245280 Eh/a0 ::
         :: HOMO-LUMO gap              2.437040114922 eV    ::
         :: SCC energy               -83.797947806515 Eh    ::
         :: -> Gsolv                  -0.064589343341 Eh    ::
         :: repulsion energy           0.816134577972 Eh    ::

    * Orbital Energies and Occupations

         #    Occupation            Energy/Eh            Energy/eV
      -------------------------------------------------------------
         1        2.0000           -0.8672446             -23.5989
       ...           ...                  ...                  ...
        55        2.0000           -0.5124924             -13.9456
        56        2.0000           -0.5101345             -13.8815
        57        2.0000           -0.5070077             -13.7964
        58        2.0000           -0.5029262             -13.6853
        59        2.0000           -0.4954522             -13.4819
        60        2.0000           -0.4825548             -13.1310
        61        2.0000           -0.4723296             -12.8527
        62        2.0000           -0.4698939             -12.7865
        63        2.0000           -0.4618404             -12.5673
        64        2.0000           -0.4566184             -12.4252
        65        2.0000           -0.4530673             -12.3286
        66        2.0000           -0.4511356             -12.2760
        67        2.0000           -0.4393693             -11.9558 (HOMO)
        68                         -0.3498097              -9.5188 (LUMO)
        69                         -0.3147486              -8.5647
        70                         -0.2971145              -8.0849
        71                         -0.2690149              -7.3203
        72                         -0.2581427              -7.0244
        73                         -0.2246980              -6.1143
        74                         -0.2018000              -5.4913
        75                         -0.1475690              -4.0156
        76                         -0.1420369              -3.8650
        77                         -0.1356706              -3.6918
        78                         -0.1265414              -3.4434
       ...                                ...                  ...
       134                          0.7593900              20.6641
      -------------------------------------------------------------
                  HL-Gap            0.0895596 Eh            2.4370 eV

Wiberg/Mayer (AO) data.
largest (>0.10) Wiberg bond orders for each atom

     #   Z sym  total        # sym  WBO       # sym  WBO       # sym  WBO
 ---------------------------------------------------------------------------
     1   6 C    3.854 --    26 H    0.985    28 H    0.980    27 H    0.979
                             2 O    0.876
     2   8 O    2.212 --     3 C    1.147     1 C    0.876     4 O    0.139
     3   6 C    3.842 --     4 O    1.704     2 O    1.147     5 C    0.867
     4   8 O    1.983 --     3 C    1.704     2 O    0.139
     5   6 C    3.965 --     6 C    0.983     7 N    0.976    24 C    0.953
                             3 C    0.867
     6   6 C    3.985 --    29 H    0.984    30 H    0.984    31 H    0.983
                             5 C    0.983
     7   7 N    3.026 --     8 C    1.757     5 C    0.976
     8   6 C    3.928 --     7 N    1.757    21 N    1.065     9 C    0.974
     9   6 C    3.936 --    11 C    0.989    10 C    0.982     8 C    0.974
                            12 N    0.928
    10   6 C    3.989 --    32 H    0.984    33 H    0.983     9 C    0.982
                            34 H    0.981
    11   6 C    3.988 --     9 C    0.989    36 H    0.985    35 H    0.983
                            37 H    0.982
    12   7 N    3.336 --    13 C    1.243     9 C    0.928    38 H    0.889
                            14 O    0.172
    13   6 C    3.915 --    14 O    1.590    12 N    1.243    15 C    0.997
    14   8 O    1.892 --    13 C    1.590    12 N    0.172
    15   6 C    3.874 --    16 N    1.620    20 O    1.048    13 C    0.997
    16   7 N    3.001 --    15 C    1.620    17 N    1.201
    17   7 N    2.982 --    18 C    1.608    16 N    1.201
    18   6 C    3.867 --    17 N    1.608    20 O    1.073    19 C    1.032
    19   6 C    3.986 --    18 C    1.032    40 H    0.982    41 H    0.964
                            39 H    0.961
    20   8 O    2.317 --    18 C    1.073    15 C    1.048
    21   7 N    3.434 --    22 C    1.194     8 C    1.065    42 H    0.881
                            23 O    0.150
    22   6 C    3.893 --    23 O    1.666    21 N    1.194    24 C    0.906
    23   8 O    1.951 --    22 C    1.666    21 N    0.150
    24   6 C    3.846 --    25 O    1.809     5 C    0.953    22 C    0.906
    25   8 O    2.021 --    24 C    1.809
    26   1 H    1.008 --     1 C    0.985
    27   1 H    1.003 --     1 C    0.979
    28   1 H    1.004 --     1 C    0.980
    29   1 H    1.000 --     6 C    0.984
    30   1 H    1.004 --     6 C    0.984
    31   1 H    1.006 --     6 C    0.983
    32   1 H    1.000 --    10 C    0.984
    33   1 H    0.998 --    10 C    0.983
    34   1 H    0.996 --    10 C    0.981
    35   1 H    1.008 --    11 C    0.983
    36   1 H    1.000 --    11 C    0.985
    37   1 H    1.007 --    11 C    0.982
    38   1 H    0.930 --    12 N    0.889
    39   1 H    0.996 --    19 C    0.961
    40   1 H    0.998 --    19 C    0.982
    41   1 H    0.996 --    19 C    0.964
    42   1 H    0.930 --    21 N    0.881
 ---------------------------------------------------------------------------

           -------------------------------------------------
          | TOTAL ENERGY              -83.009428286239 Eh   |
          | GRADIENT NORM               0.000838245280 Eh/α |
          | HOMO-LUMO GAP               2.437040114922 eV   |
           -------------------------------------------------

 * finished run on 2023/06/21 at 17:19:04.500
