   * xtb version 6.5.1 (579679a) compiled by 'ehlert@majestix' on 2022-07-11
          program call               : /lustre/hpc/kemi/ree/PhD/git/ReactivityQM/dep/xtb-6.5.1/bin/xtb --gfn 1 /lustre/hpc/kemi/ree/PhD/git/ReactivityQM/calculations/R03/reac01/conf01/R03_reac01_conf01_gfn1.xyz --opt --vfukui --chrg 0 --uhf 0 --alpb DMSO

   ID    Z sym.   atoms
    1    7 N      1
    2    6 C      2-6, 8, 9
    3    9 F      7
    4    1 H      10-17

      * Solvation model:               ALPB
        Solvent                        DMSO
        Solvent mass                       7.8130E+01 g/mol
          :  Hamiltonian                  GFN1-xTB          :
 * total energy  :   -27.4607669 Eh     change       -0.2481926E-10 Eh
 * total energy  :   -27.4627715 Eh     change       -0.2004682E-02 Eh
 * total energy  :   -27.4630851 Eh     change       -0.3135289E-03 Eh
 * total energy  :   -27.4631094 Eh     change       -0.2436743E-04 Eh
 * total energy  :   -27.4631230 Eh     change       -0.1360472E-04 Eh
 * total energy  :   -27.4631263 Eh     change       -0.3279088E-05 Eh
   *** GEOMETRY OPTIMIZATION CONVERGED AFTER 6 ITERATIONS ***

 final structure:
================
17
 xtb: 6.5.1 (579679a)
N           -2.64673732619144       -0.39064498766711       -0.42590436463061
C           -1.81450835519542       -0.11923590164988        0.74760583888484
C           -0.35466630879361        0.00741158002057        0.36570346232292
C            0.50326795260321       -1.08520669590084        0.47682969518342
C            1.83582976662539       -0.98501663915836        0.09957755664281
C            2.28680610423954        0.22512903228056       -0.39420708222351
F            3.57757144571272        0.33346142093408       -0.75799732449632
C            1.46501586641789        1.32959792071310       -0.52654319732032
C            0.13680924944212        1.20933780521259       -0.14213694892392
H           -2.53631766605713        0.36635083629736       -1.08837244392485
H           -2.31374212942955       -1.23467482763431       -0.87370052949666
H           -2.16680720784003        0.80811056926317        1.21045073952450
H           -1.94910005211890       -0.93752551510061        1.46185911500853
H            0.13102910791663       -2.02531646907714        0.86759409469413
H            2.51114806633637       -1.82601187498954        0.18731744257843
H            1.85659054805117        2.25946796047985       -0.91766952703756
H           -0.52218906171897        2.06476678597652       -0.23396252678582

          :  Hamiltonian                  GFN1-xTB          :
         :: total energy             -27.463126319313 Eh    ::
         :: gradient norm              0.000793245905 Eh/a0 ::
         :: HOMO-LUMO gap              3.705226590387 eV    ::
         :: SCC energy               -27.818959032626 Eh    ::
         :: -> Gsolv                  -0.015228292193 Eh    ::
         :: repulsion energy           0.363569206305 Eh    ::

    * Orbital Energies and Occupations

         #    Occupation            Energy/Eh            Energy/eV
      -------------------------------------------------------------
         1        2.0000           -0.8585667             -23.3628
       ...           ...                  ...                  ...
        12        2.0000           -0.5567856             -15.1509
        13        2.0000           -0.5530571             -15.0495
        14        2.0000           -0.5362303             -14.5916
        15        2.0000           -0.5307272             -14.4418
        16        2.0000           -0.5244907             -14.2721
        17        2.0000           -0.5187951             -14.1171
        18        2.0000           -0.5002863             -13.6135
        19        2.0000           -0.4926061             -13.4045
        20        2.0000           -0.4843893             -13.1809
        21        2.0000           -0.4668933             -12.7048
        22        2.0000           -0.4456567             -12.1269
        23        2.0000           -0.4318224             -11.7505
        24        2.0000           -0.4040308             -10.9942 (HOMO)
        25                         -0.2678662              -7.2890 (LUMO)
        26                         -0.2598567              -7.0711
        27                         -0.1398469              -3.8054
        28                         -0.1094499              -2.9783
        29                         -0.1068205              -2.9067
        30                         -0.0949138              -2.5827
        31                         -0.0902309              -2.4553
        32                         -0.0884997              -2.4082
        33                         -0.0677591              -1.8438
        34                         -0.0472086              -1.2846
        35                         -0.0235859              -0.6418
       ...                                ...                  ...
        52                          0.6506777              17.7058
      -------------------------------------------------------------
                  HL-Gap            0.1361646 Eh            3.7052 eV

Wiberg/Mayer (AO) data.
largest (>0.10) Wiberg bond orders for each atom

     #   Z sym  total        # sym  WBO       # sym  WBO       # sym  WBO
 ---------------------------------------------------------------------------
     1   7 N    2.956 --     2 C    0.987    10 H    0.949    11 H    0.949
     2   6 C    3.979 --     3 C    0.997     1 N    0.987    13 H    0.980
                            12 H    0.977
     3   6 C    3.988 --     4 C    1.416     9 C    1.413     2 C    0.997
     4   6 C    3.994 --     5 C    1.442     3 C    1.416    14 H    0.972
                             8 C    0.110
     5   6 C    3.992 --     4 C    1.442     6 C    1.403    15 H    0.970
                             9 C    0.110
     6   6 C    3.860 --     5 C    1.403     8 C    1.400     7 F    0.920
     7   9 F    1.047 --     6 C    0.920
     8   6 C    3.992 --     9 C    1.445     6 C    1.400    16 H    0.970
                             4 C    0.110
     9   6 C    3.994 --     8 C    1.445     3 C    1.413    17 H    0.972
                             5 C    0.110
    10   1 H    0.964 --     1 N    0.949
    11   1 H    0.963 --     1 N    0.949
    12   1 H    1.010 --     2 C    0.977
    13   1 H    1.010 --     2 C    0.980
    14   1 H    1.001 --     4 C    0.972
    15   1 H    0.999 --     5 C    0.970
    16   1 H    0.999 --     8 C    0.970
    17   1 H    1.000 --     9 C    0.972
 ---------------------------------------------------------------------------

           -------------------------------------------------
          | TOTAL ENERGY              -27.463126319313 Eh   |
          | GRADIENT NORM               0.000793245905 Eh/α |
          | HOMO-LUMO GAP               3.705226590387 eV   |
           -------------------------------------------------

 * finished run on 2023/06/20 at 15:12:17.250
