   * xtb version 6.5.1 (579679a) compiled by 'ehlert@majestix' on 2022-07-11
          program call               : /lustre/hpc/kemi/ree/PhD/git/ReactivityQM/dep/xtb-6.5.1/bin/xtb --gfn 1 /lustre/hpc/kemi/ree/PhD/git/ReactivityQM/calculations/R03/reac02prodE10/conf05/R03_reac02prodE10_conf05_gfn1.xyz --opt --vfukui --chrg -1 --uhf 0 --alpb DMSO

   ID    Z sym.   atoms
    1    6 C      1, 3, 5, 7-10, 12, 14, 17-19, 22, 23, 25
    2    8 O      2, 4, 13, 20, 24, 26
    3    7 N      6, 11, 15, 16, 21
    4    1 H      27-46

      * Solvation model:               ALPB
        Solvent                        DMSO
        Solvent mass                       7.8130E+01 g/mol
          :  Hamiltonian                  GFN1-xTB          :
 * total energy  :   -86.9842915 Eh     change       -0.4933298E-09 Eh
 * total energy  :   -86.9976814 Eh     change       -0.1338988E-01 Eh
 * total energy  :   -87.0028129 Eh     change       -0.5131475E-02 Eh
 * total energy  :   -87.0035127 Eh     change       -0.6998642E-03 Eh
 * total energy  :   -87.0040501 Eh     change       -0.5373574E-03 Eh
 * total energy  :   -87.0042113 Eh     change       -0.1611838E-03 Eh
 * total energy  :   -87.0043736 Eh     change       -0.1623557E-03 Eh
 * total energy  :   -87.0044684 Eh     change       -0.9475746E-04 Eh
 * total energy  :   -87.0045326 Eh     change       -0.6425257E-04 Eh
 * total energy  :   -87.0045735 Eh     change       -0.4086110E-04 Eh
 * total energy  :   -87.0046630 Eh     change       -0.1868496E-04 Eh
 * total energy  :   -87.0046588 Eh     change        0.4238395E-05 Eh
 * total energy  :   -87.0046725 Eh     change       -0.1376477E-04 Eh
 * total energy  :   -87.0046870 Eh     change       -0.1448393E-04 Eh
 * total energy  :   -87.0046963 Eh     change       -0.9261938E-05 Eh
 * total energy  :   -87.0047076 Eh     change       -0.1134263E-04 Eh
 * total energy  :   -87.0047192 Eh     change       -0.1162270E-04 Eh
 * total energy  :   -87.0047263 Eh     change       -0.7031546E-05 Eh
 * total energy  :   -87.0047300 Eh     change       -0.3716014E-05 Eh
   *** GEOMETRY OPTIMIZATION CONVERGED AFTER 22 ITERATIONS ***

 final structure:
================
46
 xtb: 6.5.1 (579679a)
C            6.12101710984846        2.14232762387061        2.26815951898299
O            5.30885527760046        1.81471765868147        1.14594690300444
C            4.21180053861481        1.02496258185689        1.42908380522490
O            3.99462081143090        0.66049887426755        2.58399239421078
C            3.40800814769240        0.69731813287744        0.27693947675273
N            2.32985269379603       -0.11537144038826        0.56280171332870
C            1.50516521446776       -0.50774987086259       -0.34779820820574
C            0.40294674188842       -1.46669528504139        0.11092082667927
C            0.71379070783683       -2.86396532628285       -0.45389335301744
C            0.40819614873452       -1.52753087290588        1.64973944093221
N           -0.88664036031557       -0.96473539851518       -0.37266758395717
C           -2.08943202965303       -1.63934533264856        0.00709678628207
O           -2.09734577480695       -2.84190672707759        0.38353560759883
C           -3.23246167271854       -0.86026675953150       -0.15797348427709
N           -4.54655707220942       -1.20697769800419        0.07989610266500
N           -5.22762594789260       -0.10004464921592       -0.20481491857980
C           -6.66569025513975       -0.10071164214694       -0.07146464152281
C           -4.46567995997056        0.90021422996647       -0.58825131803999
C           -4.87727354084045        2.26362890822334       -0.99460572619047
O           -3.17306141718549        0.50391116990505       -0.59266543752213
N            1.65374842320288       -0.13657211655156       -1.66578536820661
C            0.77566629703670       -0.53144384558310       -2.76414516161167
C            2.74250748619860        0.66647205866321       -2.08799632126198
O            2.84993975108311        0.93591627716047       -3.29729712965807
C            3.62209503795453        1.09205679883024       -1.05410246139800
O            4.66440967623093        1.88131145805918       -1.46324297104237
H            6.95433057063883        2.73704544754682        1.89803391502599
H            6.49907828938253        1.23410047408730        2.74853358139392
H            5.54981994135527        2.72052135695036        3.00137775947872
H            0.07162796384559       -3.61216872398707        0.00734675009077
H            1.75293473695407       -3.11514519771456       -0.24052014126575
H            0.56079855947057       -2.89600788511511       -1.53071151142427
H            1.37446366926486       -1.88303050321825        2.00621444265627
H           -0.36861628558584       -2.20757003261197        1.99607653736164
H            0.22648517585918       -0.53642613442322        2.06418030725416
H           -0.97073004116005        0.03641075233546       -0.23971106363418
H           -6.97454401051167       -1.09850058802301        0.23087816303624
H           -7.12094105332951        0.15937781479691       -1.02555622060776
H           -6.96453561794436        0.62688969532000        0.68177245700074
H           -5.65020417647062        2.64299665406610       -0.32744019858972
H           -4.01367809102396        2.92508181163525       -0.96189958728918
H           -5.27852096409156        2.26415302072272       -2.01052681319664
H            0.52887176439922        0.35659514970670       -3.34975331482163
H           -0.14202807790974       -0.97479517996596       -2.39037916208472
H            1.29623613316793       -1.24019548608626       -3.41269969701189
H            5.21829748079501        2.14065074636444       -0.70937969455124

          :  Hamiltonian                  GFN1-xTB          :
         :: total energy             -87.004729978800 Eh    ::
         :: gradient norm              0.000272274504 Eh/a0 ::
         :: HOMO-LUMO gap              0.039039599325 eV    ::
         :: SCC energy               -87.794379201918 Eh    ::
         :: -> Gsolv                  -0.128400592352 Eh    ::
         :: repulsion energy           0.818071323560 Eh    ::

    * Orbital Energies and Occupations

         #    Occupation            Energy/Eh            Energy/eV
      -------------------------------------------------------------
         1        2.0000           -0.8382380             -22.8096
       ...           ...                  ...                  ...
        59        2.0000           -0.4705672             -12.8048
        60        2.0000           -0.4647251             -12.6458
        61        2.0000           -0.4628438             -12.5946
        62        2.0000           -0.4460276             -12.1370
        63        2.0000           -0.4369969             -11.8913
        64        2.0000           -0.4268210             -11.6144
        65        2.0000           -0.4179046             -11.3718
        66        2.0000           -0.4133697             -11.2484
        67        2.0000           -0.4032583             -10.9732
        68        2.0000           -0.4019622             -10.9379
        69        2.0000           -0.3873445             -10.5402
        70        2.0000           -0.3817034             -10.3867
        71        1.3606           -0.2895791              -7.8798 (HOMO)
        72        0.6394           -0.2881444              -7.8408 (LUMO)
        73                         -0.2596859              -7.0664
        74                         -0.2362880              -6.4297
        75                         -0.1948662              -5.3026
        76                         -0.1531796              -4.1682
        77                         -0.1459144              -3.9705
        78                         -0.1383792              -3.7655
        79                         -0.1200018              -3.2654
        80                         -0.1156671              -3.1475
        81                         -0.1110262              -3.0212
        82                         -0.0997993              -2.7157
       ...                                ...                  ...
       144                          0.6988208              19.0159
      -------------------------------------------------------------
                  HL-Gap            0.0014347 Eh            0.0390 eV

Wiberg/Mayer (AO) data.
largest (>0.10) Wiberg bond orders for each atom

     #   Z sym  total        # sym  WBO       # sym  WBO       # sym  WBO
 ---------------------------------------------------------------------------
     1   6 C    3.892 --    27 H    0.987    29 H    0.981    28 H    0.981
                             2 O    0.918
     2   8 O    2.115 --     3 C    0.987     1 C    0.918
     3   6 C    3.732 --     4 O    1.543     5 C    1.136     2 O    0.987
     4   8 O    1.765 --     3 C    1.543
     5   6 C    3.818 --    25 C    1.310     6 N    1.148     3 C    1.136
     6   7 N    3.009 --     7 C    1.596     5 C    1.148
     7   6 C    3.903 --     6 N    1.596    21 N    1.145     8 C    0.971
     8   6 C    3.956 --    10 C    0.990     9 C    0.985     7 C    0.971
                            11 N    0.952
     9   6 C    3.992 --    31 H    0.988     8 C    0.985    32 H    0.983
                            30 H    0.978
    10   6 C    3.993 --     8 C    0.990    35 H    0.986    33 H    0.985
                            34 H    0.983
    11   7 N    3.111 --    12 C    1.006     8 C    0.952    36 H    0.926
    12   6 C    3.808 --    13 O    1.389    14 C    1.310    11 N    1.006
    13   8 O    1.652 --    12 C    1.389
    14   6 C    3.565 --    12 C    1.310    15 N    1.195    20 O    0.878
    15   7 N    2.693 --    14 C    1.195    16 N    1.173    18 C    0.206
    16   7 N    3.638 --    18 C    1.395    15 N    1.173    17 C    0.940
    17   6 C    3.937 --    37 H    0.983    38 H    0.980    39 H    0.978
                            16 N    0.940
    18   6 C    3.771 --    16 N    1.395    20 O    1.062    19 C    1.029
                            15 N    0.206
    19   6 C    3.987 --    18 C    1.029    41 H    0.979    40 H    0.974
                            42 H    0.961
    20   8 O    2.108 --    18 C    1.062    14 C    0.878
    21   7 N    3.361 --     7 C    1.145    23 C    1.034    22 C    0.945
                            24 O    0.103
    22   6 C    3.942 --    45 H    0.980    43 H    0.979    44 H    0.973
                            21 N    0.945
    23   6 C    3.839 --    24 O    1.478    25 C    1.204    21 N    1.034
    24   8 O    1.754 --    23 C    1.478    21 N    0.103
    25   6 C    3.728 --     5 C    1.310    23 C    1.204    26 O    1.032
    26   8 O    1.981 --    25 C    1.032    46 H    0.824
    27   1 H    1.014 --     1 C    0.987
    28   1 H    1.013 --     1 C    0.981
    29   1 H    1.013 --     1 C    0.981
    30   1 H    1.025 --     9 C    0.978
    31   1 H    1.007 --     9 C    0.988
    32   1 H    1.008 --     9 C    0.983
    33   1 H    1.018 --    10 C    0.985
    34   1 H    1.017 --    10 C    0.983
    35   1 H    1.013 --    10 C    0.986
    36   1 H    0.967 --    11 N    0.926
    37   1 H    1.007 --    17 C    0.983
    38   1 H    0.999 --    17 C    0.980
    39   1 H    0.999 --    17 C    0.978
    40   1 H    0.997 --    19 C    0.974
    41   1 H    0.997 --    19 C    0.979
    42   1 H    0.995 --    19 C    0.961
    43   1 H    1.013 --    22 C    0.979
    44   1 H    1.026 --    22 C    0.973
    45   1 H    1.008 --    22 C    0.980
    46   1 H    0.879 --    26 O    0.824
 ---------------------------------------------------------------------------

           -------------------------------------------------
          | TOTAL ENERGY              -87.004729978800 Eh   |
          | GRADIENT NORM               0.000272274504 Eh/α |
          | HOMO-LUMO GAP               0.039039599325 eV   |
           -------------------------------------------------

 * finished run on 2023/06/20 at 15:30:00.860
