   * xtb version 6.5.1 (579679a) compiled by 'ehlert@majestix' on 2022-07-11
          program call               : /lustre/hpc/kemi/ree/PhD/git/ReactivityQM/dep/xtb-6.5.1/bin/xtb --gfn 1 /lustre/hpc/kemi/ree/PhD/git/ReactivityQM/calculations/R02methylcation/reac01prodE14/conf19/R02methylcation_reac01prodE14_conf19_gfn1.xyz --opt --vfukui --chrg -2 --uhf 0 --alpb DMSO

   ID    Z sym.   atoms
    1    6 C      1, 3, 5, 7-10, 12, 14, 17, 18, 21, 23, 24
    2    8 O      2, 4, 13, 19, 22, 25
    3    7 N      6, 11, 15, 16, 20
    4    1 H      26-42

      * Solvation model:               ALPB
        Solvent                        DMSO
        Solvent mass                       7.8130E+01 g/mol
          :  Hamiltonian                  GFN1-xTB          :
 * total energy  :   -83.5849995 Eh     change       -0.4842491E-09 Eh
 * total energy  :   -83.5997081 Eh     change       -0.1470862E-01 Eh
 * total energy  :   -83.6054023 Eh     change       -0.5694196E-02 Eh
 * total energy  :   -83.6063149 Eh     change       -0.9125721E-03 Eh
 * total energy  :   -83.6069337 Eh     change       -0.6187459E-03 Eh
 * total energy  :   -83.6073163 Eh     change       -0.3826732E-03 Eh
 * total energy  :   -83.6076536 Eh     change       -0.3373039E-03 Eh
 * total energy  :   -83.6079013 Eh     change       -0.2476317E-03 Eh
 * total energy  :   -83.6080468 Eh     change       -0.1455806E-03 Eh
 * total energy  :   -83.6081494 Eh     change       -0.1025445E-03 Eh
 * total energy  :   -83.6101534 Eh     change       -0.8386071E-05 Eh
 * total energy  :   -83.6101708 Eh     change       -0.1739312E-04 Eh
 * total energy  :   -83.6101941 Eh     change       -0.2329055E-04 Eh
 * total energy  :   -83.6102118 Eh     change       -0.1774658E-04 Eh
 * total energy  :   -83.6102247 Eh     change       -0.1284148E-04 Eh
 * total energy  :   -83.6102374 Eh     change       -0.1272751E-04 Eh
 * total energy  :   -83.6102475 Eh     change       -0.1012284E-04 Eh
 * total energy  :   -83.6102530 Eh     change       -0.5428983E-05 Eh
 * total energy  :   -83.6102575 Eh     change       -0.4490266E-05 Eh
   *** GEOMETRY OPTIMIZATION CONVERGED AFTER 60 ITERATIONS ***

 final structure:
================
42
 xtb: 6.5.1 (579679a)
C           -5.98124883508988        1.16991484214602        0.92254843596064
O           -4.74268878699263        0.55706533356409        1.20321508240056
C           -3.79123212347044        0.64098822991854        0.16959860293867
O           -4.12604418380288        1.24636058851656       -0.87304909330724
C           -2.56708199434200       -0.00194621288992        0.41269462450478
N           -1.65009209391439        0.18833811789135       -0.59795602427786
C           -0.50398258593566       -0.38454389527025       -0.60296081765191
C            0.48697979379670       -0.13096333596675       -1.72071972559699
C            0.09489084937205        1.15345979571077       -2.45997827990894
C            0.51490046376380       -1.32604446376828       -2.69001780302746
N            1.82351872838346        0.02270554166322       -1.11486208512946
C            2.93696977860947        0.29695919692642       -1.81502000090442
O            2.98796771051375        0.51484851897655       -3.02408389309993
C            4.16103955242426        0.33888249906874       -0.98117223686421
N            5.36840972912276        0.64279815235950       -1.36971911233643
N            6.17006813496848        0.55511248426978       -0.26741512661460
C            5.40992428076963        0.20370172639964        0.72151940549649
C            5.81064216077648       -0.03233937517910        2.12682754069868
O            4.12802564681666        0.05120923624700        0.34370223627634
N           -0.13854837742773       -1.34930015773870        0.36152511556612
C           -1.03288610368745       -1.73423632025762        1.32710521827482
O           -0.87752997239372       -2.83012173158861        1.87870152065873
C           -2.07455128303420       -0.64033794239984        1.75181056735867
C           -3.23201239115067       -1.41948333723207        2.46661402296883
O           -1.44583841344693        0.22483463580143        2.56377189975950
H           -5.86480766145175        2.24301363243365        0.72055940729257
H           -6.61927006403474        1.04073137551602        1.79881321888792
H           -6.47001026113740        0.70917273600808        0.05403487819133
H            0.72535147796779        1.31249732774899       -3.33207814515834
H           -0.94369498282951        1.07092633709598       -2.78157571048489
H            0.18497950637782        2.01037095758637       -1.79223599476123
H            1.18967801288955       -1.13317949592703       -3.52248703990083
H           -0.48758280983382       -1.49684817923788       -3.08016712918871
H            0.84859203843602       -2.22200864973795       -2.16906466155899
H            1.91902169422726       -0.19318467318332       -0.13254119579161
H            5.69911330254770       -1.08777237390736        2.37495781859925
H            5.17754896476288        0.54282014706100        2.80126100139580
H            6.84915467474320        0.25894832185431        2.26196202237055
H            0.55999901844159       -2.02762642478523        0.10890792407476
H           -2.79683547635012       -2.11957701721556        3.18184620904586
H           -3.84458706724849       -1.97496107224622        1.75524082114000
H           -3.85625005214326       -0.72049307621850        3.01988750170271

          :  Hamiltonian                  GFN1-xTB          :
         :: total energy             -83.610257452771 Eh    ::
         :: gradient norm              0.000696494944 Eh/a0 ::
         :: HOMO-LUMO gap              0.158025205365 eV    ::
         :: SCC energy               -84.343911722017 Eh    ::
         :: -> Gsolv                  -0.292922810492 Eh    ::
         :: repulsion energy           0.759364874519 Eh    ::

    * Orbital Energies and Occupations

         #    Occupation            Energy/Eh            Energy/eV
      -------------------------------------------------------------
         1        2.0000           -0.8474041             -23.0590
       ...           ...                  ...                  ...
        56        2.0000           -0.4410627             -12.0019
        57        2.0000           -0.4355165             -11.8510
        58        2.0000           -0.4308671             -11.7245
        59        2.0000           -0.4248307             -11.5602
        60        2.0000           -0.4209975             -11.4559
        61        2.0000           -0.4144909             -11.2789
        62        2.0000           -0.3993040             -10.8656
        63        2.0000           -0.3913843             -10.6501
        64        2.0000           -0.3831726             -10.4267
        65        2.0000           -0.3694452             -10.0531
        66        2.0000           -0.3066528              -8.3444
        67        1.9869           -0.2986894              -8.1278
        68        1.9164           -0.2968935              -8.0789 (HOMO)
        69        0.0967           -0.2910862              -7.9209 (LUMO)
        70                         -0.2427389              -6.6053
        71                         -0.2113291              -5.7506
        72                         -0.1776615              -4.8344
        73                         -0.1722320              -4.6867
        74                         -0.1360039              -3.7009
        75                         -0.1129107              -3.0725
        76                         -0.1047018              -2.8491
        77                         -0.1035494              -2.8177
        78                         -0.0970017              -2.6396
        79                         -0.0805221              -2.1911
       ...                                ...                  ...
       134                          0.7256938              19.7471
      -------------------------------------------------------------
                  HL-Gap            0.0058073 Eh            0.1580 eV

Wiberg/Mayer (AO) data.
largest (>0.10) Wiberg bond orders for each atom

     #   Z sym  total        # sym  WBO       # sym  WBO       # sym  WBO
 ---------------------------------------------------------------------------
     1   6 C    3.922 --    27 H    0.987    28 H    0.980    26 H    0.980
                             2 O    0.953
     2   8 O    2.082 --     1 C    0.953     3 C    0.932
     3   6 C    3.845 --     4 O    1.444     5 C    1.332     2 O    0.932
     4   8 O    1.740 --     3 C    1.444     5 C    0.107
     5   6 C    3.815 --     3 C    1.332     6 N    1.186    23 C    0.916
                             4 O    0.107
     6   7 N    3.053 --     7 C    1.621     5 C    1.186
     7   6 C    3.887 --     6 N    1.621    20 N    1.002     8 C    0.978
     8   6 C    3.924 --     9 C    0.995    10 C    0.981     7 C    0.978
                            11 N    0.905
     9   6 C    3.994 --     8 C    0.995    31 H    0.986    29 H    0.984
                            30 H    0.983
    10   6 C    3.988 --    33 H    0.986    34 H    0.985    32 H    0.983
                             8 C    0.981
    11   7 N    3.346 --    12 C    1.276     8 C    0.905    35 H    0.899
                            13 O    0.175
    12   6 C    3.892 --    13 O    1.536    11 N    1.276    14 C    1.004
    13   8 O    1.843 --    12 C    1.536    11 N    0.175
    14   6 C    3.826 --    15 N    1.588    19 O    1.035    12 C    1.004
    15   7 N    2.943 --    14 C    1.588    16 N    1.191
    16   7 N    2.980 --    17 C    1.619    15 N    1.191
    17   6 C    3.860 --    16 N    1.619    19 O    1.068    18 C    1.029
    18   6 C    3.989 --    17 C    1.029    38 H    0.983    37 H    0.968
                            36 H    0.963
    19   8 O    2.291 --    17 C    1.068    14 C    1.035
    20   7 N    3.343 --    21 C    1.168     7 C    1.002    39 H    0.913
                            22 O    0.115
    21   6 C    3.811 --    22 O    1.565    20 N    1.168    23 C    0.879
    22   8 O    1.832 --    21 C    1.565    20 N    0.115
    23   6 C    3.963 --    25 O    1.123    24 C    0.947     5 C    0.916
                            21 C    0.879
    24   6 C    3.988 --    41 H    0.990    42 H    0.987    40 H    0.986
                            23 C    0.947
    25   8 O    1.407 --    23 C    1.123
    26   1 H    1.023 --     1 C    0.980
    27   1 H    1.020 --     1 C    0.987
    28   1 H    1.022 --     1 C    0.980
    29   1 H    1.016 --     9 C    0.984
    30   1 H    1.025 --     9 C    0.983
    31   1 H    1.012 --     9 C    0.986
    32   1 H    1.011 --    10 C    0.983
    33   1 H    1.008 --    10 C    0.986
    34   1 H    1.006 --    10 C    0.985
    35   1 H    0.954 --    11 N    0.899
    36   1 H    0.998 --    18 C    0.963
    37   1 H    0.998 --    18 C    0.968
    38   1 H    1.000 --    18 C    0.983
    39   1 H    0.965 --    20 N    0.913
    40   1 H    1.026 --    24 C    0.986
    41   1 H    1.017 --    24 C    0.990
    42   1 H    1.034 --    24 C    0.987
 ---------------------------------------------------------------------------

           -------------------------------------------------
          | TOTAL ENERGY              -83.610257452771 Eh   |
          | GRADIENT NORM               0.000696494944 Eh/α |
          | HOMO-LUMO GAP               0.158025205365 eV   |
           -------------------------------------------------

 * finished run on 2023/06/21 at 17:28:48.987
