   * xtb version 6.5.1 (579679a) compiled by 'ehlert@majestix' on 2022-07-11
          program call               : /lustre/hpc/kemi/ree/PhD/git/ReactivityQM/dep/xtb-6.5.1/bin/xtb --gfn 1 /lustre/hpc/kemi/ree/PhD/git/ReactivityQM/calculations/R01/reac01prodN08/conf06/R01_reac01prodN08_conf06_gfn1.xyz --opt --vfukui --chrg 1 --uhf 0 --alpb DMSO

   ID    Z sym.   atoms
    1    6 C      1, 2, 5, 6, 9, 10
    2    7 N      3, 4
    3    8 O      7, 8, 11
    4    1 H      12-20

      * Solvation model:               ALPB
        Solvent                        DMSO
        Solvent mass                       7.8130E+01 g/mol
          :  Hamiltonian                  GFN1-xTB          :
 * total energy  :   -37.5755606 Eh     change       -0.8384404E-11 Eh
 * total energy  :   -37.5833506 Eh     change       -0.7789974E-02 Eh
 * total energy  :   -37.5856597 Eh     change       -0.2309170E-02 Eh
 * total energy  :   -37.5860708 Eh     change       -0.4110326E-03 Eh
 * total energy  :   -37.5862845 Eh     change       -0.2136986E-03 Eh
 * total energy  :   -37.5864394 Eh     change       -0.1549487E-03 Eh
 * total energy  :   -37.5865917 Eh     change       -0.1523307E-03 Eh
 * total energy  :   -37.5867289 Eh     change       -0.1371776E-03 Eh
 * total energy  :   -37.5868405 Eh     change       -0.1115288E-03 Eh
 * total energy  :   -37.5869240 Eh     change       -0.8352824E-04 Eh
 * total energy  :   -37.5870866 Eh     change       -0.2922855E-04 Eh
 * total energy  :   -37.5871317 Eh     change       -0.4512453E-04 Eh
 * total energy  :   -37.5871465 Eh     change       -0.1476548E-04 Eh
 * total energy  :   -37.5871632 Eh     change       -0.1673555E-04 Eh
 * total energy  :   -37.5871700 Eh     change       -0.6839941E-05 Eh
 * total energy  :   -37.5871776 Eh     change       -0.7568815E-05 Eh
 * total energy  :   -37.5871816 Eh     change       -0.4027877E-05 Eh
 * total energy  :   -37.5871881 Eh     change       -0.6445632E-05 Eh
 * total energy  :   -37.5871923 Eh     change       -0.4217118E-05 Eh
   *** GEOMETRY OPTIMIZATION CONVERGED AFTER 22 ITERATIONS ***

 final structure:
================
20
 xtb: 6.5.1 (579679a)
C            2.75154366328194       -1.00581812348816       -2.23618310384856
C            2.17963524124775       -0.02989389721342       -1.29243139530059
N            2.75014705238707        1.03987596002051       -0.79751495635541
N            1.85975428693789        1.62591082644023        0.00708682962679
C            0.77406096070639        0.89418514854758       -0.02109952682475
C           -0.42025362874427        1.22471257078040        0.71505707569371
O           -0.58889394678075        2.17741804873337        1.40168490490342
O           -1.53479132615374        0.31774565820472        0.54495407550230
C           -2.76119193675688        0.68198964506705        1.26137776239699
C           -1.38892517772721       -1.08735262728635        0.15464505281802
O            0.93228363499733       -0.16999696552857       -0.83558096451787
H            3.81152909794790       -0.80768877157752       -2.37826057802376
H            2.60554103160604       -2.01618239458814       -1.85568678251543
H            2.23503756697259       -0.93442500519345       -3.19459841091253
H           -3.58226006377217        0.22455385589269        0.71768759203620
H           -2.69457711603550        0.31218928637800        2.28314943559668
H           -2.83205397705865        1.76722564799722        1.23497604416538
H           -2.28866036596516       -1.59726894374752        0.48636771786151
H           -0.51050908485098       -1.49650156670812        0.64733138273432
H           -1.29741591223933       -1.12067735273048       -0.92874315503653

          :  Hamiltonian                  GFN1-xTB          :
         :: total energy             -37.587192290643 Eh    ::
         :: gradient norm              0.000517982196 Eh/a0 ::
         :: HOMO-LUMO gap              2.955104308580 eV    ::
         :: SCC energy               -37.934048747944 Eh    ::
         :: -> Gsolv                  -0.094012827005 Eh    ::
         :: repulsion energy           0.355470057471 Eh    ::

    * Orbital Energies and Occupations

         #    Occupation            Energy/Eh            Energy/eV
      -------------------------------------------------------------
         1        2.0000           -0.9475356             -25.7838
       ...           ...                  ...                  ...
        18        2.0000           -0.6227490             -16.9459
        19        2.0000           -0.5922278             -16.1153
        20        2.0000           -0.5873543             -15.9827
        21        2.0000           -0.5772866             -15.7088
        22        2.0000           -0.5742136             -15.6251
        23        2.0000           -0.5693202             -15.4920
        24        2.0000           -0.5614463             -15.2777
        25        2.0000           -0.5530485             -15.0492
        26        2.0000           -0.5510599             -14.9951
        27        2.0000           -0.5477411             -14.9048
        28        2.0000           -0.5219898             -14.2041
        29        2.0000           -0.4968853             -13.5209
        30        2.0000           -0.4930773             -13.4173 (HOMO)
        31                         -0.3844792             -10.4622 (LUMO)
        32                         -0.2953907              -8.0380
        33                         -0.2602856              -7.0827
        34                         -0.1951233              -5.3096
        35                         -0.1735274              -4.7219
        36                         -0.1581573              -4.3037
        37                         -0.1391331              -3.7860
        38                         -0.1211222              -3.2959
        39                         -0.1105711              -3.0088
        40                         -0.1069502              -2.9103
        41                         -0.0924665              -2.5161
       ...                                ...                  ...
        62                          0.7215557              19.6345
      -------------------------------------------------------------
                  HL-Gap            0.1085981 Eh            2.9551 eV

Wiberg/Mayer (AO) data.
largest (>0.10) Wiberg bond orders for each atom

     #   Z sym  total        # sym  WBO       # sym  WBO       # sym  WBO
 ---------------------------------------------------------------------------
     1   6 C    3.976 --     2 C    1.043    12 H    0.978    13 H    0.957
                            14 H    0.947
     2   6 C    3.847 --     3 N    1.521    11 O    1.095     1 C    1.043
     3   7 N    2.994 --     2 C    1.521     4 N    1.288
     4   7 N    3.020 --     5 C    1.527     3 N    1.288
     5   6 C    3.887 --     4 N    1.527     6 C    1.082    11 O    1.044
     6   6 C    3.825 --     7 O    1.773     5 C    1.082     8 O    0.830
     7   8 O    2.057 --     6 C    1.773
     8   8 O    2.527 --     6 C    0.830     9 C    0.782    10 C    0.779
     9   6 C    3.755 --    16 H    0.978    15 H    0.977    17 H    0.970
                             8 O    0.782
    10   6 C    3.756 --    19 H    0.977    18 H    0.974    20 H    0.974
                             8 O    0.779
    11   8 O    2.341 --     2 C    1.095     5 C    1.044
    12   1 H    0.993 --     1 C    0.978
    13   1 H    0.990 --     1 C    0.957
    14   1 H    0.990 --     1 C    0.947
    15   1 H    0.992 --     9 C    0.977
    16   1 H    0.989 --     9 C    0.978
    17   1 H    0.995 --     9 C    0.970
    18   1 H    0.990 --    10 C    0.974
    19   1 H    0.995 --    10 C    0.977
    20   1 H    0.999 --    10 C    0.974
 ---------------------------------------------------------------------------

           -------------------------------------------------
          | TOTAL ENERGY              -37.587192290643 Eh   |
          | GRADIENT NORM               0.000517982196 Eh/α |
          | HOMO-LUMO GAP               2.955104308580 eV   |
           -------------------------------------------------

 * finished run on 2023/06/20 at 14:56:49.215
