   * xtb version 6.5.1 (579679a) compiled by 'ehlert@majestix' on 2022-07-11
          program call               : /lustre/hpc/kemi/ree/PhD/git/ReactivityQM/dep/xtb-6.5.1/bin/xtb --gfn 1 /lustre/hpc/kemi/ree/PhD/git/ReactivityQM/calculations/R02deprot/reac01prodN08/conf16/R02deprot_reac01prodN08_conf16_gfn1.xyz --opt --vfukui --chrg 0 --uhf 0 --alpb DMSO

   ID    Z sym.   atoms
    1    6 C      1, 3, 5, 7-10, 12, 14, 17-19, 22, 24
    2    8 O      2, 4, 13, 20, 23, 25
    3    7 N      6, 11, 15, 16, 21
    4    1 H      26-42

      * Solvation model:               ALPB
        Solvent                        DMSO
        Solvent mass                       7.8130E+01 g/mol
          :  Hamiltonian                  GFN1-xTB          :
 * total energy  :   -82.9426535 Eh     change       -0.7638334E-10 Eh
 * total energy  :   -82.9603554 Eh     change       -0.1770186E-01 Eh
 * total energy  :   -82.9668123 Eh     change       -0.6456853E-02 Eh
 * total energy  :   -82.9677638 Eh     change       -0.9515495E-03 Eh
 * total energy  :   -82.9684175 Eh     change       -0.6536507E-03 Eh
 * total energy  :   -82.9686888 Eh     change       -0.2713531E-03 Eh
 * total energy  :   -82.9690022 Eh     change       -0.3134224E-03 Eh
 * total energy  :   -82.9693337 Eh     change       -0.3314854E-03 Eh
 * total energy  :   -82.9696815 Eh     change       -0.3477417E-03 Eh
 * total energy  :   -82.9700437 Eh     change       -0.3622299E-03 Eh
 * total energy  :   -82.9721980 Eh     change       -0.2139914E-04 Eh
 * total energy  :   -82.9722035 Eh     change       -0.5437195E-05 Eh
 * total energy  :   -82.9722136 Eh     change       -0.1011246E-04 Eh
 * total energy  :   -82.9722218 Eh     change       -0.8203442E-05 Eh
 * total energy  :   -82.9722216 Eh     change        0.1883833E-06 Eh
 * total energy  :   -82.9722281 Eh     change       -0.6516532E-05 Eh
 * total energy  :   -82.9722334 Eh     change       -0.5340828E-05 Eh
 * total energy  :   -82.9722393 Eh     change       -0.5854110E-05 Eh
 * total energy  :   -82.9722438 Eh     change       -0.4481504E-05 Eh
   *** GEOMETRY OPTIMIZATION CONVERGED AFTER 51 ITERATIONS ***

 final structure:
================
42
 xtb: 6.5.1 (579679a)
C            7.17795929006237        0.69892540277006        0.05863544991092
O            5.83120028697724        0.73725977755576        0.53964804832154
C            4.91461242898455        0.10653536420711       -0.22754882533686
O            5.23050844349871       -0.45966933117269       -1.25296943353426
C            3.53348620597033        0.19316031774990        0.29328888530418
N            2.61183736309638       -0.40096647194054       -0.53126447992022
C            1.35541233708456       -0.33931355934450       -0.16380870216769
C            0.35505749085869       -1.00307435802810       -1.10447685822555
C            0.56811405109942       -0.49748342542734       -2.53463982884885
C            0.51424807060367       -2.52713189477392       -1.02955474152290
N           -0.97588387283964       -0.62047403218712       -0.62166454534855
C           -2.11988579109549       -0.94696004625801       -1.20105155600098
O           -2.28679979657427       -1.61506848906508       -2.20729925573334
C           -3.31698214590238       -0.37420571735693       -0.47813147145257
N           -4.56370199851578       -0.48181046472373       -0.83045919917340
N           -5.24845472143983        0.20689469087243        0.10198209994715
C           -6.69046322088968        0.29988011747646        0.02681202300503
C           -4.41941020261085        0.71057388653032        0.99149013824692
C           -4.72470372794811        1.53195628498398        2.17390187481548
O           -3.19727505113189        0.35972171972480        0.64753895546857
N            0.85871597146837        0.22417941757026        0.93126482095045
C            1.70197128155310        0.81928549723500        1.82499479986612
O            1.29227305947385        1.34493914191373        2.86872171560844
C            3.13219365714460        0.79631209795734        1.46247144801914
O            3.95420490182364        1.40028205074837        2.35181355325543
H            7.23353608122048        1.14367731392658       -0.93835062216329
H            7.53228185412850       -0.33413293656532        0.01366332680388
H            7.78003244339469        1.27265029227331        0.75961628158473
H            0.34928965148423        0.56805951773086       -2.59006502659625
H            1.61135027248607       -0.65906048911364       -2.80584448083541
H           -0.07225113749433       -1.03015491465447       -3.23550972784352
H            0.29794912304501       -2.87508204378420       -0.02041089565569
H           -0.16251888736721       -3.01746455876771       -1.72761102790369
H            1.54177315460639       -2.78629626282087       -1.28276504841918
H           -0.95269927999770       -0.07537211451966        0.24286222031999
H           -6.99871553190293       -0.06437888138917       -0.94969415934912
H           -7.12728275678796       -0.31164842726912        0.81497740740134
H           -6.98426479238783        1.33848496568722        0.16058862327547
H           -3.85141280878473        1.58367146102248        2.82149669401954
H           -5.57100583258640        1.10910034881151        2.71352988225609
H           -4.99736891716507        2.54116094478180        1.85891817041677
H            4.88307205335597        1.36625180764138        2.07490446723896

          :  Hamiltonian                  GFN1-xTB          :
         :: total energy             -82.972243783000 Eh    ::
         :: gradient norm              0.000569605463 Eh/a0 ::
         :: HOMO-LUMO gap              0.747190768259 eV    ::
         :: SCC energy               -83.753444862644 Eh    ::
         :: -> Gsolv                  -0.098558549786 Eh    ::
         :: repulsion energy           0.806062064834 Eh    ::

    * Orbital Energies and Occupations

         #    Occupation            Energy/Eh            Energy/eV
      -------------------------------------------------------------
         1        2.0000           -0.9319930             -25.3608
       ...           ...                  ...                  ...
        55        2.0000           -0.4954322             -13.4814
        56        2.0000           -0.4942471             -13.4491
        57        2.0000           -0.4874272             -13.2636
        58        2.0000           -0.4837747             -13.1642
        59        2.0000           -0.4799686             -13.0606
        60        2.0000           -0.4692067             -12.7678
        61        2.0000           -0.4560351             -12.4093
        62        2.0000           -0.4540581             -12.3555
        63        2.0000           -0.4411023             -12.0030
        64        2.0000           -0.4259271             -11.5901
        65        2.0000           -0.4062411             -11.0544
        66        2.0000           -0.3804419             -10.3524
        67        2.0000           -0.3753801             -10.2146 (HOMO)
        68        0.0000           -0.3479213              -9.4674 (LUMO)
        69                         -0.3385503              -9.2124
        70                         -0.2828184              -7.6959
        71                         -0.2331966              -6.3456
        72                         -0.2266171              -6.1666
        73                         -0.1957902              -5.3277
        74                         -0.1831233              -4.9830
        75                         -0.1703610              -4.6358
        76                         -0.1282626              -3.4902
        77                         -0.1205102              -3.2793
        78                         -0.1170715              -3.1857
       ...                                ...                  ...
       134                          0.7388451              20.1050
      -------------------------------------------------------------
                  HL-Gap            0.0274588 Eh            0.7472 eV

Wiberg/Mayer (AO) data.
largest (>0.10) Wiberg bond orders for each atom

     #   Z sym  total        # sym  WBO       # sym  WBO       # sym  WBO
 ---------------------------------------------------------------------------
     1   6 C    3.876 --    28 H    0.987    27 H    0.980    26 H    0.980
                             2 O    0.899
     2   8 O    2.186 --     3 C    1.061     1 C    0.899     4 O    0.120
     3   6 C    3.835 --     4 O    1.648     2 O    1.061     5 C    1.032
     4   8 O    1.909 --     3 C    1.648     2 O    0.120
     5   6 C    3.962 --    24 C    1.478     6 N    1.195     3 C    1.032
     6   7 N    2.997 --     7 C    1.470     5 C    1.195
     7   6 C    3.960 --     6 N    1.470    21 N    1.370     8 C    0.967
     8   6 C    3.914 --     9 C    0.987    10 C    0.980     7 C    0.967
                            11 N    0.908
     9   6 C    3.991 --     8 C    0.987    29 H    0.986    31 H    0.984
                            30 H    0.982
    10   6 C    3.991 --    32 H    0.986    34 H    0.984    33 H    0.984
                             8 C    0.980
    11   7 N    3.425 --    12 C    1.346     8 C    0.908    35 H    0.856
                            13 O    0.209
    12   6 C    3.932 --    13 O    1.567    11 N    1.346    14 C    0.947
    13   8 O    1.901 --    12 C    1.567    11 N    0.209
    14   6 C    3.829 --    15 N    1.612    20 O    1.053    12 C    0.947
    15   7 N    2.976 --    14 C    1.612    16 N    1.147
    16   7 N    3.631 --    18 C    1.427    15 N    1.147    17 C    0.912
    17   6 C    3.889 --    36 H    0.978    38 H    0.974    37 H    0.967
                            16 N    0.912
    18   6 C    3.845 --    16 N    1.427    20 O    1.150    19 C    1.040
    19   6 C    3.963 --    18 C    1.040    39 H    0.971    40 H    0.957
                            41 H    0.939
    20   8 O    2.377 --    18 C    1.150    14 C    1.053
    21   7 N    3.019 --     7 C    1.370    22 C    1.216    23 O    0.126
    22   6 C    3.927 --    23 O    1.514    21 N    1.216    24 C    1.064
    23   8 O    1.801 --    22 C    1.514    21 N    0.126
    24   6 C    3.903 --     5 C    1.478    25 O    1.069    22 C    1.064
    25   8 O    2.054 --    24 C    1.069    42 H    0.820
    26   1 H    1.010 --     1 C    0.980
    27   1 H    1.009 --     1 C    0.980
    28   1 H    1.011 --     1 C    0.987
    29   1 H    1.004 --     9 C    0.986
    30   1 H    1.017 --     9 C    0.982
    31   1 H    1.010 --     9 C    0.984
    32   1 H    1.004 --    10 C    0.986
    33   1 H    1.007 --    10 C    0.984
    34   1 H    1.009 --    10 C    0.984
    35   1 H    0.966 --    11 N    0.856
    36   1 H    0.993 --    17 C    0.978
    37   1 H    0.990 --    17 C    0.967
    38   1 H    0.990 --    17 C    0.974
    39   1 H    0.986 --    19 C    0.971
    40   1 H    0.988 --    19 C    0.957
    41   1 H    0.986 --    19 C    0.939
    42   1 H    0.872 --    25 O    0.820
 ---------------------------------------------------------------------------

           -------------------------------------------------
          | TOTAL ENERGY              -82.972243783000 Eh   |
          | GRADIENT NORM               0.000569605463 Eh/α |
          | HOMO-LUMO GAP               0.747190768259 eV   |
           -------------------------------------------------

 * finished run on 2023/06/20 at 18:15:20.965
