   * xtb version 6.5.1 (579679a) compiled by 'ehlert@majestix' on 2022-07-11
          program call               : /lustre/hpc/kemi/ree/PhD/git/ReactivityQM/dep/xtb-6.5.1/bin/xtb --gfn 1 /lustre/hpc/kemi/ree/PhD/git/ReactivityQM/calculations/RaltegravirCLI/reac02prodN04/conf17/RaltegravirCLI_reac02prodN04_conf17_gfn1.xyz --opt --vfukui --chrg 1 --uhf 0 --alpb DMSO

   ID    Z sym.   atoms
    1    6 C      1, 3-6, 9-11, 14-18, 20-22, 24
    2    7 N      2, 7, 8, 13
    3    8 O      12, 23, 25
    4    9 F      19
    5    1 H      26-47

      * Solvation model:               ALPB
        Solvent                        DMSO
        Solvent mass                       7.8130E+01 g/mol
          :  Hamiltonian                  GFN1-xTB          :
 * total energy  :   -79.4964049 Eh     change       -0.2103206E-10 Eh
 * total energy  :   -79.5112937 Eh     change       -0.1488880E-01 Eh
 * total energy  :   -79.5165167 Eh     change       -0.5223027E-02 Eh
 * total energy  :   -79.5178518 Eh     change       -0.1335093E-02 Eh
 * total energy  :   -79.5189515 Eh     change       -0.1099693E-02 Eh
 * total energy  :   -79.5195615 Eh     change       -0.6099951E-03 Eh
 * total energy  :   -79.5200496 Eh     change       -0.4880828E-03 Eh
 * total energy  :   -79.5204613 Eh     change       -0.4117037E-03 Eh
 * total energy  :   -79.5207896 Eh     change       -0.3282766E-03 Eh
 * total energy  :   -79.5210914 Eh     change       -0.3018003E-03 Eh
 * total energy  :   -79.5243694 Eh     change       -0.2502823E-04 Eh
 * total energy  :   -79.5243858 Eh     change       -0.1642733E-04 Eh
 * total energy  :   -79.5244052 Eh     change       -0.1937871E-04 Eh
 * total energy  :   -79.5244187 Eh     change       -0.1350254E-04 Eh
 * total energy  :   -79.5244306 Eh     change       -0.1191688E-04 Eh
 * total energy  :   -79.5244371 Eh     change       -0.6448069E-05 Eh
 * total energy  :   -79.5244436 Eh     change       -0.6529347E-05 Eh
 * total energy  :   -79.5244511 Eh     change       -0.7532165E-05 Eh
 * total energy  :   -79.5244555 Eh     change       -0.4304909E-05 Eh
   *** GEOMETRY OPTIMIZATION CONVERGED AFTER 46 ITERATIONS ***

 final structure:
================
47
 xtb: 6.5.1 (579679a)
C           -3.50383419483221       -2.22534573246422       -0.91841410086416
N           -2.31981581121554       -1.43986954112372       -0.54005212664992
C           -2.35426099846256       -0.16123496471162       -0.10509175204670
C           -3.55749991881974        0.74790913674083       -0.40257633823696
C           -4.16369451619287        0.45823870260769       -1.79328048762618
C           -4.62961920866215        0.64119016024419        0.69126880097143
N           -3.07154215304601        2.12178265764255       -0.44184146557840
N           -1.26286492361484        0.32242263819709        0.49660348942408
C           -1.32151393405255        1.50243791248837        1.38085740947222
C           -0.02742970973359       -0.31663708696029        0.45226684688461
C            1.20664691813429        0.44967493094598        0.88539902361000
O            1.31102713007582        1.65135129101506        0.69267564348410
N            2.14850483117263       -0.30229739968700        1.45936488622377
C            3.44362912111274        0.28155186443861        1.81961616037264
C            4.35732339638755        0.27771602795047        0.61397730400762
C            5.14380071813186       -0.83747909140190        0.33580714048111
C            5.95753689550179       -0.86359234959650       -0.78816438983967
C            5.96152357634832        0.24223564882216       -1.61935466643440
F            6.74394897993662        0.22471240404349       -2.70913292344694
C            5.18999606302772        1.36415171883036       -1.37401326238174
C            4.38179425181356        1.37312388806337       -0.24626168916039
C            0.04663077834466       -1.54035842461278       -0.13094275985985
O            1.19179493933795       -2.21488961637768       -0.26773114142444
C           -1.14951082033687       -2.20693665638510       -0.60556325803786
O           -1.14683853848021       -3.34482951730414       -1.02961381590218
H           -3.59250342165490       -2.26262120091342       -2.00257060941461
H           -4.39390998874716       -1.81000953717554       -0.46498844853005
H           -3.34647998000016       -3.23624423676483       -0.54160479962493
H           -4.62510126312119        1.37873701326457       -2.14852827027357
H           -4.93947035506835       -0.30134550957029       -1.76248063710671
H           -3.39154456438868        0.16770409316011       -2.50276505661001
H           -5.48753073446504        1.24481350148987        0.39952654585140
H           -4.95597516023629       -0.38737936298111        0.82604569735991
H           -4.24960772472771        1.01155956017909        1.64156020718343
H           -2.59125551010037        2.28461432556964       -1.31711417607675
H           -3.86353538700593        2.74764603437591       -0.39767450569444
H           -0.98787308020133        2.38815633779397        0.84486034690645
H           -2.33451475478944        1.63924173542785        1.73656104056996
H           -0.66663575011187        1.30969137553966        2.22850785706964
H            2.04279843569775       -1.29822977074745        1.54195975963585
H            3.85867656314654       -0.31767010824292        2.63179073463751
H            3.26634624629199        1.30195120678773        2.17034441333807
H            5.11941034338439       -1.69393268573365        0.99875429718082
H            6.57178410474470       -1.72473667405924       -1.01732622845779
H            5.21978857027128        2.20752889608663       -2.05164404370659
H            3.76015759033688        2.23552253117773       -0.03566608889099
H            1.01124594886756       -3.09002912606183       -0.65995056279967

          :  Hamiltonian                  GFN1-xTB          :
         :: total energy             -79.524455454417 Eh    ::
         :: gradient norm              0.000965583257 Eh/a0 ::
         :: HOMO-LUMO gap              2.316229925176 eV    ::
         :: SCC energy               -80.425135288904 Eh    ::
         :: -> Gsolv                  -0.107430895285 Eh    ::
         :: repulsion energy           0.932136833285 Eh    ::

    * Orbital Energies and Occupations

         #    Occupation            Energy/Eh            Energy/eV
      -------------------------------------------------------------
         1        2.0000           -0.8796508             -23.9365
       ...           ...                  ...                  ...
        55        2.0000           -0.5185849             -14.1114
        56        2.0000           -0.5162140             -14.0469
        57        2.0000           -0.5146446             -14.0042
        58        2.0000           -0.5123685             -13.9423
        59        2.0000           -0.5089240             -13.8485
        60        2.0000           -0.5056721             -13.7600
        61        2.0000           -0.4809131             -13.0863
        62        2.0000           -0.4781939             -13.0123
        63        2.0000           -0.4710527             -12.8180
        64        2.0000           -0.4601823             -12.5222
        65        2.0000           -0.4574655             -12.4483
        66        2.0000           -0.4442396             -12.0884
        67        2.0000           -0.4374889             -11.9047 (HOMO)
        68                         -0.3523690              -9.5884 (LUMO)
        69                         -0.3500490              -9.5253
        70                         -0.2794420              -7.6040
        71                         -0.2750718              -7.4851
        72                         -0.2676462              -7.2830
        73                         -0.2097508              -5.7076
        74                         -0.1623756              -4.4185
        75                         -0.1528342              -4.1588
        76                         -0.1519006              -4.1334
        77                         -0.1451526              -3.9498
        78                         -0.1370841              -3.7302
       ...                                ...                  ...
       144                          0.6951540              18.9161
      -------------------------------------------------------------
                  HL-Gap            0.0851199 Eh            2.3162 eV

Wiberg/Mayer (AO) data.
largest (>0.10) Wiberg bond orders for each atom

     #   Z sym  total        # sym  WBO       # sym  WBO       # sym  WBO
 ---------------------------------------------------------------------------
     1   6 C    3.896 --    27 H    0.977    26 H    0.972    28 H    0.967
                             2 N    0.910
     2   7 N    3.528 --     3 C    1.280    24 C    1.071     1 C    0.910
                            25 O    0.119
     3   6 C    3.886 --     8 N    1.369     2 N    1.280     4 C    0.968
     4   6 C    3.954 --     7 N    0.994     6 C    0.978     5 C    0.977
                             3 C    0.968
     5   6 C    3.987 --    31 H    0.984    30 H    0.979    29 H    0.978
                             4 C    0.977
     6   6 C    3.987 --    32 H    0.979     4 C    0.978    33 H    0.978
                            34 H    0.977
     7   7 N    2.976 --     4 C    0.994    35 H    0.935    36 H    0.929
     8   7 N    3.576 --     3 C    1.369    10 C    1.100     9 C    0.900
     9   6 C    3.890 --    38 H    0.977    39 H    0.975    37 H    0.966
                             8 N    0.900
    10   6 C    3.922 --    22 C    1.537     8 N    1.100    11 C    0.958
    11   6 C    3.920 --    12 O    1.572    13 N    1.314    10 C    0.958
    12   8 O    1.913 --    11 C    1.572    13 N    0.184
    13   7 N    3.384 --    11 C    1.314    14 C    0.924    40 H    0.890
                            12 O    0.184
    14   6 C    3.933 --    15 C    0.993    41 H    0.975    42 H    0.972
                            13 N    0.924
    15   6 C    3.987 --    16 C    1.420    21 C    1.418    14 C    0.993
    16   6 C    3.994 --    17 C    1.443    15 C    1.420    43 H    0.971
                            20 C    0.110
    17   6 C    3.991 --    16 C    1.443    18 C    1.400    44 H    0.969
                            21 C    0.111
    18   6 C    3.861 --    17 C    1.400    20 C    1.400    19 F    0.928
    19   9 F    1.057 --    18 C    0.928
    20   6 C    3.992 --    21 C    1.444    18 C    1.400    45 H    0.969
                            16 C    0.110
    21   6 C    3.993 --    20 C    1.444    15 C    1.418    46 H    0.969
                            17 C    0.111
    22   6 C    3.927 --    10 C    1.537    23 O    1.107    24 C    1.067
    23   8 O    2.085 --    22 C    1.107    47 H    0.790
    24   6 C    3.908 --    25 O    1.622     2 N    1.071    22 C    1.067
    25   8 O    1.953 --    24 C    1.622     2 N    0.119
    26   1 H    0.997 --     1 C    0.972
    27   1 H    1.004 --     1 C    0.977
    28   1 H    0.999 --     1 C    0.967
    29   1 H    0.998 --     5 C    0.978
    30   1 H    1.000 --     5 C    0.979
    31   1 H    0.997 --     5 C    0.984
    32   1 H    0.995 --     6 C    0.979
    33   1 H    1.001 --     6 C    0.978
    34   1 H    1.000 --     6 C    0.977
    35   1 H    0.948 --     7 N    0.935
    36   1 H    0.944 --     7 N    0.929
    37   1 H    1.022 --     9 C    0.966
    38   1 H    1.018 --     9 C    0.977
    39   1 H    1.000 --     9 C    0.975
    40   1 H    0.937 --    13 N    0.890
    41   1 H    1.001 --    14 C    0.975
    42   1 H    1.005 --    14 C    0.972
    43   1 H    0.998 --    16 C    0.971
    44   1 H    0.997 --    17 C    0.969
    45   1 H    0.998 --    20 C    0.969
    46   1 H    1.008 --    21 C    0.969
    47   1 H    0.825 --    23 O    0.790
 ---------------------------------------------------------------------------

           -------------------------------------------------
          | TOTAL ENERGY              -79.524455454417 Eh   |
          | GRADIENT NORM               0.000965583257 Eh/α |
          | HOMO-LUMO GAP               2.316229925176 eV   |
           -------------------------------------------------

 * finished run on 2023/06/20 at 15:20:18.960
