                         Program Version 5.0.1 -  RELEASE  -
|  1> # ORCA input file
|  2> ! SP r2SCAN-3c CPCM
|  3>
|  4> %maxcore 1875.0
|  5> %pal nprocs 4 end
|  6> %cpcm smd true SMDsolvent "DMSO" end
|  7>
|  8> *xyz 1 1
|  9> C       1.679773   -0.487697    0.122241
| 10> O       0.740043    0.615850   -0.011608
| 11> B      -0.747941    0.573336   -0.066708
| 12> C      -1.443313   -0.808144   -0.058649
| 13> O      -1.340231    1.747914   -0.126422
| 14> H       1.116931   -1.408139   -0.006878
| 15> H       2.433835   -0.387479   -0.656268
| 16> H       2.126920   -0.443957    1.114648
| 17> H       1.176754    1.478577   -0.008664
| 18> H      -1.130425   -1.408301   -0.912995
| 19> H      -2.525750   -0.694249   -0.098284
| 20> H      -1.189664   -1.371625    0.838822
| 21> H      -0.896932    2.593914   -0.129237
| 22> **                         ****END OF INPUT****

CARTESIAN COORDINATES (ANGSTROEM)
---------------------------------
  C      1.679773   -0.487697    0.122241
  O      0.740043    0.615850   -0.011608
  B     -0.747941    0.573336   -0.066708
  C     -1.443313   -0.808144   -0.058649
  O     -1.340231    1.747914   -0.126422
  H      1.116931   -1.408139   -0.006878
  H      2.433835   -0.387479   -0.656268
  H      2.126920   -0.443957    1.114648
  H      1.176754    1.478577   -0.008664
  H     -1.130425   -1.408301   -0.912995
  H     -2.525750   -0.694249   -0.098284
  H     -1.189664   -1.371625    0.838822
  H     -0.896932    2.593914   -0.129237

 Total Charge           Charge          ....    1
 Multiplicity           Mult            ....    1
 Number of Electrons    NEL             ....   40
 Basis Dimension        Dim             ....  145

ORBITAL ENERGIES
----------------

  NO   OCC          E(Eh)            E(eV)
   0   2.0000     -19.106025      -519.9014
   1   2.0000     -19.011069      -517.3175
   2   2.0000     -10.119106      -275.3549
   3   2.0000     -10.022104      -272.7153
   4   2.0000      -6.729085      -183.1077
   5   2.0000      -1.131211       -30.7818
   6   2.0000      -1.040717       -28.3194
   7   2.0000      -0.730888       -19.8885
   8   2.0000      -0.697323       -18.9751
   9   2.0000      -0.622422       -16.9370
  10   2.0000      -0.584829       -15.9140
  11   2.0000      -0.535920       -14.5831
  12   2.0000      -0.487285       -13.2597
  13   2.0000      -0.407213       -11.0808
  14   2.0000      -0.401684       -10.9304
  15   2.0000      -0.393050       -10.6954
  16   2.0000      -0.374632       -10.1942
  17   2.0000      -0.366908        -9.9841
  18   2.0000      -0.349375        -9.5070
  19   2.0000      -0.347404        -9.4533
  20   0.0000      -0.018906        -0.5144
  21   0.0000      -0.010303        -0.2804
  22   0.0000       0.049725         1.3531
  23   0.0000       0.061303         1.6681
  24   0.0000       0.076421         2.0795

MULLIKEN ATOMIC CHARGES
-----------------------
   0 C :   -0.264323
   1 O :   -0.264637
   2 B :    0.695109
   3 C :   -0.698236
   4 O :   -0.470882
   5 H :    0.214570
   6 H :    0.207411
   7 H :    0.207515
   8 H :    0.398984
   9 H :    0.209273
  10 H :    0.190706
  11 H :    0.208660
  12 H :    0.365850
Sum of atomic charges:    1.0000000

LOEWDIN ATOMIC CHARGES
----------------------
   0 C :    0.030140
   1 O :   -0.467200
   2 B :    0.381114
   3 C :   -0.468841
   4 O :   -0.327830
   5 H :    0.213053
   6 H :    0.202585
   7 H :    0.200895
   8 H :    0.338846
   9 H :    0.200365
  10 H :    0.192533
  11 H :    0.199895
  12 H :    0.304444

  Mayer bond orders larger than 0.100000
B(  0-C ,  1-O ) :   0.8115 B(  0-C ,  5-H ) :   0.9370 B(  0-C ,  6-H ) :   0.9378
B(  0-C ,  7-H ) :   0.9357 B(  1-O ,  2-B ) :   0.6657 B(  1-O ,  8-H ) :   0.8334
B(  2-B ,  3-C ) :   1.1201 B(  2-B ,  4-O ) :   1.2267 B(  3-C ,  9-H ) :   0.9181
B(  3-C , 10-H ) :   0.9290 B(  3-C , 11-H ) :   0.9197 B(  4-O , 12-H ) :   0.8568

Dispersion correction           -0.002379262
FINAL SINGLE POINT ENERGY      -256.177106677678

DIPOLE MOMENT
-------------
                                X             Y             Z
Electronic contribution:     -0.77392       4.77587      -0.25556
Nuclear contribution   :      2.84199      -4.36378       0.36395
                        -----------------------------------------
Total Dipole Moment    :      2.06807       0.41210       0.10839
                        -----------------------------------------
Magnitude (a.u.)       :      2.11151
Magnitude (Debye)      :      5.36703

Rotational constants in cm-1:     0.247965     0.122724     0.084733
Rotational constants in MHz :  7433.809648  3679.161211  2540.227073

                             ****ORCA TERMINATED NORMALLY****
TOTAL RUN TIME: 0 days 0 hours 0 minutes 11 seconds 411 msec
