   * xtb version 6.5.1 (579679a) compiled by 'ehlert@majestix' on 2022-07-11
          program call               : /lustre/hpc/kemi/ree/PhD/git/ReactivityQM/dep/xtb-6.5.1/bin/xtb --gfn 1 /lustre/hpc/kemi/ree/PhD/git/ReactivityQM/calculations/R02oxygendeprot/reac02prodN01/conf05/R02oxygendeprot_reac02prodN01_conf05_gfn1.xyz --opt --vfukui --chrg 1 --uhf 0 --alpb DMSO

   ID    Z sym.   atoms
    1    6 C      1, 4
    2    8 O      2, 5
    3    5 B      3
    4    1 H      6-13

      * Solvation model:               ALPB
        Solvent                        DMSO
        Solvent mass                       7.8130E+01 g/mol
          :  Hamiltonian                  GFN1-xTB          :
 * total energy  :   -19.0543747 Eh     change       -0.3646861E-10 Eh
 * total energy  :   -19.0631941 Eh     change       -0.8819364E-02 Eh
 * total energy  :   -19.0657740 Eh     change       -0.2579888E-02 Eh
 * total energy  :   -19.0662107 Eh     change       -0.4366912E-03 Eh
 * total energy  :   -19.0665849 Eh     change       -0.3742257E-03 Eh
 * total energy  :   -19.0666663 Eh     change       -0.8139643E-04 Eh
 * total energy  :   -19.0667109 Eh     change       -0.4466265E-04 Eh
 * total energy  :   -19.0667296 Eh     change       -0.1867190E-04 Eh
 * total energy  :   -19.0667382 Eh     change       -0.8597921E-05 Eh
 * total energy  :   -19.0667404 Eh     change       -0.2130915E-05 Eh
   *** GEOMETRY OPTIMIZATION CONVERGED AFTER 10 ITERATIONS ***

 final structure:
================
13
 xtb: 6.5.1 (579679a)
C            1.67977303186337       -0.48769716660534        0.12224085053551
O            0.74004332433300        0.61585048249848       -0.01160830436037
B           -0.74794099548466        0.57333644449525       -0.06670771823374
C           -1.44331310484896       -0.80814440905497       -0.05864883543474
O           -1.34023067072802        1.74791428394197       -0.12642200786767
H            1.11693057994733       -1.40813909229951       -0.00687796246210
H            2.43383524232305       -0.38747866813680       -0.65626802293195
H            2.12691968114793       -0.44395741757649        1.11464784224937
H            1.17675429918142        1.47857660577842       -0.00866420436095
H           -1.13042526806047       -1.40830136145484       -0.91299486328225
H           -2.52575046188860       -0.69424939475272       -0.09828381548631
H           -1.18966380297539       -1.37162451561156        0.83882192001201
H           -0.89693185481002        2.59391420877811       -0.12923687837685

          :  Hamiltonian                  GFN1-xTB          :
         :: total energy             -19.066740350634 Eh    ::
         :: gradient norm              0.000383989632 Eh/a0 ::
         :: HOMO-LUMO gap              7.749244311192 eV    ::
         :: SCC energy               -19.259439208971 Eh    ::
         :: -> Gsolv                  -0.101771481826 Eh    ::
         :: repulsion energy           0.196289161386 Eh    ::

    * Orbital Energies and Occupations

         #    Occupation            Energy/Eh            Energy/eV
      -------------------------------------------------------------
         1        2.0000           -0.9093905             -24.7458
       ...           ...                  ...                  ...
         3        2.0000           -0.7654449             -20.8288
         4        2.0000           -0.7514604             -20.4483
         5        2.0000           -0.6980132             -18.9939
         6        2.0000           -0.6869657             -18.6933
         7        2.0000           -0.6581730             -17.9098
         8        2.0000           -0.6551596             -17.8278
         9        2.0000           -0.6078249             -16.5398
        10        2.0000           -0.5996511             -16.3173
        11        2.0000           -0.5728221             -15.5873
        12        2.0000           -0.5537023             -15.0670
        13        2.0000           -0.5463729             -14.8676
        14        2.0000           -0.5427093             -14.7679
        15        2.0000           -0.5332759             -14.5112 (HOMO)
        16                         -0.2484964              -6.7619 (LUMO)
        17                         -0.1913943              -5.2081
        18                         -0.1801994              -4.9035
        19                         -0.1574750              -4.2851
        20                         -0.1130665              -3.0767
        21                         -0.1097890              -2.9875
        22                         -0.1031428              -2.8067
        23                         -0.0819348              -2.2296
        24                         -0.0695453              -1.8924
        25                         -0.0478769              -1.3028
        26                          0.0688617               1.8738
       ...                                ...                  ...
        36                          0.6177213              16.8091
      -------------------------------------------------------------
                  HL-Gap            0.2847795 Eh            7.7492 eV

Wiberg/Mayer (AO) data.
largest (>0.10) Wiberg bond orders for each atom

     #   Z sym  total        # sym  WBO       # sym  WBO       # sym  WBO
 ---------------------------------------------------------------------------
     1   6 C    3.786 --     6 H    0.981     8 H    0.980     7 H    0.980
                             2 O    0.817
     2   8 O    2.369 --     1 C    0.817     9 H    0.754     3 B    0.735
     3   5 B    3.140 --     5 O    1.285     4 C    1.044     2 O    0.735
     4   6 C    3.988 --     3 B    1.044    11 H    0.975    12 H    0.959
                            10 H    0.958
     5   8 O    2.156 --     3 B    1.285    13 H    0.790
     6   1 H    0.997 --     1 C    0.981
     7   1 H    0.994 --     1 C    0.980
     8   1 H    0.994 --     1 C    0.980
     9   1 H    0.782 --     2 O    0.754
    10   1 H    0.993 --     4 C    0.958
    11   1 H    0.993 --     4 C    0.975
    12   1 H    0.993 --     4 C    0.959
    13   1 H    0.812 --     5 O    0.790
 ---------------------------------------------------------------------------

           -------------------------------------------------
          | TOTAL ENERGY              -19.066740350634 Eh   |
          | GRADIENT NORM               0.000383989632 Eh/α |
          | HOMO-LUMO GAP               7.749244311192 eV   |
           -------------------------------------------------

 * finished run on 2023/06/21 at 17:40:21.070
