   * xtb version 6.5.1 (579679a) compiled by 'ehlert@majestix' on 2022-07-11
          program call               : /lustre/hpc/kemi/ree/PhD/git/ReactivityQM/dep/xtb-6.5.1/bin/xtb --gfn 1 /lustre/hpc/kemi/ree/PhD/git/ReactivityQM/calculations/R01/reac01prodN03/conf06/R01_reac01prodN03_conf06_gfn1.xyz --opt --vfukui --chrg 1 --uhf 0 --alpb DMSO

   ID    Z sym.   atoms
    1    6 C      1, 3, 5, 7, 8, 11
    2    8 O      2, 4, 6
    3    7 N      9, 10
    4    1 H      12-20

      * Solvation model:               ALPB
        Solvent                        DMSO
        Solvent mass                       7.8130E+01 g/mol
          :  Hamiltonian                  GFN1-xTB          :
 * total energy  :   -37.6223331 Eh     change       -0.5428547E-11 Eh
 * total energy  :   -37.6369989 Eh     change       -0.1466578E-01 Eh
 * total energy  :   -37.6420132 Eh     change       -0.5014360E-02 Eh
 * total energy  :   -37.6433006 Eh     change       -0.1287345E-02 Eh
 * total energy  :   -37.6442395 Eh     change       -0.9389026E-03 Eh
 * total energy  :   -37.6446424 Eh     change       -0.4028998E-03 Eh
 * total energy  :   -37.6449194 Eh     change       -0.2770105E-03 Eh
 * total energy  :   -37.6451052 Eh     change       -0.1857909E-03 Eh
 * total energy  :   -37.6451571 Eh     change       -0.5188057E-04 Eh
 * total energy  :   -37.6451658 Eh     change       -0.8726915E-05 Eh
 * total energy  :   -37.6455216 Eh     change       -0.1543282E-04 Eh
 * total energy  :   -37.6455364 Eh     change       -0.1486075E-04 Eh
 * total energy  :   -37.6454461 Eh     change        0.9030383E-04 Eh
 * total energy  :   -37.6455619 Eh     change       -0.1157830E-03 Eh
 * total energy  :   -37.6455726 Eh     change       -0.1071099E-04 Eh
 * total energy  :   -37.6455876 Eh     change       -0.1495677E-04 Eh
 * total energy  :   -37.6455908 Eh     change       -0.3259357E-05 Eh
 * total energy  :   -37.6455965 Eh     change       -0.5651187E-05 Eh
 * total energy  :   -37.6455989 Eh     change       -0.2420813E-05 Eh
   *** GEOMETRY OPTIMIZATION CONVERGED AFTER 38 ITERATIONS ***

 final structure:
================
20
 xtb: 6.5.1 (579679a)
C           -3.49470084729027       -0.40817159418352       -1.15913260160139
O           -2.05549726116398       -0.44561953384374       -1.06679308264737
C           -1.50718513794620        0.14820326701057       -0.04599283723891
O           -2.05563474894076        0.73482036391132        0.84780389123322
C           -0.00609673011881        0.03852694065371       -0.06657499191645
O            0.71710177068949       -0.58124728279701       -0.98233889898675
C            1.99640167173251       -0.42735998665188       -0.61129533854601
C            3.09293944563405       -0.99923969103008       -1.40833318315591
N            2.08069376380360        0.26257506820755        0.49487213012003
N            0.81543360885130        0.54787253813167        0.82437060193364
C            0.51876499126495        1.31040130917840        2.01860662195959
H           -3.92685336979860       -0.86794107213579       -0.26948596166188
H           -3.75140583232881       -0.96979776846706       -2.05379180439985
H           -3.82469915619718        0.62828250816670       -1.23902103698254
H            4.04846024778682       -0.76156490207123       -0.94724054023601
H            3.05745662972047       -0.59881791574361       -2.42226586967739
H            2.97086219326597       -2.08110919232497       -1.47460622670310
H           -0.07458566625488        2.18002596116317        1.73936026542135
H           -0.06238693133119        0.68465107501352        2.69505589849356
H            1.46093435862142        1.60550890781226        2.47228396459238

          :  Hamiltonian                  GFN1-xTB          :
         :: total energy             -37.645598900409 Eh    ::
         :: gradient norm              0.000371495490 Eh/a0 ::
         :: HOMO-LUMO gap              3.635091161325 eV    ::
         :: SCC energy               -38.000472631638 Eh    ::
         :: -> Gsolv                  -0.077597485679 Eh    ::
         :: repulsion energy           0.363006678791 Eh    ::

    * Orbital Energies and Occupations

         #    Occupation            Energy/Eh            Energy/eV
      -------------------------------------------------------------
         1        2.0000           -0.9442232             -25.6936
       ...           ...                  ...                  ...
        18        2.0000           -0.6264415             -17.0463
        19        2.0000           -0.6065642             -16.5055
        20        2.0000           -0.6042428             -16.4423
        21        2.0000           -0.5962372             -16.2244
        22        2.0000           -0.5878925             -15.9974
        23        2.0000           -0.5752456             -15.6532
        24        2.0000           -0.5695257             -15.4976
        25        2.0000           -0.5604402             -15.2504
        26        2.0000           -0.5499613             -14.9652
        27        2.0000           -0.5442642             -14.8102
        28        2.0000           -0.5332624             -14.5108
        29        2.0000           -0.5322781             -14.4840
        30        2.0000           -0.5217382             -14.1972 (HOMO)
        31                         -0.3881511             -10.5621 (LUMO)
        32                         -0.3294802              -8.9656
        33                         -0.2701750              -7.3518
        34                         -0.1734002              -4.7185
        35                         -0.1697239              -4.6184
        36                         -0.1564893              -4.2583
        37                         -0.1090372              -2.9671
        38                         -0.1048365              -2.8527
        39                         -0.1004451              -2.7333
        40                         -0.1002103              -2.7269
        41                         -0.0919636              -2.5025
       ...                                ...                  ...
        62                          0.7169653              19.5096
      -------------------------------------------------------------
                  HL-Gap            0.1335871 Eh            3.6351 eV

Wiberg/Mayer (AO) data.
largest (>0.10) Wiberg bond orders for each atom

     #   Z sym  total        # sym  WBO       # sym  WBO       # sym  WBO
 ---------------------------------------------------------------------------
     1   6 C    3.827 --    13 H    0.983    12 H    0.976    14 H    0.975
                             2 O    0.857
     2   8 O    2.259 --     3 C    1.193     1 C    0.857     4 O    0.160
     3   6 C    3.884 --     4 O    1.672     2 O    1.193     5 C    0.947
     4   8 O    1.976 --     3 C    1.672     2 O    0.160
     5   6 C    3.855 --    10 N    1.450     6 O    1.136     3 C    0.947
     6   8 O    2.387 --     5 C    1.136     7 C    1.083
     7   6 C    3.837 --     9 N    1.549     6 O    1.083     8 C    1.045
     8   6 C    3.967 --     7 C    1.045    15 H    0.977    16 H    0.947
                            17 H    0.947
     9   7 N    2.967 --     7 C    1.549    10 N    1.177
    10   7 N    3.669 --     5 C    1.450     9 N    1.177    11 C    0.907
    11   6 C    3.874 --    20 H    0.979    18 H    0.961    19 H    0.959
                            10 N    0.907
    12   1 H    0.998 --     1 C    0.976
    13   1 H    1.003 --     1 C    0.983
    14   1 H    0.998 --     1 C    0.975
    15   1 H    0.990 --     8 C    0.977
    16   1 H    0.987 --     8 C    0.947
    17   1 H    0.987 --     8 C    0.947
    18   1 H    0.996 --    11 C    0.961
    19   1 H    0.994 --    11 C    0.959
    20   1 H    0.992 --    11 C    0.979
 ---------------------------------------------------------------------------

           -------------------------------------------------
          | TOTAL ENERGY              -37.645598900409 Eh   |
          | GRADIENT NORM               0.000371495490 Eh/α |
          | HOMO-LUMO GAP               3.635091161325 eV   |
           -------------------------------------------------

 * finished run on 2023/06/20 at 14:55:27.421
