   * xtb version 6.5.1 (579679a) compiled by 'ehlert@majestix' on 2022-07-11
          program call               : /lustre/hpc/kemi/ree/PhD/git/ReactivityQM/dep/xtb-6.5.1/bin/xtb --gfn 1 /lustre/hpc/kemi/ree/PhD/git/ReactivityQM/calculations/R01/reac02prodN09/conf02/R01_reac02prodN09_conf02_gfn1.xyz --opt --vfukui --chrg 1 --uhf 0 --alpb DMSO

   ID    Z sym.   atoms
    1    6 C      1, 3, 5, 7-10, 13, 15, 16
    2    8 O      2, 4, 14, 17
    3    7 N      6, 11, 12
    4    1 H      18-33

      * Solvation model:               ALPB
        Solvent                        DMSO
        Solvent mass                       7.8130E+01 g/mol
          :  Hamiltonian                  GFN1-xTB          :
 * total energy  :   -57.7925351 Eh     change       -0.5572076E-10 Eh
 * total energy  :   -57.8054265 Eh     change       -0.1289138E-01 Eh
 * total energy  :   -57.8112024 Eh     change       -0.5775883E-02 Eh
 * total energy  :   -57.8122114 Eh     change       -0.1009006E-02 Eh
 * total energy  :   -57.8128586 Eh     change       -0.6472202E-03 Eh
 * total energy  :   -57.8133070 Eh     change       -0.4484023E-03 Eh
 * total energy  :   -57.8138655 Eh     change       -0.5585211E-03 Eh
 * total energy  :   -57.8144266 Eh     change       -0.5610659E-03 Eh
 * total energy  :   -57.8148990 Eh     change       -0.4724145E-03 Eh
 * total energy  :   -57.8151810 Eh     change       -0.2819832E-03 Eh
 * total energy  :   -57.8179400 Eh     change       -0.2683718E-04 Eh
 * total energy  :   -57.8179636 Eh     change       -0.2361856E-04 Eh
 * total energy  :   -57.8179771 Eh     change       -0.1345053E-04 Eh
 * total energy  :   -57.8179926 Eh     change       -0.1551941E-04 Eh
 * total energy  :   -57.8179992 Eh     change       -0.6612694E-05 Eh
 * total energy  :   -57.8180207 Eh     change       -0.2145573E-04 Eh
 * total energy  :   -57.8180284 Eh     change       -0.7737874E-05 Eh
 * total energy  :   -57.8180343 Eh     change       -0.5933996E-05 Eh
 * total energy  :   -57.8180365 Eh     change       -0.2218557E-05 Eh
   *** GEOMETRY OPTIMIZATION CONVERGED AFTER 41 ITERATIONS ***

 final structure:
================
33
 xtb: 6.5.1 (579679a)
C            4.26805303055871        1.80200741780997        0.80144945901345
O            3.16632837826529        0.91529776365802        0.53131186075330
C            2.15356631768671        1.37619810861680       -0.16486031344307
O            2.03998099857501        2.47792324823156       -0.62546827735802
C            1.06821581948132        0.31482785602350       -0.32728690690022
N           -0.14819897165470        0.69307712341994       -0.11585641807695
C           -1.16869692678700       -0.17183586560511       -0.34234058849635
C           -2.56233745694657        0.22788503670477        0.00650390444461
C           -2.65332704306880        0.18403504522548        1.54420932570670
C           -2.84229965369233        1.65341677480846       -0.50111604201991
N           -3.46326348561715       -0.74976586445242       -0.57429564584165
N           -0.97480188911731       -1.35114785871380       -0.89463021229952
C            0.28629641034767       -1.85425878253346       -1.29163857777100
O            0.38592558515744       -2.82817114601884       -1.97164588150622
C            1.43673720580930       -1.09686451194931       -0.64991494070560
C            1.63090684432209       -1.80878821773658        0.73050001281402
O            2.59506655157264       -1.14445496482476       -1.40844515028785
H            4.03558630637525        2.39973137643332        1.68428523062850
H            5.13159226356248        1.16754369760003        0.99022166373629
H            4.44179136534607        2.45327310255183       -0.05704854718361
H           -1.90649520790202        0.84298128524569        1.98448520629562
H           -2.49150410744298       -0.83256384889956        1.89713915973578
H           -3.64594480741725        0.51521805563910        1.84299476064270
H           -2.12762981111844        2.35015502087662       -0.06587008746891
H           -2.76153335266132        1.68548240587623       -1.58603929170819
H           -3.85110641126705        1.93609602910684       -0.20873965472530
H           -4.28422224686034       -0.86468848932806        0.00229587988402
H           -3.76158717985782       -0.45273784329314       -1.49287877292800
H           -1.82212166325515       -1.88007091208915       -1.11792005440914
H            1.85250084502790       -2.85680884682096        0.54091302289863
H            2.47155171897677       -1.34086918535885        1.23731577850163
H            0.73310022748945       -1.72306371076244        1.33657478053167
H            2.76787034611352       -2.03905729944474       -1.73420568245882

          :  Hamiltonian                  GFN1-xTB          :
         :: total energy             -57.818036544586 Eh    ::
         :: gradient norm              0.000960873895 Eh/a0 ::
         :: HOMO-LUMO gap              0.765786546726 eV    ::
         :: SCC energy               -58.391420616051 Eh    ::
         :: -> Gsolv                  -0.100127729846 Eh    ::
         :: repulsion energy           0.592653000617 Eh    ::

    * Orbital Energies and Occupations

         #    Occupation            Energy/Eh            Energy/eV
      -------------------------------------------------------------
         1        2.0000           -0.8942290             -24.3332
       ...           ...                  ...                  ...
        35        2.0000           -0.5512779             -15.0010
        36        2.0000           -0.5460032             -14.8575
        37        2.0000           -0.5454989             -14.8438
        38        2.0000           -0.5398006             -14.6887
        39        2.0000           -0.5366519             -14.6030
        40        2.0000           -0.5353489             -14.5676
        41        2.0000           -0.5313127             -14.4578
        42        2.0000           -0.5266924             -14.3320
        43        2.0000           -0.5228168             -14.2266
        44        2.0000           -0.5169701             -14.0675
        45        2.0000           -0.5020858             -13.6624
        46        2.0000           -0.4937887             -13.4367
        47        2.0000           -0.4508736             -12.2689 (HOMO)
        48        0.0000           -0.4227315             -11.5031 (LUMO)
        49                         -0.3480070              -9.4698
        50                         -0.3032527              -8.2519
        51                         -0.2768830              -7.5344
        52                         -0.1570947              -4.2748
        53                         -0.1534624              -4.1759
        54                         -0.1472664              -4.0073
        55                         -0.1440677              -3.9203
        56                         -0.1340362              -3.6473
        57                         -0.1223747              -3.3300
        58                         -0.1171236              -3.1871
       ...                                ...                  ...
       100                          0.7164470              19.4955
      -------------------------------------------------------------
                  HL-Gap            0.0281421 Eh            0.7658 eV

Wiberg/Mayer (AO) data.
largest (>0.10) Wiberg bond orders for each atom

     #   Z sym  total        # sym  WBO       # sym  WBO       # sym  WBO
 ---------------------------------------------------------------------------
     1   6 C    3.840 --    19 H    0.981    20 H    0.979    18 H    0.976
                             2 O    0.866
     2   8 O    2.246 --     3 C    1.168     1 C    0.866     4 O    0.156
     3   6 C    3.863 --     4 O    1.703     2 O    1.168     5 C    0.925
     4   8 O    1.976 --     3 C    1.703     2 O    0.156
     5   6 C    3.904 --     6 N    1.645    15 C    1.007     3 C    0.925
     6   7 N    3.052 --     5 C    1.645     7 C    1.201
     7   6 C    3.864 --    12 N    1.416     6 N    1.201     8 C    1.019
     8   6 C    3.957 --     7 C    1.019    11 N    1.000    10 C    0.949
                             9 C    0.935
     9   6 C    3.978 --    22 H    0.984    21 H    0.983    23 H    0.973
                             8 C    0.935
    10   6 C    3.980 --    25 H    0.983    24 H    0.982    26 H    0.980
                             8 C    0.949
    11   7 N    2.995 --     8 C    1.000    28 H    0.926    27 H    0.923
    12   7 N    3.527 --     7 C    1.416    13 C    1.006    29 H    0.828
    13   6 C    3.859 --    14 O    1.786    12 N    1.006    15 C    0.938
    14   8 O    2.037 --    13 C    1.786
    15   6 C    3.939 --     5 C    1.007    17 O    1.000    13 C    0.938
                            16 C    0.865
    16   6 C    3.963 --    32 H    0.985    31 H    0.973    30 H    0.972
                            15 C    0.865
    17   8 O    1.918 --    15 C    1.000    33 H    0.820
    18   1 H    1.001 --     1 C    0.976
    19   1 H    1.004 --     1 C    0.981
    20   1 H    1.002 --     1 C    0.979
    21   1 H    0.998 --     9 C    0.983
    22   1 H    0.996 --     9 C    0.984
    23   1 H    0.994 --     9 C    0.973
    24   1 H    1.003 --    10 C    0.982
    25   1 H    0.997 --    10 C    0.983
    26   1 H    0.997 --    10 C    0.980
    27   1 H    0.937 --    11 N    0.923
    28   1 H    0.940 --    11 N    0.926
    29   1 H    0.921 --    12 N    0.828
    30   1 H    0.992 --    16 C    0.972
    31   1 H    1.002 --    16 C    0.973
    32   1 H    0.994 --    16 C    0.985
    33   1 H    0.837 --    17 O    0.820
 ---------------------------------------------------------------------------

           -------------------------------------------------
          | TOTAL ENERGY              -57.818036544586 Eh   |
          | GRADIENT NORM               0.000960873895 Eh/α |
          | HOMO-LUMO GAP               0.765786546726 eV   |
           -------------------------------------------------

 * finished run on 2023/06/20 at 15:09:47.213
