   * xtb version 6.5.1 (579679a) compiled by 'ehlert@majestix' on 2022-07-11
          program call               : /lustre/hpc/kemi/ree/PhD/git/ReactivityQM/dep/xtb-6.5.1/bin/xtb --gfn 1 /lustre/hpc/kemi/ree/PhD/git/ReactivityQM/calculations/R02deprot/reac01/conf11/R02deprot_reac01_conf11_gfn1.xyz --opt --vfukui --chrg -1 --uhf 0 --alpb DMSO

   ID    Z sym.   atoms
    1    6 C      1, 3, 5, 7-10, 12, 14, 17, 18, 21, 23
    2    8 O      2, 4, 13, 19, 22, 24
    3    7 N      6, 11, 15, 16, 20
    4    1 H      25-38

      * Solvation model:               ALPB
        Solvent                        DMSO
        Solvent mass                       7.8130E+01 g/mol
          :  Hamiltonian                  GFN1-xTB          :
 * total energy  :   -79.5993283 Eh     change       -0.2894751E-10 Eh
 * total energy  :   -79.6085895 Eh     change       -0.9261181E-02 Eh
 * total energy  :   -79.6116281 Eh     change       -0.3038636E-02 Eh
 * total energy  :   -79.6121855 Eh     change       -0.5573638E-03 Eh
 * total energy  :   -79.6126422 Eh     change       -0.4567545E-03 Eh
 * total energy  :   -79.6128856 Eh     change       -0.2433440E-03 Eh
 * total energy  :   -79.6131281 Eh     change       -0.2425187E-03 Eh
 * total energy  :   -79.6133282 Eh     change       -0.2000622E-03 Eh
 * total energy  :   -79.6134865 Eh     change       -0.1583495E-03 Eh
 * total energy  :   -79.6136040 Eh     change       -0.1174950E-03 Eh
 * total energy  :   -79.6149776 Eh     change       -0.2565071E-04 Eh
 * total energy  :   -79.6150043 Eh     change       -0.2669972E-04 Eh
 * total energy  :   -79.6150346 Eh     change       -0.3022079E-04 Eh
 * total energy  :   -79.6150596 Eh     change       -0.2505291E-04 Eh
 * total energy  :   -79.6150845 Eh     change       -0.2484923E-04 Eh
 * total energy  :   -79.6150947 Eh     change       -0.1019792E-04 Eh
 * total energy  :   -79.6151073 Eh     change       -0.1261913E-04 Eh
 * total energy  :   -79.6151149 Eh     change       -0.7648852E-05 Eh
 * total energy  :   -79.6151190 Eh     change       -0.4087235E-05 Eh
   *** GEOMETRY OPTIMIZATION CONVERGED AFTER 45 ITERATIONS ***

 final structure:
================
38
 xtb: 6.5.1 (579679a)
C            2.37012562290876        2.63870773056983       -2.52196823306212
O            2.04834464325321        1.69289591989873       -1.50666349193340
C            2.76072918794372        1.78612588097890       -0.36566664360184
O            3.61120440970078        2.64055435179691       -0.21386369110979
C            2.40033367878073        0.74075230124080        0.61531579336914
N            1.35302159707666       -0.08340354948258        0.29121751110102
C            1.06672521396432       -1.05695418452272        1.12966565784871
C           -0.06935418293539       -1.98044180992610        0.70217822901255
C           -0.66027786802797       -2.72096445382872        1.90447114872358
C            0.47898972426386       -2.96450591207242       -0.34264425090187
N           -1.09230733658755       -1.12673452115876        0.08329861333317
C           -2.25261350021963       -1.57797131843567       -0.40279593990473
O           -2.61356122380263       -2.74875140778334       -0.42785822114504
C           -3.14299314398353       -0.49620789421164       -0.91398937147380
N           -4.31497682457212       -0.64361194830173       -1.45139351543470
N           -4.78868371380586        0.60852902406627       -1.71508983766093
C           -3.87794059411232        1.44175390101259       -1.31973744985773
C           -3.92615415385258        2.91939457892450       -1.37753210368226
O           -2.81008214859102        0.80882895727014       -0.80529143490429
N            1.67697495516599       -1.35186228280792        2.27397929791027
C            2.70396408417639       -0.56592917261510        2.67690052368346
O            3.34218709944881       -0.72988339330020        3.73508567200043
C            3.07774244284522        0.53950595758033        1.78995713635329
O            4.11984527413656        1.28651159046594        2.21573261894945
H            1.75849644047004        2.39363597283177       -3.38881698724711
H            3.43075678319744        2.57365680980540       -2.78239141768484
H            2.14849457528586        3.65434839802576       -2.18209696292874
H           -1.40696894926916       -3.44563872672980        1.58492659153659
H           -1.12152452804916       -2.01063903558921        2.59005940815699
H            0.14024656348408       -3.24182587700090        2.42921969014321
H            0.87317475649558       -2.41021829931790       -1.19402263513820
H            1.28270748558381       -3.55098870853339        0.10088900069010
H           -0.30395214577581       -3.63908092575167       -0.68547424050582
H           -0.85294480321380       -0.14807218198025       -0.01576281500664
H           -4.91026514696275        3.23703097391297       -1.71290993016537
H           -3.72047877936261        3.33884802865693       -0.39345551940180
H           -3.17345064262628        3.29476668084069       -2.07005306576128
H            4.39446014756181        0.89783854546167        3.07307786569221

          :  Hamiltonian                  GFN1-xTB          :
         :: total energy             -79.615119018355 Eh    ::
         :: gradient norm              0.000731540991 Eh/a0 ::
         :: HOMO-LUMO gap              1.965151259660 eV    ::
         :: SCC energy               -80.334761666795 Eh    ::
         :: -> Gsolv                  -0.107262509945 Eh    ::
         :: repulsion energy           0.742383105098 Eh    ::

    * Orbital Energies and Occupations

         #    Occupation            Energy/Eh            Energy/eV
      -------------------------------------------------------------
         1        2.0000           -0.8581234             -23.3507
       ...           ...                  ...                  ...
        52        2.0000           -0.4764266             -12.9642
        53        2.0000           -0.4731120             -12.8740
        54        2.0000           -0.4701909             -12.7945
        55        2.0000           -0.4539682             -12.3531
        56        2.0000           -0.4508573             -12.2685
        57        2.0000           -0.4480012             -12.1907
        58        2.0000           -0.4417607             -12.0209
        59        2.0000           -0.4365119             -11.8781
        60        2.0000           -0.4324364             -11.7672
        61        2.0000           -0.4188159             -11.3966
        62        2.0000           -0.4030651             -10.9680
        63        2.0000           -0.3732289             -10.1561
        64        2.0000           -0.3709911             -10.0952 (HOMO)
        65                         -0.2987732              -8.1300 (LUMO)
        66                         -0.2760456              -7.5116
        67                         -0.2510278              -6.8308
        68                         -0.2289320              -6.2296
        69                         -0.1895910              -5.1590
        70                         -0.1873775              -5.0988
        71                         -0.1402651              -3.8168
        72                         -0.1267021              -3.4477
        73                         -0.1091389              -2.9698
        74                         -0.1039393              -2.8283
        75                         -0.1021494              -2.7796
       ...                                ...                  ...
       124                          0.7510342              20.4367
      -------------------------------------------------------------
                  HL-Gap            0.0722180 Eh            1.9652 eV

Wiberg/Mayer (AO) data.
largest (>0.10) Wiberg bond orders for each atom

     #   Z sym  total        # sym  WBO       # sym  WBO       # sym  WBO
 ---------------------------------------------------------------------------
     1   6 C    3.888 --    25 H    0.987    27 H    0.980    26 H    0.980
                             2 O    0.914
     2   8 O    2.177 --     3 C    1.076     1 C    0.914     4 O    0.123
     3   6 C    3.838 --     4 O    1.636     2 O    1.076     5 C    1.030
     4   8 O    1.900 --     3 C    1.636     2 O    0.123
     5   6 C    3.963 --    23 C    1.477     6 N    1.198     3 C    1.030
     6   7 N    3.001 --     7 C    1.460     5 C    1.198
     7   6 C    3.958 --     6 N    1.460    20 N    1.370     8 C    0.969
     8   6 C    3.925 --     9 C    0.996    10 C    0.980     7 C    0.969
                            11 N    0.913
     9   6 C    3.993 --     8 C    0.996    29 H    0.986    28 H    0.984
                            30 H    0.983
    10   6 C    3.992 --    32 H    0.986    31 H    0.986    33 H    0.983
                             8 C    0.980
    11   7 N    3.386 --    12 C    1.304     8 C    0.913    34 H    0.888
                            13 O    0.186
    12   6 C    3.924 --    13 O    1.556    11 N    1.304    14 C    0.983
    13   8 O    1.877 --    12 C    1.556    11 N    0.186
    14   6 C    3.868 --    15 N    1.626    19 O    1.049    12 C    0.983
    15   7 N    2.995 --    14 C    1.626    16 N    1.193
    16   7 N    2.980 --    17 C    1.617    15 N    1.193
    17   6 C    3.872 --    16 N    1.617    19 O    1.073    18 C    1.030
    18   6 C    3.988 --    17 C    1.030    35 H    0.983    36 H    0.967
                            37 H    0.962
    19   8 O    2.315 --    17 C    1.073    14 C    1.049
    20   7 N    2.986 --     7 C    1.370    21 C    1.247    22 O    0.123
    21   6 C    3.930 --    22 O    1.472    20 N    1.247    23 C    1.073
    22   8 O    1.808 --    21 C    1.472    20 N    0.123
    23   6 C    3.906 --     5 C    1.477    24 O    1.074    21 C    1.073
    24   8 O    2.051 --    23 C    1.074    38 H    0.816
    25   1 H    1.014 --     1 C    0.987
    26   1 H    1.011 --     1 C    0.980
    27   1 H    1.010 --     1 C    0.980
    28   1 H    1.013 --     9 C    0.984
    29   1 H    1.007 --     9 C    0.986
    30   1 H    1.022 --     9 C    0.983
    31   1 H    1.010 --    10 C    0.986
    32   1 H    1.005 --    10 C    0.986
    33   1 H    1.011 --    10 C    0.983
    34   1 H    0.966 --    11 N    0.888
    35   1 H    0.999 --    18 C    0.983
    36   1 H    0.997 --    18 C    0.967
    37   1 H    0.997 --    18 C    0.962
    38   1 H    0.876 --    24 O    0.816
 ---------------------------------------------------------------------------

           -------------------------------------------------
          | TOTAL ENERGY              -79.615119018355 Eh   |
          | GRADIENT NORM               0.000731540991 Eh/α |
          | HOMO-LUMO GAP               1.965151259660 eV   |
           -------------------------------------------------

 * finished run on 2023/06/20 at 17:32:10.950
