   * xtb version 6.5.1 (579679a) compiled by 'ehlert@majestix' on 2022-07-11
          program call               : /lustre/hpc/kemi/ree/PhD/git/ReactivityQM/dep/xtb-6.5.1/bin/xtb --gfn 1 /lustre/hpc/kemi/ree/PhD/git/ReactivityQM/calculations/R02/reac01prodE06/conf04/R02_reac01prodE06_conf04_gfn1.xyz --opt --vfukui --chrg -1 --uhf 0 --alpb DMSO

   ID    Z sym.   atoms
    1    6 C      1, 3, 5, 6, 8, 11-15, 17, 19, 22, 23
    2    8 O      2, 4, 7, 9, 18, 24
    3    7 N      10, 16, 20, 21, 25
    4    1 H      26-43

      * Solvation model:               ALPB
        Solvent                        DMSO
        Solvent mass                       7.8130E+01 g/mol
          :  Hamiltonian                  GFN1-xTB          :
 * total energy  :   -83.8618110 Eh     change       -0.2557954E-12 Eh
 * total energy  :   -83.8744336 Eh     change       -0.1262265E-01 Eh
 * total energy  :   -83.8798215 Eh     change       -0.5387892E-02 Eh
 * total energy  :   -83.8808975 Eh     change       -0.1075974E-02 Eh
 * total energy  :   -83.8815859 Eh     change       -0.6883740E-03 Eh
 * total energy  :   -83.8817915 Eh     change       -0.2055924E-03 Eh
 * total energy  :   -83.8819139 Eh     change       -0.1224550E-03 Eh
 * total energy  :   -83.8820022 Eh     change       -0.8832562E-04 Eh
 * total energy  :   -83.8820958 Eh     change       -0.9354282E-04 Eh
 * total energy  :   -83.8822036 Eh     change       -0.1078662E-03 Eh
 * total energy  :   -83.8831844 Eh     change       -0.8637468E-05 Eh
 * total energy  :   -83.8831924 Eh     change       -0.7989866E-05 Eh
 * total energy  :   -83.8831984 Eh     change       -0.5999711E-05 Eh
 * total energy  :   -83.8832055 Eh     change       -0.7063942E-05 Eh
 * total energy  :   -83.8832166 Eh     change       -0.1113582E-04 Eh
 * total energy  :   -83.8832228 Eh     change       -0.6206599E-05 Eh
 * total energy  :   -83.8832261 Eh     change       -0.3299625E-05 Eh
 * total energy  :   -83.8832301 Eh     change       -0.3951427E-05 Eh
 * total energy  :   -83.8832351 Eh     change       -0.4970056E-05 Eh
   *** GEOMETRY OPTIMIZATION CONVERGED AFTER 42 ITERATIONS ***

 final structure:
================
43
 xtb: 6.5.1 (579679a)
C           -4.28079497873588        3.59806878521473       -0.18894479223635
O           -3.77211885915092        2.37810044264303        0.34776190395161
C           -2.67312737643080        1.87903440845282       -0.24972233894266
O           -2.14897331081014        2.45116443291244       -1.18448922449706
C           -2.19002647785249        0.59085776557316        0.33036032388528
C           -2.45766839866975        0.19435744730830        1.64816362240363
O           -3.25726801079213        0.93387854273566        2.53090631875750
C           -1.73018505049172       -0.89507586413164        2.20743747825917
O           -1.76792012140943       -1.30025223167042        3.37941213451322
N           -0.80100071315360       -1.48072625502699        1.32524116694498
C           -1.05668442307074       -1.43367231439522       -0.11046300409444
C           -2.16603675559703       -2.44147843197597       -0.48193463517756
C            0.29029272242037       -1.73186670524166       -0.84822654934836
C            0.84299012403825       -3.13480523119014       -0.57469495644463
C            0.14114173391973       -1.51027748540885       -2.35747356272411
N            1.21814081272661       -0.73716408988432       -0.29716550873359
C            2.49466422386499       -0.56935343667667       -0.64997110579454
O            3.09410821346647       -1.17556182039818       -1.52819218516543
C            3.13339781771179        0.50081994278160        0.17367717477816
N            2.55793032345072        1.19172633006454        1.10979666907527
N            3.49552490145969        2.05864941480556        1.59351198429690
C            4.58156326161199        1.83879193557075        0.92082306594170
C            5.88665674623928        2.52052410288353        1.06536653401806
O            4.41885599489483        0.86775484414642        0.00855246264077
N           -1.46246286365167       -0.10911400488030       -0.52585055424435
H           -3.50946408052292        4.37325510092100       -0.17464689426228
H           -4.61561512756852        3.44700239362956       -1.21846879974562
H           -5.12085184793085        3.89470738467047        0.43515792917590
H           -4.08502614883942        1.18843088715813        2.10605721175889
H           -0.50287618807644       -2.39044133309642        1.64875706802819
H           -3.08170499392621       -2.16669682856194        0.04037672247261
H           -1.88929931775885       -3.45166803834947       -0.18830735516292
H           -2.35756848712182       -2.41525535263317       -1.55240806164013
H            1.80522074037146       -3.25439808471936       -1.07177738618263
H            0.98388098711017       -3.29851226946848        0.49221445527436
H            0.16253567950454       -3.89031860876990       -0.96177657840192
H           -0.30443575917053       -0.53295945769003       -2.54646574855976
H           -0.50039615878545       -2.27980593532734       -2.78261577637506
H            1.11181396515411       -1.56487567233494       -2.84750998986823
H            0.86443115471502       -0.20718558743243        0.49481345217504
H            6.17202135159376        2.98572255107405        0.12249128099881
H            5.81837855149803        3.28013316268151        1.83980218012236
H            6.65795714376081        1.79848216403717        1.33062686812983

          :  Hamiltonian                  GFN1-xTB          :
         :: total energy             -83.883235066925 Eh    ::
         :: gradient norm              0.000629373553 Eh/a0 ::
         :: HOMO-LUMO gap              0.785606054820 eV    ::
         :: SCC energy               -84.640257193882 Eh    ::
         :: -> Gsolv                  -0.116897475198 Eh    ::
         :: repulsion energy           0.784840236823 Eh    ::

    * Orbital Energies and Occupations

         #    Occupation            Energy/Eh            Energy/eV
      -------------------------------------------------------------
         1        2.0000           -0.8568802             -23.3169
       ...           ...                  ...                  ...
        56        2.0000           -0.4752711             -12.9328
        57        2.0000           -0.4730445             -12.8722
        58        2.0000           -0.4623157             -12.5803
        59        2.0000           -0.4522958             -12.3076
        60        2.0000           -0.4516982             -12.2913
        61        2.0000           -0.4461375             -12.1400
        62        2.0000           -0.4405464             -11.9879
        63        2.0000           -0.4311553             -11.7323
        64        2.0000           -0.4290214             -11.6743
        65        2.0000           -0.4075847             -11.0909
        66        2.0000           -0.3920749             -10.6689
        67        2.0000           -0.3798684             -10.3367
        68        2.0000           -0.3267259              -8.8907 (HOMO)
        69        0.0000           -0.2978554              -8.1051 (LUMO)
        70                         -0.2690143              -7.3203
        71                         -0.2512581              -6.8371
        72                         -0.1961669              -5.3380
        73                         -0.1863530              -5.0709
        74                         -0.1413327              -3.8459
        75                         -0.1278344              -3.4786
        76                         -0.1218572              -3.3159
        77                         -0.1169486              -3.1823
        78                         -0.1096777              -2.9845
        79                         -0.0988044              -2.6886
       ...                                ...                  ...
       136                          0.7325235              19.9330
      -------------------------------------------------------------
                  HL-Gap            0.0288705 Eh            0.7856 eV

Wiberg/Mayer (AO) data.
largest (>0.10) Wiberg bond orders for each atom

     #   Z sym  total        # sym  WBO       # sym  WBO       # sym  WBO
 ---------------------------------------------------------------------------
     1   6 C    3.885 --    28 H    0.987    27 H    0.980    26 H    0.980
                             2 O    0.908
     2   8 O    2.190 --     3 C    1.077     1 C    0.908     4 O    0.123
     3   6 C    3.816 --     4 O    1.651     2 O    1.077     5 C    0.996
     4   8 O    1.901 --     3 C    1.651     2 O    0.123
     5   6 C    3.970 --    25 N    1.440     6 C    1.323     3 C    0.996
     6   6 C    3.856 --     5 C    1.323     8 C    1.204     7 O    0.964
                            25 N    0.179
     7   8 O    1.928 --     6 C    0.964    29 H    0.858
     8   6 C    3.913 --     9 O    1.499     6 C    1.204    10 N    1.058
     9   8 O    1.799 --     8 C    1.499
    10   7 N    3.186 --     8 C    1.058    11 C    0.944    30 H    0.920
    11   6 C    3.946 --    25 N    0.999    12 C    0.975    13 C    0.949
                            10 N    0.944
    12   6 C    3.995 --    31 H    0.984    32 H    0.984    33 H    0.983
                            11 C    0.975
    13   6 C    3.923 --    15 C    0.997    14 C    0.995    11 C    0.949
                            16 N    0.914
    14   6 C    3.994 --    13 C    0.995    36 H    0.983    35 H    0.982
                            34 H    0.981
    15   6 C    3.994 --    13 C    0.997    38 H    0.984    39 H    0.982
                            37 H    0.980
    16   7 N    3.395 --    17 C    1.306    13 C    0.914    40 H    0.890
                            18 O    0.189
    17   6 C    3.925 --    18 O    1.560    16 N    1.306    19 C    0.978
    18   8 O    1.883 --    17 C    1.560    16 N    0.189
    19   6 C    3.869 --    20 N    1.620    24 O    1.061    17 C    0.978
    20   7 N    3.011 --    19 C    1.620    21 N    1.190
    21   7 N    2.980 --    22 C    1.616    20 N    1.190
    22   6 C    3.874 --    21 N    1.616    24 O    1.079    23 C    1.030
    23   6 C    3.988 --    22 C    1.030    42 H    0.983    41 H    0.965
                            43 H    0.964
    24   8 O    2.324 --    22 C    1.079    19 C    1.061
    25   7 N    2.931 --     5 C    1.440    11 C    0.999     6 C    0.179
    26   1 H    1.012 --     1 C    0.980
    27   1 H    1.010 --     1 C    0.980
    28   1 H    1.013 --     1 C    0.987
    29   1 H    0.897 --     7 O    0.858
    30   1 H    0.967 --    10 N    0.920
    31   1 H    1.007 --    12 C    0.984
    32   1 H    1.005 --    12 C    0.984
    33   1 H    1.010 --    12 C    0.983
    34   1 H    1.010 --    14 C    0.981
    35   1 H    1.004 --    14 C    0.982
    36   1 H    1.005 --    14 C    0.983
    37   1 H    1.028 --    15 C    0.980
    38   1 H    1.006 --    15 C    0.984
    39   1 H    1.013 --    15 C    0.982
    40   1 H    0.984 --    16 N    0.890
    41   1 H    0.998 --    23 C    0.965
    42   1 H    0.999 --    23 C    0.983
    43   1 H    0.998 --    23 C    0.964
 ---------------------------------------------------------------------------

           -------------------------------------------------
          | TOTAL ENERGY              -83.883235066925 Eh   |
          | GRADIENT NORM               0.000629373553 Eh/α |
          | HOMO-LUMO GAP               0.785606054820 eV   |
           -------------------------------------------------

 * finished run on 2023/06/20 at 15:00:33.668
