   * xtb version 6.5.1 (579679a) compiled by 'ehlert@majestix' on 2022-07-11
          program call               : /lustre/hpc/kemi/ree/PhD/git/ReactivityQM/dep/xtb-6.5.1/bin/xtb --gfn 1 /lustre/hpc/kemi/ree/PhD/git/ReactivityQM/calculations/R02oxygendeprot/reac01prodE06/conf10/R02oxygendeprot_reac01prodE06_conf10_gfn1.xyz --opt --vfukui --chrg -2 --uhf 0 --alpb DMSO

   ID    Z sym.   atoms
    1    6 C      1, 3, 5, 6, 8, 11-15, 17, 19, 22, 23
    2    8 O      2, 4, 7, 9, 18, 24
    3    7 N      10, 16, 20, 21, 25
    4    1 H      26-42

      * Solvation model:               ALPB
        Solvent                        DMSO
        Solvent mass                       7.8130E+01 g/mol
          :  Hamiltonian                  GFN1-xTB          :
 * total energy  :   -83.6054116 Eh     change       -0.4561684E-11 Eh
 * total energy  :   -83.6163004 Eh     change       -0.1088880E-01 Eh
 * total energy  :   -83.6196847 Eh     change       -0.3384289E-02 Eh
 * total energy  :   -83.6202074 Eh     change       -0.5227044E-03 Eh
 * total energy  :   -83.6206310 Eh     change       -0.4236243E-03 Eh
 * total energy  :   -83.6209482 Eh     change       -0.3171717E-03 Eh
 * total energy  :   -83.6212954 Eh     change       -0.3472549E-03 Eh
 * total energy  :   -83.6216152 Eh     change       -0.3197859E-03 Eh
 * total energy  :   -83.6218275 Eh     change       -0.2123321E-03 Eh
 * total energy  :   -83.6219380 Eh     change       -0.1104789E-03 Eh
 * total energy  :   -83.6222206 Eh     change       -0.2255524E-04 Eh
 * total energy  :   -83.6222480 Eh     change       -0.2738097E-04 Eh
 * total energy  :   -83.6222627 Eh     change       -0.1472059E-04 Eh
 * total energy  :   -83.6222816 Eh     change       -0.1890846E-04 Eh
 * total energy  :   -83.6222931 Eh     change       -0.1146771E-04 Eh
 * total energy  :   -83.6223000 Eh     change       -0.6928491E-05 Eh
 * total energy  :   -83.6223079 Eh     change       -0.7954661E-05 Eh
 * total energy  :   -83.6223116 Eh     change       -0.3693990E-05 Eh
 * total energy  :   -83.6223159 Eh     change       -0.4296167E-05 Eh
   *** GEOMETRY OPTIMIZATION CONVERGED AFTER 25 ITERATIONS ***

 final structure:
================
42
 xtb: 6.5.1 (579679a)
C            3.89424583954606        3.51615442109420       -1.96870478558787
O            3.27720896347507        2.85924217941496       -0.87823497999919
C            2.69085089515183        1.65369272499759       -1.16815563121693
O            2.72589918013593        1.23186715047331       -2.32728972522240
C            2.05411236676491        0.97783029890677       -0.04629730829552
C            1.98537339538945        1.55120823677314        1.26161618204389
O            2.60894395833643        2.58527047542341        1.65580255895717
C            1.03381040833431        0.88157492720834        2.19409437427697
O            0.70092931162663        1.33096873502425        3.30049410811066
N            0.40467823749065       -0.25594732473096        1.72173394918691
C            1.02667689243423       -1.04855587079563        0.66326469896616
C            2.21276490713503       -1.84163874141781        1.27558915929829
C           -0.05803984802905       -1.99735598428605        0.04904703440482
C            0.52004901846915       -2.71822967012215       -1.17672559336757
C           -0.60384334627083       -3.02764525367666        1.04828988768276
N           -1.13642943180536       -1.09942067771470       -0.37075998537194
C           -2.31288963888901       -1.51513131832324       -0.92305721859225
O           -2.51695995695772       -2.66313358632469       -1.36118253208315
C           -3.31961859171908       -0.47240895540912       -1.01107428687364
N           -4.52703618720677       -0.56357584573867       -1.54701284270638
N           -5.11402135793612        0.66257700252664       -1.39730335588840
C           -4.26114973789295        1.42504151039898       -0.79261223131917
C           -4.44651430253690        2.84527451085548       -0.40805293286626
O           -3.10094496242054        0.79025317375389       -0.51378049928306
N            1.49159291631929       -0.21052523962487       -0.39978141572889
H            4.34304898489713        4.43252857635243       -1.58479831906746
H            4.67372182483128        2.88926128875209       -2.41662957699453
H            3.16253353995428        3.76659641296302       -2.74557912580919
H           -0.07149314422853       -0.78062983932049        2.43873443170379
H            1.88193881577475       -2.46066295005958        2.10641030060390
H            2.68005862465124       -2.46968978937931        0.52048320598493
H            2.95448457796460       -1.13328637792721        1.64485814012059
H           -0.25983186861115       -3.26769154144978       -1.70133313217191
H            0.96673211039975       -1.98942582651252       -1.85548365767544
H            1.28543918802604       -3.42834604297101       -0.86766740863187
H           -1.02663111564597       -2.53924322130987        1.92490566890256
H           -1.38595058106785       -3.62196417089260        0.57615183048489
H            0.18736335382343       -3.70218516414060        1.36925139513613
H           -1.14468077401541       -0.20122141794176        0.10064149636168
H           -4.33829055220809        2.96378421438277        0.67029206057625
H           -5.43921628454579        3.17242015000977       -0.70702824020054
H           -3.69891662894316        3.47236782075132       -0.89485669784888

          :  Hamiltonian                  GFN1-xTB          :
         :: total energy             -83.622315923656 Eh    ::
         :: gradient norm              0.000696382201 Eh/a0 ::
         :: HOMO-LUMO gap              0.079861046733 eV    ::
         :: SCC energy               -84.342781920455 Eh    ::
         :: -> Gsolv                  -0.272778760151 Eh    ::
         :: repulsion energy           0.747679869082 Eh    ::

    * Orbital Energies and Occupations

         #    Occupation            Energy/Eh            Energy/eV
      -------------------------------------------------------------
         1        2.0000           -0.8181122             -22.2620
       ...           ...                  ...                  ...
        56        2.0000           -0.4416056             -12.0167
        57        2.0000           -0.4385186             -11.9327
        58        2.0000           -0.4192831             -11.4093
        59        2.0000           -0.4161376             -11.3237
        60        2.0000           -0.4140012             -11.2655
        61        2.0000           -0.4075113             -11.0889
        62        2.0000           -0.4041684             -10.9980
        63        2.0000           -0.3965334             -10.7902
        64        2.0000           -0.3915081             -10.6535
        65        2.0000           -0.3802470             -10.3470
        66        2.0000           -0.3639278              -9.9030
        67        2.0000           -0.3341863              -9.0937
        68        1.6483           -0.2750698              -7.4850 (HOMO)
        69        0.3517           -0.2721350              -7.4052 (LUMO)
        70                         -0.2382246              -6.4824
        71                         -0.2216707              -6.0320
        72                         -0.1651172              -4.4931
        73                         -0.1514961              -4.1224
        74                         -0.1286495              -3.5007
        75                         -0.1121100              -3.0507
        76                         -0.1068056              -2.9063
        77                         -0.0996029              -2.7103
        78                         -0.0858316              -2.3356
        79                         -0.0833650              -2.2685
       ...                                ...                  ...
       134                          0.7390292              20.1100
      -------------------------------------------------------------
                  HL-Gap            0.0029348 Eh            0.0799 eV

Wiberg/Mayer (AO) data.
largest (>0.10) Wiberg bond orders for each atom

     #   Z sym  total        # sym  WBO       # sym  WBO       # sym  WBO
 ---------------------------------------------------------------------------
     1   6 C    3.912 --    26 H    0.987    28 H    0.980    27 H    0.980
                             2 O    0.939
     2   8 O    2.135 --     3 C    1.015     1 C    0.939     4 O    0.101
     3   6 C    3.813 --     4 O    1.545     5 C    1.115     2 O    1.015
     4   8 O    1.813 --     3 C    1.545     2 O    0.101
     5   6 C    3.911 --    25 N    1.283     6 C    1.224     3 C    1.115
     6   6 C    3.867 --     7 O    1.412     5 C    1.224     8 C    1.012
     7   8 O    1.654 --     6 C    1.412
     8   6 C    3.855 --     9 O    1.535    10 N    1.139     6 C    1.012
     9   8 O    1.795 --     8 C    1.535    10 N    0.123
    10   7 N    3.241 --     8 C    1.139    11 C    0.926    29 H    0.917
                             9 O    0.123
    11   6 C    3.942 --    25 N    1.024    12 C    0.963    13 C    0.949
                            10 N    0.926
    12   6 C    3.974 --    30 H    0.985    32 H    0.984    31 H    0.983
                            11 C    0.963
    13   6 C    3.934 --    14 C    0.998    15 C    0.993    11 C    0.949
                            16 N    0.932
    14   6 C    3.994 --    13 C    0.998    35 H    0.985    33 H    0.982
                            34 H    0.980
    15   6 C    3.992 --    13 C    0.993    38 H    0.984    36 H    0.982
                            37 H    0.981
    16   7 N    3.263 --    17 C    1.195    13 C    0.932    39 H    0.903
                            18 O    0.142
    17   6 C    3.822 --    18 O    1.464    16 N    1.195    19 C    1.083
    18   8 O    1.741 --    17 C    1.464    16 N    0.142
    19   6 C    3.730 --    20 N    1.472    17 C    1.083    24 O    0.992
    20   7 N    2.801 --    19 C    1.472    21 N    1.188
    21   7 N    2.980 --    22 C    1.626    20 N    1.188
    22   6 C    3.829 --    21 N    1.626    24 O    1.053    23 C    1.026
    23   6 C    3.993 --    22 C    1.026    41 H    0.985    40 H    0.969
                            42 H    0.969
    24   8 O    2.222 --    22 C    1.053    19 C    0.992
    25   7 N    2.636 --     5 C    1.283    11 C    1.024
    26   1 H    1.018 --     1 C    0.987
    27   1 H    1.018 --     1 C    0.980
    28   1 H    1.017 --     1 C    0.980
    29   1 H    0.968 --    10 N    0.917
    30   1 H    1.006 --    12 C    0.985
    31   1 H    1.012 --    12 C    0.983
    32   1 H    1.011 --    12 C    0.984
    33   1 H    1.020 --    14 C    0.982
    34   1 H    1.035 --    14 C    0.980
    35   1 H    1.008 --    14 C    0.985
    36   1 H    1.006 --    15 C    0.982
    37   1 H    1.015 --    15 C    0.981
    38   1 H    1.007 --    15 C    0.984
    39   1 H    0.978 --    16 N    0.903
    40   1 H    0.999 --    23 C    0.969
    41   1 H    1.003 --    23 C    0.985
    42   1 H    1.000 --    23 C    0.969
 ---------------------------------------------------------------------------

           -------------------------------------------------
          | TOTAL ENERGY              -83.622315923656 Eh   |
          | GRADIENT NORM               0.000696382201 Eh/α |
          | HOMO-LUMO GAP               0.079861046733 eV   |
           -------------------------------------------------

 * finished run on 2023/06/21 at 17:07:43.247
