   * xtb version 6.5.1 (579679a) compiled by 'ehlert@majestix' on 2022-07-11
          program call               : /lustre/hpc/kemi/ree/PhD/git/ReactivityQM/dep/xtb-6.5.1/bin/xtb --gfn 1 /lustre/hpc/kemi/ree/PhD/git/ReactivityQM/calculations/R02deprot/reac01prodE12/conf12/R02deprot_reac01prodE12_conf12_gfn1.xyz --opt --vfukui --chrg -2 --uhf 0 --alpb DMSO

   ID    Z sym.   atoms
    1    6 C      1, 3, 5, 6, 8, 9, 12-15, 17, 19, 22, 23
    2    8 O      2, 4, 7, 10, 18, 24
    3    7 N      11, 16, 20, 21, 25
    4    1 H      26-42

      * Solvation model:               ALPB
        Solvent                        DMSO
        Solvent mass                       7.8130E+01 g/mol
          :  Hamiltonian                  GFN1-xTB          :
 * total energy  :   -83.5615579 Eh     change       -0.3396394E-11 Eh
 * total energy  :   -83.5748493 Eh     change       -0.1329142E-01 Eh
 * total energy  :   -83.5810474 Eh     change       -0.6198095E-02 Eh
 * total energy  :   -83.5822199 Eh     change       -0.1172488E-02 Eh
 * total energy  :   -83.5827733 Eh     change       -0.5533845E-03 Eh
 * total energy  :   -83.5829819 Eh     change       -0.2086002E-03 Eh
 * total energy  :   -83.5831326 Eh     change       -0.1507669E-03 Eh
 * total energy  :   -83.5832466 Eh     change       -0.1139873E-03 Eh
 * total energy  :   -83.5833379 Eh     change       -0.9130727E-04 Eh
 * total energy  :   -83.5834509 Eh     change       -0.1129520E-03 Eh
 * total energy  :   -83.5865411 Eh     change       -0.3753291E-04 Eh
 * total energy  :   -83.5865677 Eh     change       -0.2659486E-04 Eh
 * total energy  :   -83.5865802 Eh     change       -0.1252564E-04 Eh
 * total energy  :   -83.5865963 Eh     change       -0.1609994E-04 Eh
 * total energy  :   -83.5866046 Eh     change       -0.8234703E-05 Eh
 * total energy  :   -83.5866142 Eh     change       -0.9676296E-05 Eh
 * total energy  :   -83.5866199 Eh     change       -0.5689360E-05 Eh
 * total energy  :   -83.5866251 Eh     change       -0.5176594E-05 Eh
 * total energy  :   -83.5866293 Eh     change       -0.4194343E-05 Eh
   *** GEOMETRY OPTIMIZATION CONVERGED AFTER 74 ITERATIONS ***

 final structure:
================
42
 xtb: 6.5.1 (579679a)
C            6.44824023550813        1.48029747024164        0.79055028912580
O            5.32181654992183        0.75674475623495        0.31384002611771
C            4.10981722526811        1.12669561265714        0.85735199837592
O            4.08073600133629        2.02283330116809        1.69241364033298
C            2.96413111698232        0.37565489954327        0.36552477012319
C            2.97451758370320       -0.57954911024728       -0.61540678024055
O            4.07425986253782       -0.94606014074886       -1.33693493756450
C            1.71398362802477       -1.46330174485109       -0.92750808572289
C            1.55500160840296       -1.49467250322116       -2.50168687032565
O            1.82456677281023       -2.66046396123642       -0.38920525007285
N            0.49877560275525       -0.69965000459415       -0.45234318576757
C            0.65849347224047        0.21409819216893        0.45474606781338
C           -0.63555855786083        0.82242342880058        1.03996194278682
C           -0.71415187236721        2.30714792345010        0.66064611282889
C           -0.64401963728689        0.65613889341757        2.56453642592872
N           -1.74362919681593        0.08559510759207        0.44091880721108
C           -3.04025644139040        0.30241839523224        0.64205190268003
O           -3.52699284365690        1.14457152543870        1.39778187120517
C           -3.88008367196649       -0.62583028753301       -0.16673089822594
N           -3.45150305408428       -1.59116469450096       -0.92787098312025
N           -4.55532924685650       -2.18274120851791       -1.47626520758534
C           -5.58290600236477       -1.54334795561162       -1.01695711905387
C           -7.00989658112488       -1.79682956248097       -1.31937991667214
O           -5.23138082202300       -0.54993610211896       -0.18310592306128
N            1.76052241004543        0.76454453722301        0.96778376893491
H            6.53862971856679        1.38597205888598        1.87757514451340
H            6.36331675950460        2.54134082127262        0.53514999320439
H            7.33013316585437        1.05811188387693        0.31172796702809
H            4.86736965062964       -0.45045959634131       -1.08521020449114
H            2.40458765480094       -2.01400704358828       -2.94430815856260
H            0.64190341605070       -2.03836035599434       -2.74474508307361
H            1.49130701901713       -0.48450570659023       -2.90723679259242
H           -0.79135563032087        2.41357685596863       -0.42161726782891
H            0.19782117700738        2.80130377378653        0.99786371738236
H           -1.57448235991724        2.78938237958733        1.12416474680256
H           -1.50088489923220        1.16066328725419        3.01049001013131
H           -0.68091453739007       -0.40148856489998        2.82857542408327
H            0.27363034166356        1.08733177625333        2.96650720181481
H           -1.42154546654277       -0.61705306473130       -0.24200869503233
H           -7.09689559866724       -2.66754481585222       -1.96417764353158
H           -7.44641180576157       -0.93252275978438       -1.81935103600673
H           -7.56536374701506       -1.96812269663116       -0.39811278990994

          :  Hamiltonian                  GFN1-xTB          :
         :: total energy             -83.586629296198 Eh    ::
         :: gradient norm              0.000364213413 Eh/a0 ::
         :: HOMO-LUMO gap              0.179207623545 eV    ::
         :: SCC energy               -84.316089193367 Eh    ::
         :: -> Gsolv                  -0.296787787720 Eh    ::
         :: repulsion energy           0.754857953335 Eh    ::

    * Orbital Energies and Occupations

         #    Occupation            Energy/Eh            Energy/eV
      -------------------------------------------------------------
         1        2.0000           -0.8419838             -22.9115
       ...           ...                  ...                  ...
        56        2.0000           -0.4374519             -11.9037
        57        2.0000           -0.4334806             -11.7956
        58        2.0000           -0.4242720             -11.5450
        59        2.0000           -0.4150565             -11.2943
        60        2.0000           -0.4113315             -11.1929
        61        2.0000           -0.4064263             -11.0594
        62        2.0000           -0.4036844             -10.9848
        63        2.0000           -0.3744402             -10.1890
        64        2.0000           -0.3624930              -9.8639
        65        2.0000           -0.3305660              -8.9952
        66        2.0000           -0.3060220              -8.3273
        67        2.0000           -0.3009961              -8.1905
        68        1.9394           -0.2880709              -7.8388 (HOMO)
        69        0.0606           -0.2814851              -7.6596 (LUMO)
        70                         -0.2389695              -6.5027
        71                         -0.2328005              -6.3348
        72                         -0.1686253              -4.5885
        73                         -0.1574762              -4.2851
        74                         -0.1360022              -3.7008
        75                         -0.1158853              -3.1534
        76                         -0.0966108              -2.6289
        77                         -0.0898757              -2.4456
        78                         -0.0892535              -2.4287
        79                         -0.0683984              -1.8612
       ...                                ...                  ...
       134                          0.7297004              19.8562
      -------------------------------------------------------------
                  HL-Gap            0.0065858 Eh            0.1792 eV

Wiberg/Mayer (AO) data.
largest (>0.10) Wiberg bond orders for each atom

     #   Z sym  total        # sym  WBO       # sym  WBO       # sym  WBO
 ---------------------------------------------------------------------------
     1   6 C    3.899 --    28 H    0.987    27 H    0.981    26 H    0.981
                             2 O    0.923
     2   8 O    2.144 --     3 C    0.996     1 C    0.923     4 O    0.101
     3   6 C    3.824 --     4 O    1.588     5 C    1.105     2 O    0.996
     4   8 O    1.860 --     3 C    1.588     2 O    0.101
     5   6 C    3.950 --     6 C    1.517    25 N    1.108     3 C    1.105
     6   6 C    3.832 --     5 C    1.517     7 O    1.041     8 C    0.892
     7   8 O    2.032 --     6 C    1.041    29 H    0.834
     8   6 C    3.940 --    10 O    1.178     9 C    0.923     6 C    0.892
                            11 N    0.881
     9   6 C    3.980 --    32 H    0.991    31 H    0.989    30 H    0.989
                             8 C    0.923
    10   8 O    1.455 --     8 C    1.178
    11   7 N    2.946 --    12 C    1.558     8 C    0.881    25 N    0.177
    12   6 C    3.962 --    11 N    1.558    25 N    1.346    13 C    0.940
    13   6 C    3.911 --    15 C    0.988    14 C    0.986    12 C    0.940
                            16 N    0.917
    14   6 C    3.995 --    33 H    0.987    13 C    0.986    35 H    0.985
                            34 H    0.984
    15   6 C    3.996 --    13 C    0.988    37 H    0.987    36 H    0.985
                            38 H    0.984
    16   7 N    3.394 --    17 C    1.321    13 C    0.917    39 H    0.857
                            18 O    0.188
    17   6 C    3.913 --    18 O    1.523    16 N    1.321    19 C    0.988
    18   8 O    1.835 --    17 C    1.523    16 N    0.188
    19   6 C    3.833 --    20 N    1.598    24 O    1.046    17 C    0.988
    20   7 N    2.970 --    19 C    1.598    21 N    1.184
    21   7 N    2.980 --    22 C    1.623    20 N    1.184
    22   6 C    3.869 --    21 N    1.623    24 O    1.075    23 C    1.028
    23   6 C    3.990 --    22 C    1.028    40 H    0.984    42 H    0.968
                            41 H    0.965
    24   8 O    2.299 --    22 C    1.075    19 C    1.046
    25   7 N    2.840 --    12 C    1.346     5 C    1.108    11 N    0.177
    26   1 H    1.016 --     1 C    0.981
    27   1 H    1.015 --     1 C    0.981
    28   1 H    1.015 --     1 C    0.987
    29   1 H    0.892 --     7 O    0.834
    30   1 H    1.024 --     9 C    0.989
    31   1 H    1.025 --     9 C    0.989
    32   1 H    1.020 --     9 C    0.991
    33   1 H    1.009 --    14 C    0.987
    34   1 H    1.026 --    14 C    0.984
    35   1 H    1.014 --    14 C    0.985
    36   1 H    1.014 --    15 C    0.985
    37   1 H    1.009 --    15 C    0.987
    38   1 H    1.028 --    15 C    0.984
    39   1 H    1.002 --    16 N    0.857
    40   1 H    1.001 --    23 C    0.984
    41   1 H    0.999 --    23 C    0.965
    42   1 H    0.999 --    23 C    0.968
 ---------------------------------------------------------------------------

           -------------------------------------------------
          | TOTAL ENERGY              -83.586629296198 Eh   |
          | GRADIENT NORM               0.000364213413 Eh/α |
          | HOMO-LUMO GAP               0.179207623545 eV   |
           -------------------------------------------------

 * finished run on 2023/06/20 at 17:57:59.470
