   * xtb version 6.5.1 (579679a) compiled by 'ehlert@majestix' on 2022-07-11
          program call               : /lustre/hpc/kemi/ree/PhD/git/ReactivityQM/dep/xtb-6.5.1/bin/xtb --gfn 1 /lustre/hpc/kemi/ree/PhD/git/ReactivityQM/calculations/RaltegravirCLI/reac01prodE05/conf01/RaltegravirCLI_reac01prodE05_conf01_gfn1.xyz --opt --vfukui --chrg -1 --uhf 0 --alpb DMSO

   ID    Z sym.   atoms
    1    6 C      1, 2, 5-7
    2    7 N      3, 4
    3    8 O      8, 10
    4   17 Cl     9
    5    1 H      11-16

      * Solvation model:               ALPB
        Solvent                        DMSO
        Solvent mass                       7.8130E+01 g/mol
          :  Hamiltonian                  GFN1-xTB          :
 * total energy  :   -34.1230977 Eh     change       -0.3581135E-11 Eh
 * total energy  :   -34.1330189 Eh     change       -0.9921197E-02 Eh
 * total energy  :   -34.1376836 Eh     change       -0.4664790E-02 Eh
 * total energy  :   -34.1392052 Eh     change       -0.1521572E-02 Eh
 * total energy  :   -34.1405068 Eh     change       -0.1301607E-02 Eh
 * total energy  :   -34.1415920 Eh     change       -0.1085129E-02 Eh
 * total energy  :   -34.1429301 Eh     change       -0.1338160E-02 Eh
 * total energy  :   -34.1460715 Eh     change       -0.3141390E-02 Eh
 * total energy  :   -34.1412545 Eh     change        0.4816968E-02 Eh
 * total energy  :   -34.1480440 Eh     change       -0.6789421E-02 Eh
 * total energy  :   -34.1544838 Eh     change       -0.1038496E-03 Eh
 * total energy  :   -34.1545544 Eh     change       -0.7062047E-04 Eh
 * total energy  :   -34.1546156 Eh     change       -0.6114774E-04 Eh
 * total energy  :   -34.1546401 Eh     change       -0.2452216E-04 Eh
 * total energy  :   -34.1546630 Eh     change       -0.2286691E-04 Eh
 * total energy  :   -34.1546775 Eh     change       -0.1457579E-04 Eh
 * total energy  :   -34.1546838 Eh     change       -0.6255353E-05 Eh
 * total energy  :   -34.1546879 Eh     change       -0.4129548E-05 Eh
 * total energy  :   -34.1546913 Eh     change       -0.3334508E-05 Eh
   *** GEOMETRY OPTIMIZATION CONVERGED AFTER 24 ITERATIONS ***

 final structure:
================
16
 xtb: 6.5.1 (579679a)
C            2.65070336481093       -0.19311501533961       -0.09583018814412
C            1.19936218011987       -0.10982232659936       -0.40308334171265
N            0.69145888196818       -0.07663189619194       -1.56716048749951
N           -0.72409732795093       -0.01734558175579       -1.42394590414309
C           -0.94858336070340        0.01848781617901        0.05890426370594
C           -1.97404016087968       -0.92298054310032        0.64034496331233
C           -1.28525725583868        1.19916217749916       -0.77713474705956
O           -2.39042826673739        1.66682429873827       -1.07202855160756
Cl           0.09340972420166        2.61750603817614       -0.55670766528309
O            0.33225298024434       -0.08636080321406        0.64610874845457
H            2.95369437998270        0.66267227961379        0.50650124559256
H            3.22264354823734       -0.20852698436341       -1.02011678362306
H            2.85802132764519       -1.09717321234610        0.47518312321808
H           -2.89916272793179       -0.83668855517367        0.07350258485395
H           -1.61444790098315       -1.95045131019792        0.59363875601754
H           -2.16552838618513       -0.66555838192415        1.68100998391761

          :  Hamiltonian                  GFN1-xTB          :
         :: total energy             -34.154691268729 Eh    ::
         :: gradient norm              0.000847508584 Eh/a0 ::
         :: HOMO-LUMO gap              3.361209231224 eV    ::
         :: SCC energy               -34.408806792852 Eh    ::
         :: -> Gsolv                  -0.097889520061 Eh    ::
         :: repulsion energy           0.261892529978 Eh    ::

    * Orbital Energies and Occupations

         #    Occupation            Energy/Eh            Energy/eV
      -------------------------------------------------------------
         1        2.0000           -0.8413370             -22.8939
       ...           ...                  ...                  ...
        16        2.0000           -0.5176464             -14.0859
        17        2.0000           -0.5131628             -13.9639
        18        2.0000           -0.5046411             -13.7320
        19        2.0000           -0.5000176             -13.6062
        20        2.0000           -0.4944914             -13.4558
        21        2.0000           -0.4721758             -12.8486
        22        2.0000           -0.4454816             -12.1222
        23        2.0000           -0.4402243             -11.9791
        24        2.0000           -0.4346949             -11.8287
        25        2.0000           -0.4292129             -11.6795
        26        2.0000           -0.4207150             -11.4482
        27        2.0000           -0.4066927             -11.0667
        28        2.0000           -0.3490960              -9.4994 (HOMO)
        29                         -0.2255738              -6.1382 (LUMO)
        30                         -0.1975269              -5.3750
        31                         -0.1267224              -3.4483
        32                         -0.1171967              -3.1891
        33                         -0.0830133              -2.2589
        34                         -0.0606482              -1.6503
        35                         -0.0588072              -1.6002
        36                         -0.0520363              -1.4160
        37                         -0.0490693              -1.3352
        38                          0.0047138               0.1283
        39                          0.0248861               0.6772
       ...                                ...                  ...
        57                          0.6556267              17.8405
      -------------------------------------------------------------
                  HL-Gap            0.1235222 Eh            3.3612 eV

Wiberg/Mayer (AO) data.
largest (>0.10) Wiberg bond orders for each atom

     #   Z sym  total        # sym  WBO       # sym  WBO       # sym  WBO
 ---------------------------------------------------------------------------
     1   6 C    3.993 --     2 C    1.020    12 H    0.986    13 H    0.970
                            11 H    0.970
     2   6 C    3.897 --     3 N    1.760    10 O    1.025     1 C    1.020
     3   7 N    2.974 --     2 C    1.760     4 N    1.003    10 O    0.112
     4   7 N    2.948 --     3 N    1.003     5 C    0.877     7 C    0.844
     5   6 C    3.812 --     6 C    0.996    10 O    0.914     7 C    0.895
                             4 N    0.877
     6   6 C    3.995 --     5 C    0.996    14 H    0.984    15 H    0.982
                            16 H    0.982
     7   6 C    3.870 --     8 O    1.478     5 C    0.895     4 N    0.844
                             9 Cl   0.571
     8   8 O    1.791 --     7 C    1.478     9 Cl   0.119
     9  17 Cl   0.758 --     7 C    0.571     8 O    0.119
    10   8 O    2.149 --     2 C    1.025     5 C    0.914     3 N    0.112
    11   1 H    1.002 --     1 C    0.970
    12   1 H    1.004 --     1 C    0.986
    13   1 H    1.002 --     1 C    0.970
    14   1 H    1.008 --     6 C    0.984
    15   1 H    1.008 --     6 C    0.982
    16   1 H    1.007 --     6 C    0.982
 ---------------------------------------------------------------------------

           -------------------------------------------------
          | TOTAL ENERGY              -34.154691268729 Eh   |
          | GRADIENT NORM               0.000847508584 Eh/α |
          | HOMO-LUMO GAP               3.361209231224 eV   |
           -------------------------------------------------

 * finished run on 2023/06/20 at 14:53:34.063
