   * xtb version 6.5.1 (579679a) compiled by 'ehlert@majestix' on 2022-07-11
          program call               : /lustre/hpc/kemi/ree/PhD/git/ReactivityQM/dep/xtb-6.5.1/bin/xtb --gfn 1 /lustre/hpc/kemi/ree/PhD/git/ReactivityQM/calculations/R03/reac02prodN10/conf09/R03_reac02prodN10_conf09_gfn1.xyz --opt --vfukui --chrg 1 --uhf 0 --alpb DMSO

   ID    Z sym.   atoms
    1    6 C      1, 3, 5, 6, 8, 11-16, 18, 20, 23, 24
    2    8 O      2, 4, 7, 9, 19, 25
    3    7 N      10, 17, 21, 22, 26
    4    1 H      27-46

      * Solvation model:               ALPB
        Solvent                        DMSO
        Solvent mass                       7.8130E+01 g/mol
          :  Hamiltonian                  GFN1-xTB          :
 * total energy  :   -86.2718884 Eh     change       -0.8492407E-10 Eh
 * total energy  :   -86.2897656 Eh     change       -0.1787715E-01 Eh
 * total energy  :   -86.2974648 Eh     change       -0.7699218E-02 Eh
 * total energy  :   -86.2988198 Eh     change       -0.1355001E-02 Eh
 * total energy  :   -86.2997242 Eh     change       -0.9043668E-03 Eh
 * total energy  :   -86.3001352 Eh     change       -0.4110206E-03 Eh
 * total energy  :   -86.3004903 Eh     change       -0.3551550E-03 Eh
 * total energy  :   -86.3007853 Eh     change       -0.2949797E-03 Eh
 * total energy  :   -86.3010705 Eh     change       -0.2851622E-03 Eh
 * total energy  :   -86.3013726 Eh     change       -0.3020906E-03 Eh
 * total energy  :   -86.3090639 Eh     change       -0.1299643E-04 Eh
 * total energy  :   -86.3090752 Eh     change       -0.1132081E-04 Eh
 * total energy  :   -86.3090851 Eh     change       -0.9896758E-05 Eh
 * total energy  :   -86.3090940 Eh     change       -0.8913209E-05 Eh
 * total energy  :   -86.3091034 Eh     change       -0.9352267E-05 Eh
 * total energy  :   -86.3091129 Eh     change       -0.9487661E-05 Eh
 * total energy  :   -86.3091227 Eh     change       -0.9822370E-05 Eh
 * total energy  :   -86.3091314 Eh     change       -0.8712337E-05 Eh
 * total energy  :   -86.3091341 Eh     change       -0.2675593E-05 Eh
   *** GEOMETRY OPTIMIZATION CONVERGED AFTER 94 ITERATIONS ***

 final structure:
================
46
 xtb: 6.5.1 (579679a)
C           -5.42896410938451       -2.84928793342688       -0.22462023059174
O           -4.31044156394861       -1.96608057122773       -0.01883451422160
C           -4.13396187673772       -1.00730192935772       -0.88651820493910
O           -4.83767457594281       -0.79903135830559       -1.85552054663662
C           -2.93715886866844       -0.14273650881829       -0.60306708419376
C           -2.63147697460329        0.91593665003806       -1.49549736305572
O           -3.32470989944745        1.16697540820904       -2.54730020404902
C           -1.51522876395939        1.84182717772645       -1.17040435669860
O           -1.28354577380846        2.85579552675085       -1.79291951816753
N           -0.81133373766350        1.47979937863078       -0.04889487870366
C            0.18302329113157        2.46309000958662        0.37934644221485
C           -1.03203635752601        0.29145802156632        0.71158908603481
C           -0.91422038708667        0.54227031453281        2.21777262796889
C            0.10707257786690       -0.87847570276396        0.25856462357614
C           -0.14058354561104       -2.12331890049727        1.10281546873171
C           -0.07541120922228       -1.17692177148252       -1.22018113038539
N            1.39056157266599       -0.36907515803540        0.57888121614563
C            2.25420092562112        0.27715039279549       -0.28036323849496
O            1.97322324941553        0.64328776043033       -1.39844252335040
C            3.56440123627108        0.45735480814580        0.36550751443553
N            3.88453932637686        0.06554532538720        1.56573735011793
N            5.17955515145895        0.41029772250977        1.75728791374894
C            5.57761924956527        0.99386573007328        0.66125868697761
C            6.91347710971241        1.55608000076953        0.37269279068544
O            4.60001237307716        1.05086725169029       -0.25143103361859
N           -2.20540793514258       -0.38883662333626        0.44824430928536
H           -5.46473108522944       -3.50025123849407        0.64568127358888
H           -6.34619432747002       -2.26509622436153       -0.31399239619471
H           -5.26935042424460       -3.42808155550176       -1.13554365706047
H           -4.09163523106370        0.52436326131416       -2.64361230291833
H           -0.33146387970601        3.28871748888682        0.87340020211060
H            0.88895906369739        2.00807060740420        1.06380438960012
H            0.69729590793602        2.83613457520446       -0.50692839425996
H           -1.37817810393115       -0.28376579800498        2.75120205096201
H            0.12022039934242        0.64064729667911        2.53376620559442
H           -1.45241266947432        1.45810964470727        2.45642824038270
H            0.53973480491118       -2.90225727988127        0.75888542348915
H            0.05547655355054       -1.94079499987937        2.15674932664824
H           -1.16604713548349       -2.46579935059154        0.98263691717757
H           -0.93429329896367       -1.83111739341022       -1.35472482915198
H            0.81510198252903       -1.68478720295097       -1.58761258263867
H           -0.22137271483258       -0.27661999258311       -1.81394269420123
H            1.76105071988020       -0.59027971498503        1.49415083251745
H            7.58614755217043        1.34507990449838        1.20054514792165
H            7.30868352055151        1.12263137985176       -0.54596555642537
H            6.83747888141815        2.63456157050760        0.23040920004419

          :  Hamiltonian                  GFN1-xTB          :
         :: total energy             -86.309134099217 Eh    ::
         :: gradient norm              0.000243539335 Eh/a0 ::
         :: HOMO-LUMO gap              1.171756854307 eV    ::
         :: SCC energy               -87.130246318702 Eh    ::
         :: -> Gsolv                  -0.106079744995 Eh    ::
         :: repulsion energy           0.853246210107 Eh    ::

    * Orbital Energies and Occupations

         #    Occupation            Energy/Eh            Energy/eV
      -------------------------------------------------------------
         1        2.0000           -0.8878807             -24.1605
       ...           ...                  ...                  ...
        58        2.0000           -0.5315441             -14.4641
        59        2.0000           -0.5304429             -14.4341
        60        2.0000           -0.5293359             -14.4040
        61        2.0000           -0.5237836             -14.2529
        62        2.0000           -0.5224607             -14.2169
        63        2.0000           -0.5097178             -13.8701
        64        2.0000           -0.5025917             -13.6762
        65        2.0000           -0.4972375             -13.5305
        66        2.0000           -0.4910430             -13.3620
        67        2.0000           -0.4870722             -13.2539
        68        2.0000           -0.4760722             -12.9546
        69        2.0000           -0.4702290             -12.7956
        70        2.0000           -0.4687195             -12.7545 (HOMO)
        71                         -0.4256582             -11.5827 (LUMO)
        72                         -0.3598427              -9.7918
        73                         -0.3382147              -9.2033
        74                         -0.2792865              -7.5998
        75                         -0.2718057              -7.3962
        76                         -0.2283088              -6.2126
        77                         -0.2218422              -6.0366
        78                         -0.1672116              -4.5501
        79                         -0.1552109              -4.2235
        80                         -0.1519013              -4.1334
        81                         -0.1484512              -4.0396
       ...                                ...                  ...
       144                          0.7109282              19.3453
      -------------------------------------------------------------
                  HL-Gap            0.0430613 Eh            1.1718 eV

Wiberg/Mayer (AO) data.
largest (>0.10) Wiberg bond orders for each atom

     #   Z sym  total        # sym  WBO       # sym  WBO       # sym  WBO
 ---------------------------------------------------------------------------
     1   6 C    3.839 --    27 H    0.984    28 H    0.977    29 H    0.976
                             2 O    0.867
     2   8 O    2.254 --     3 C    1.193     1 C    0.867     4 O    0.144
     3   6 C    3.857 --     4 O    1.618     2 O    1.193     5 C    0.970
     4   8 O    1.980 --     3 C    1.618     2 O    0.144
     5   6 C    3.964 --    26 N    1.522     6 C    1.220     3 C    0.970
     6   6 C    3.855 --     7 O    1.323     5 C    1.220     8 C    0.999
     7   8 O    2.229 --     6 C    1.323    30 H    0.710
     8   6 C    3.922 --     9 O    1.621    10 N    1.178     6 C    0.999
     9   8 O    1.942 --     8 C    1.621    10 N    0.182
    10   7 N    3.490 --     8 C    1.178    12 C    0.997    11 C    0.928
                             9 O    0.182
    11   6 C    3.909 --    32 H    0.979    33 H    0.969    31 H    0.961
                            10 N    0.928
    12   6 C    3.912 --    26 N    1.131    10 N    0.997    13 C    0.955
                            14 C    0.677
    13   6 C    3.967 --    35 H    0.979    34 H    0.978    36 H    0.974
                            12 C    0.955
    14   6 C    3.899 --    17 N    1.030    16 C    1.008    15 C    0.999
                            12 C    0.677
    15   6 C    3.979 --    14 C    0.999    39 H    0.978    38 H    0.977
                            37 H    0.968
    16   6 C    3.984 --    14 C    1.008    40 H    0.982    42 H    0.970
                            41 H    0.964
    17   7 N    3.374 --    18 C    1.137    14 C    1.030    43 H    0.882
                            19 O    0.133
    18   6 C    3.903 --    19 O    1.645    17 N    1.137    20 C    1.014
    19   8 O    1.954 --    18 C    1.645    17 N    0.133
    20   6 C    3.880 --    21 N    1.581    25 O    1.066    18 C    1.014
    21   7 N    3.026 --    20 C    1.581    22 N    1.228
    22   7 N    2.981 --    23 C    1.574    21 N    1.228
    23   6 C    3.858 --    22 N    1.574    25 O    1.091    24 C    1.035
    24   6 C    3.982 --    23 C    1.035    44 H    0.981    45 H    0.962
                            46 H    0.957
    25   8 O    2.341 --    23 C    1.091    20 C    1.066
    26   7 N    3.040 --     5 C    1.522    12 C    1.131
    27   1 H    1.006 --     1 C    0.984
    28   1 H    1.001 --     1 C    0.977
    29   1 H    1.000 --     1 C    0.976
    30   1 H    0.815 --     7 O    0.710
    31   1 H    0.994 --    11 C    0.961
    32   1 H    1.002 --    11 C    0.979
    33   1 H    1.005 --    11 C    0.969
    34   1 H    0.999 --    13 C    0.978
    35   1 H    0.997 --    13 C    0.979
    36   1 H    0.992 --    13 C    0.974
    37   1 H    0.990 --    15 C    0.968
    38   1 H    0.994 --    15 C    0.977
    39   1 H    1.006 --    15 C    0.978
    40   1 H    1.000 --    16 C    0.982
    41   1 H    0.996 --    16 C    0.964
    42   1 H    1.011 --    16 C    0.970
    43   1 H    0.946 --    17 N    0.882
    44   1 H    0.997 --    24 C    0.981
    45   1 H    0.994 --    24 C    0.962
    46   1 H    0.994 --    24 C    0.957
 ---------------------------------------------------------------------------

           -------------------------------------------------
          | TOTAL ENERGY              -86.309134099217 Eh   |
          | GRADIENT NORM               0.000243539335 Eh/α |
          | HOMO-LUMO GAP               1.171756854307 eV   |
           -------------------------------------------------

 * finished run on 2023/06/20 at 15:45:19.027
