   * xtb version 6.5.1 (579679a) compiled by 'ehlert@majestix' on 2022-07-11
          program call               : /lustre/hpc/kemi/ree/PhD/git/ReactivityQM/dep/xtb-6.5.1/bin/xtb --gfn 1 /lustre/hpc/kemi/ree/PhD/git/ReactivityQM/calculations/R02oxygendeprot/reac01prodN13/conf04/R02oxygendeprot_reac01prodN13_conf04_gfn1.xyz --opt --vfukui --chrg 0 --uhf 0 --alpb DMSO

   ID    Z sym.   atoms
    1    6 C      1, 3, 5, 7-10, 12, 14, 17-19, 22, 24
    2    8 O      2, 4, 13, 20, 23, 25
    3    7 N      6, 11, 15, 16, 21
    4    1 H      26-42

      * Solvation model:               ALPB
        Solvent                        DMSO
        Solvent mass                       7.8130E+01 g/mol
          :  Hamiltonian                  GFN1-xTB          :
 * total energy  :   -82.9265012 Eh     change       -0.2448957E-09 Eh
 * total energy  :   -82.9362843 Eh     change       -0.9783097E-02 Eh
 * total energy  :   -82.9399507 Eh     change       -0.3666333E-02 Eh
 * total energy  :   -82.9403951 Eh     change       -0.4444635E-03 Eh
 * total energy  :   -82.9406374 Eh     change       -0.2422493E-03 Eh
 * total energy  :   -82.9407486 Eh     change       -0.1112499E-03 Eh
 * total energy  :   -82.9408469 Eh     change       -0.9831838E-04 Eh
 * total energy  :   -82.9409165 Eh     change       -0.6954370E-04 Eh
 * total energy  :   -82.9409654 Eh     change       -0.4893948E-04 Eh
 * total energy  :   -82.9409958 Eh     change       -0.3033229E-04 Eh
 * total energy  :   -82.9410603 Eh     change       -0.1861296E-04 Eh
 * total energy  :   -82.9410853 Eh     change       -0.2501459E-04 Eh
 * total energy  :   -82.9411018 Eh     change       -0.1645698E-04 Eh
 * total energy  :   -82.9411142 Eh     change       -0.1237007E-04 Eh
 * total energy  :   -82.9411264 Eh     change       -0.1221719E-04 Eh
 * total energy  :   -82.9411397 Eh     change       -0.1329649E-04 Eh
 * total energy  :   -82.9411462 Eh     change       -0.6543408E-05 Eh
 * total energy  :   -82.9411514 Eh     change       -0.5199413E-05 Eh
 * total energy  :   -82.9411547 Eh     change       -0.3253209E-05 Eh
   *** GEOMETRY OPTIMIZATION CONVERGED AFTER 21 ITERATIONS ***

 final structure:
================
42
 xtb: 6.5.1 (579679a)
C           -6.84505385554275       -0.67293156945607       -1.07130545919361
O           -5.62871543503728       -0.92653448176244       -0.36701830263496
C           -4.66293235708824       -0.01785923416498       -0.50908482789535
O           -4.79509459987079        0.98085011777499       -1.18773530624483
C           -3.41588881053767       -0.33738138393958        0.23236541504976
N           -2.45387113069465        0.59823080772725        0.08091874097434
C           -1.29424156080433        0.46553388254308        0.65365461043275
C           -0.25775689640189        1.55257809452950        0.50118840139661
C           -0.25785653033269        2.38659131479393        1.79346156506447
C           -0.57229619007753        2.42158687560963       -0.72043836899457
N            1.04794587906599        0.90472041412830        0.32245558523119
C            2.20715238614470        1.59186323820300        0.23838114830049
O            2.34505644595289        2.79494540230311        0.37051394940910
C            3.36352345758223        0.70181407093591       -0.04276149742885
N            4.63567747645837        1.10762080700256       -0.17905530543977
N            5.36496862954594        0.08559982127930       -0.43789277565753
C            4.53696285819865       -1.08982482633489       -0.48604721738353
C            4.95095128049986       -2.08300029881029        0.60175833773709
C            4.56974645042620       -1.70788857405994       -1.88583061220327
O            3.22302813807069       -0.59284845490003       -0.21114475128489
N           -1.00141071694274       -0.59499046662217        1.45219889976830
C           -1.87719659028794       -1.63915548472508        1.70653265352676
O           -1.54078688073393       -2.55383516606552        2.43093341304827
C           -3.22851405409046       -1.52268364401461        1.02883884350511
O           -4.06050105519452       -2.41134486195397        1.19536622573474
H           -7.28636780427704        0.26884665467612       -0.73574829941427
H           -7.51368809006957       -1.50280316464512       -0.85080832207822
H           -6.65279940157591       -0.61646576654474       -2.14566893109248
H            0.43650745857621        3.21954474010222        1.70486769721837
H           -1.26030612631055        2.77588655342754        1.96742911729888
H            0.03517542866465        1.76315808546844        2.63635880399690
H            0.15963600159202        3.22216689471487       -0.80543140855639
H           -1.56681793797062        2.85143006459522       -0.60883744602028
H           -0.54927447764421        1.81353617194284       -1.62312956094755
H            1.07047779472911       -0.07847518186601        0.10753418461412
H            4.90746757438092       -1.59399914904767        1.57236622242341
H            5.96529716589229       -2.42255548006125        0.40773857134613
H            4.26995120655123       -2.93035450286334        0.58939516633774
H            4.24310916230426       -0.96826381288875       -2.61370001984546
H            5.58558687607738       -2.02195290556206       -2.11272439282788
H            3.90313278105361       -2.56627632659942       -1.91386895536806
H           -0.09998695027423       -0.65508327487502        1.89727620809449

          :  Hamiltonian                  GFN1-xTB          :
         :: total energy             -82.941154679005 Eh    ::
         :: gradient norm              0.000674186903 Eh/a0 ::
         :: HOMO-LUMO gap              0.043322996613 eV    ::
         :: SCC energy               -83.707725148899 Eh    ::
         :: -> Gsolv                  -0.070782686964 Eh    ::
         :: repulsion energy           0.792024550378 Eh    ::

    * Orbital Energies and Occupations

         #    Occupation            Energy/Eh            Energy/eV
      -------------------------------------------------------------
         1        2.0000           -0.8818112             -23.9953
       ...           ...                  ...                  ...
        55        2.0000           -0.5126363             -13.9495
        56        2.0000           -0.5102794             -13.8854
        57        2.0000           -0.5071626             -13.8006
        58        2.0000           -0.5030901             -13.6898
        59        2.0000           -0.4906028             -13.3500
        60        2.0000           -0.4866185             -13.2416
        61        2.0000           -0.4816207             -13.1056
        62        2.0000           -0.4739316             -12.8963
        63        2.0000           -0.4676576             -12.7256
        64        2.0000           -0.4669448             -12.7062
        65        2.0000           -0.4599217             -12.5151
        66        2.0000           -0.4237896             -11.5319
        67        1.3960           -0.4072013             -11.0805 (HOMO)
        68        0.6040           -0.4056092             -11.0372 (LUMO)
        69                         -0.3216691              -8.7531
        70                         -0.3098921              -8.4326
        71                         -0.2844436              -7.7401
        72                         -0.2349976              -6.3946
        73                         -0.2221686              -6.0455
        74                         -0.1566966              -4.2639
        75                         -0.1428783              -3.8879
        76                         -0.1374128              -3.7392
        77                         -0.1335964              -3.6353
        78                         -0.1329382              -3.6174
       ...                                ...                  ...
       134                          0.7484737              20.3670
      -------------------------------------------------------------
                  HL-Gap            0.0015921 Eh            0.0433 eV

Wiberg/Mayer (AO) data.
largest (>0.10) Wiberg bond orders for each atom

     #   Z sym  total        # sym  WBO       # sym  WBO       # sym  WBO
 ---------------------------------------------------------------------------
     1   6 C    3.875 --    27 H    0.986    28 H    0.979    26 H    0.979
                             2 O    0.902
     2   8 O    2.194 --     3 C    1.109     1 C    0.902     4 O    0.132
     3   6 C    3.842 --     4 O    1.632     2 O    1.109     5 C    1.023
     4   8 O    1.877 --     3 C    1.632     2 O    0.132
     5   6 C    3.710 --     6 N    1.294    24 C    1.164     3 C    1.023
     6   7 N    2.986 --     7 C    1.481     5 C    1.294
     7   6 C    3.790 --     6 N    1.481    21 N    1.187     8 C    0.987
     8   6 C    3.924 --     7 C    0.987    10 C    0.986     9 C    0.967
                            11 N    0.918
     9   6 C    3.973 --    31 H    0.984    30 H    0.984    29 H    0.976
                             8 C    0.967
    10   6 C    3.983 --     8 C    0.986    34 H    0.985    32 H    0.982
                            33 H    0.982
    11   7 N    3.329 --    12 C    1.251     8 C    0.918    35 H    0.889
                            13 O    0.188
    12   6 C    3.909 --    13 O    1.585    11 N    1.251    14 C    0.991
    13   8 O    1.892 --    12 C    1.585    11 N    0.188
    14   6 C    3.624 --    15 N    1.316    20 O    1.175    12 C    0.991
    15   7 N    2.998 --    16 N    1.542    14 C    1.316
    16   7 N    2.687 --    15 N    1.542    17 C    1.024
    17   6 C    3.834 --    16 N    1.024    18 C    0.939    19 C    0.938
                            20 O    0.870
    18   6 C    3.938 --    36 H    0.982    37 H    0.982    38 H    0.980
                            17 C    0.939
    19   6 C    3.937 --    39 H    0.982    40 H    0.982    41 H    0.980
                            17 C    0.938
    20   8 O    2.199 --    14 C    1.175    17 C    0.870
    21   7 N    3.421 --     7 C    1.187    22 C    1.103    42 H    0.882
                            23 O    0.112
    22   6 C    3.838 --    23 O    1.657    21 N    1.103    24 C    0.948
    23   8 O    1.878 --    22 C    1.657    21 N    0.112
    24   6 C    3.865 --    25 O    1.615     5 C    1.164    22 C    0.948
    25   8 O    1.793 --    24 C    1.615
    26   1 H    1.007 --     1 C    0.979
    27   1 H    1.011 --     1 C    0.986
    28   1 H    1.007 --     1 C    0.979
    29   1 H    1.007 --     9 C    0.976
    30   1 H    1.000 --     9 C    0.984
    31   1 H    1.000 --     9 C    0.984
    32   1 H    1.005 --    10 C    0.982
    33   1 H    1.009 --    10 C    0.982
    34   1 H    1.002 --    10 C    0.985
    35   1 H    0.932 --    11 N    0.889
    36   1 H    0.996 --    18 C    0.982
    37   1 H    0.997 --    18 C    0.982
    38   1 H    0.996 --    18 C    0.980
    39   1 H    0.996 --    19 C    0.982
    40   1 H    0.997 --    19 C    0.982
    41   1 H    0.996 --    19 C    0.980
    42   1 H    0.927 --    21 N    0.882
 ---------------------------------------------------------------------------

           -------------------------------------------------
          | TOTAL ENERGY              -82.941154679005 Eh   |
          | GRADIENT NORM               0.000674186903 Eh/α |
          | HOMO-LUMO GAP               0.043322996613 eV   |
           -------------------------------------------------

 * finished run on 2023/06/21 at 17:29:09.906
