   * xtb version 6.5.1 (579679a) compiled by 'ehlert@majestix' on 2022-07-11
          program call               : /lustre/hpc/kemi/ree/PhD/git/ReactivityQM/dep/xtb-6.5.1/bin/xtb --gfn 1 /lustre/hpc/kemi/ree/PhD/git/ReactivityQM/calculations/R01/reac01prodE05/conf09/R01_reac01prodE05_conf09_gfn1.xyz --opt --vfukui --chrg -1 --uhf 0 --alpb DMSO

   ID    Z sym.   atoms
    1    6 C      1, 3, 5, 8-10
    2    8 O      2, 4, 11
    3    7 N      6, 7
    4    1 H      12-20

      * Solvation model:               ALPB
        Solvent                        DMSO
        Solvent mass                       7.8130E+01 g/mol
          :  Hamiltonian                  GFN1-xTB          :
 * total energy  :   -38.2551833 Eh     change       -0.2977174E-11 Eh
 * total energy  :   -38.2714997 Eh     change       -0.1631636E-01 Eh
 * total energy  :   -38.2766271 Eh     change       -0.5127407E-02 Eh
 * total energy  :   -38.2772103 Eh     change       -0.5832258E-03 Eh
 * total energy  :   -38.2776489 Eh     change       -0.4385958E-03 Eh
 * total energy  :   -38.2777979 Eh     change       -0.1490093E-03 Eh
 * total energy  :   -38.2778754 Eh     change       -0.7747928E-04 Eh
 * total energy  :   -38.2779179 Eh     change       -0.4247256E-04 Eh
 * total energy  :   -38.2779415 Eh     change       -0.2362175E-04 Eh
 * total energy  :   -38.2779593 Eh     change       -0.1779624E-04 Eh
 * total energy  :   -38.2779735 Eh     change       -0.1418364E-04 Eh
 * total energy  :   -38.2779769 Eh     change       -0.3437988E-05 Eh
   *** GEOMETRY OPTIMIZATION CONVERGED AFTER 12 ITERATIONS ***

 final structure:
================
20
 xtb: 6.5.1 (579679a)
C            4.10383490707687        0.12467154062192        0.55918821889170
O            2.73272163128521        0.40884224495387        0.43524169750287
C            1.91303673611130       -0.76451421801845        0.19517620149281
O            2.48844570235537       -1.90381293292880        0.14938055859954
C            0.59706355325737       -0.47814434220969        0.04164032436802
N           -0.46888494962468       -1.38833680019186       -0.20574910085771
N           -1.53196222875381       -0.60010130711151       -0.27099613713962
C           -2.82327296931597       -1.19811248220700       -0.51140652906007
C           -1.29278484207617        0.68033787961944       -0.08597748395284
C           -2.26048849358022        1.80662130440671       -0.11489373250487
O            0.04817684181490        0.88482445174313        0.11550661260212
H            4.62388468982337        1.07231221500984        0.72456564095850
H            4.51021095494780       -0.34621755017048       -0.34883665424848
H            4.31156585127843       -0.54339782639536        1.40886466612712
H           -3.42620784840217       -1.16207182124731        0.39622149937595
H           -2.66575493066827       -2.23365300326566       -0.80575454622274
H           -3.33902482345484       -0.65990150631785       -1.30489936133680
H           -3.16728348491471        1.55288520908347        0.43508531552378
H           -1.80207473189419        2.68181806086297        0.34284693432186
H           -2.55120156526553        2.06595088376252       -1.13698112444119

          :  Hamiltonian                  GFN1-xTB          :
         :: total energy             -38.277976915115 Eh    ::
         :: gradient norm              0.000805272824 Eh/a0 ::
         :: HOMO-LUMO gap              0.972044155674 eV    ::
         :: SCC energy               -38.591381684806 Eh    ::
         :: -> Gsolv                  -0.121808122683 Eh    ::
         :: repulsion energy           0.321543862612 Eh    ::

    * Orbital Energies and Occupations

         #    Occupation            Energy/Eh            Energy/eV
      -------------------------------------------------------------
         1        2.0000           -0.8003509             -21.7787
       ...           ...                  ...                  ...
        19        2.0000           -0.5139288             -13.9847
        20        2.0000           -0.5111961             -13.9104
        21        2.0000           -0.5036087             -13.7039
        22        2.0000           -0.4851191             -13.2008
        23        2.0000           -0.4659597             -12.6794
        24        2.0000           -0.4595541             -12.5051
        25        2.0000           -0.4554107             -12.3924
        26        2.0000           -0.4370657             -11.8932
        27        2.0000           -0.4068173             -11.0701
        28        2.0000           -0.4027975             -10.9607
        29        2.0000           -0.3698539             -10.0642
        30        2.0000           -0.3653703              -9.9422
        31        2.0000           -0.2579043              -7.0179 (HOMO)
        32                         -0.2221823              -6.0459 (LUMO)
        33                         -0.1398348              -3.8051
        34                         -0.1244063              -3.3853
        35                         -0.0997510              -2.7144
        36                         -0.0986925              -2.6856
        37                         -0.0802058              -2.1825
        38                         -0.0703877              -1.9153
        39                         -0.0538610              -1.4656
        40                         -0.0482180              -1.3121
        41                         -0.0382252              -1.0402
        42                         -0.0351247              -0.9558
       ...                                ...                  ...
        62                          0.7121489              19.3786
      -------------------------------------------------------------
                  HL-Gap            0.0357220 Eh            0.9720 eV

Wiberg/Mayer (AO) data.
largest (>0.10) Wiberg bond orders for each atom

     #   Z sym  total        # sym  WBO       # sym  WBO       # sym  WBO
 ---------------------------------------------------------------------------
     1   6 C    3.933 --    12 H    0.986    13 H    0.979    14 H    0.979
                             2 O    0.970
     2   8 O    2.001 --     1 C    0.970     3 C    0.856
     3   6 C    3.877 --     5 C    1.544     4 O    1.309     2 O    0.856
     4   8 O    1.639 --     3 C    1.309     5 C    0.168
     5   6 C    3.711 --     3 C    1.544     6 N    1.059    11 O    0.836
                             4 O    0.168
     6   7 N    2.758 --     7 N    1.185     5 C    1.059     9 C    0.329
     7   7 N    3.635 --     9 C    1.374     6 N    1.185     8 C    0.952
     8   6 C    3.956 --    16 H    0.985    17 H    0.984    15 H    0.980
                             7 N    0.952
     9   6 C    3.867 --     7 N    1.374    11 O    1.028    10 C    1.024
                             6 N    0.329
    10   6 C    3.994 --     9 C    1.024    19 H    0.982    18 H    0.978
                            20 H    0.969
    11   8 O    2.085 --     9 C    1.028     5 C    0.836
    12   1 H    1.023 --     1 C    0.986
    13   1 H    1.027 --     1 C    0.979
    14   1 H    1.028 --     1 C    0.979
    15   1 H    1.003 --     8 C    0.980
    16   1 H    1.014 --     8 C    0.985
    17   1 H    1.003 --     8 C    0.984
    18   1 H    1.004 --    10 C    0.978
    19   1 H    1.004 --    10 C    0.982
    20   1 H    1.004 --    10 C    0.969
 ---------------------------------------------------------------------------

           -------------------------------------------------
          | TOTAL ENERGY              -38.277976915115 Eh   |
          | GRADIENT NORM               0.000805272824 Eh/α |
          | HOMO-LUMO GAP               0.972044155674 eV   |
           -------------------------------------------------

 * finished run on 2023/06/20 at 14:53:59.129
