   * xtb version 6.5.1 (579679a) compiled by 'ehlert@majestix' on 2022-07-11
          program call               : /lustre/hpc/kemi/ree/PhD/git/ReactivityQM/dep/xtb-6.5.1/bin/xtb --gfn 1 /lustre/hpc/kemi/ree/PhD/git/ReactivityQM/calculations/R02methylcation/reac01prodN12/conf20/R02methylcation_reac01prodN12_conf20_gfn1.xyz --opt --vfukui --chrg 0 --uhf 0 --alpb DMSO

   ID    Z sym.   atoms
    1    6 C      1, 3, 5, 7-10, 12, 14, 15, 18, 19, 22, 24
    2    8 O      2, 4, 13, 20, 23, 25
    3    7 N      6, 11, 16, 17, 21
    4    1 H      26-42

      * Solvation model:               ALPB
        Solvent                        DMSO
        Solvent mass                       7.8130E+01 g/mol
          :  Hamiltonian                  GFN1-xTB          :
 * total energy  :   -82.9299610 Eh     change       -0.4151843E-09 Eh
 * total energy  :   -82.9406463 Eh     change       -0.1068533E-01 Eh
 * total energy  :   -82.9448466 Eh     change       -0.4200293E-02 Eh
 * total energy  :   -82.9455009 Eh     change       -0.6542546E-03 Eh
 * total energy  :   -82.9458776 Eh     change       -0.3766736E-03 Eh
 * total energy  :   -82.9460090 Eh     change       -0.1314135E-03 Eh
 * total energy  :   -82.9460942 Eh     change       -0.8519868E-04 Eh
 * total energy  :   -82.9461543 Eh     change       -0.6008624E-04 Eh
 * total energy  :   -82.9462129 Eh     change       -0.5861535E-04 Eh
 * total energy  :   -82.9462771 Eh     change       -0.6426243E-04 Eh
 * total energy  :   -82.9537431 Eh     change       -0.2470850E-04 Eh
 * total energy  :   -82.9537624 Eh     change       -0.1926322E-04 Eh
 * total energy  :   -82.9537771 Eh     change       -0.1471225E-04 Eh
 * total energy  :   -82.9537902 Eh     change       -0.1307134E-04 Eh
 * total energy  :   -82.9538003 Eh     change       -0.1007755E-04 Eh
 * total energy  :   -82.9538086 Eh     change       -0.8296043E-05 Eh
 * total energy  :   -82.9538163 Eh     change       -0.7760078E-05 Eh
 * total energy  :   -82.9538232 Eh     change       -0.6870820E-05 Eh
 * total energy  :   -82.9538275 Eh     change       -0.4340448E-05 Eh
   *** GEOMETRY OPTIMIZATION CONVERGED AFTER 116 ITERATIONS ***

 final structure:
================
42
 xtb: 6.5.1 (579679a)
C           -5.10406387201380       -1.71410570191173       -2.03039251501411
O           -4.55712857182513       -1.08555191219497       -0.87289983393793
C           -3.31986885817475       -0.59162991291996       -0.99587056077727
O           -2.68970452781802       -0.66888266686352       -2.03484638265501
C           -2.79284116535526        0.04453064746297        0.23135540507298
N           -1.55880702883471        0.57436295203630        0.06560100257961
C           -0.93490401362056        1.14740509198433        1.05299506285064
C            0.41286676943023        1.76492441792165        0.76036183307523
C            0.24524854025363        2.76759137216425       -0.38689662256281
C            1.08468527981545        2.40886254202902        1.97114358210706
N            1.30761070284748        0.69834622423550        0.25714546239549
C            1.30102999892271       -0.49884971103351        0.82600049452661
O            0.49916338597740       -0.89683571992797        1.63841324396295
C            2.43576031986309       -1.47622947859961        0.31109493582564
C            3.17957808722145       -2.01882258673106        1.52805369020956
N            1.78113470053232       -2.46990758561941       -0.46446869719572
N            2.19545784620130       -2.37680539035239       -1.69175021311745
C            3.10280593298973       -1.40890977171351       -1.75784156516875
C            3.83482074961845       -0.97999175364773       -2.95739381584052
O            3.30322820392897       -0.82669798507265       -0.59080900788515
N           -1.50815184581395        1.28322263066688        2.28093477771437
C           -2.76134813459176        0.80127857626211        2.60379772484223
O           -3.20441130784128        0.96012171480574        3.72761686805158
C           -3.49707524800040        0.09754214477474        1.48193872579406
O           -4.61656635493178       -0.36944538776096        1.69796725115573
H           -5.15435663775785       -1.00423766877015       -2.86010523146546
H           -4.48648671105993       -2.56594094099588       -2.32737959773566
H           -6.10424860096235       -2.05052205552135       -1.76329566221952
H           -0.39489811282901        3.58733207931990       -0.06593155694472
H            1.21450634687483        3.16757141402736       -0.67540810053455
H           -0.21055641621882        2.27027932373692       -1.24289653378382
H            1.21700587031722        1.67794558607623        2.76746284037901
H            0.48975006316354        3.24464595031849        2.33449871418690
H            2.06407639026443        2.78315047336409        1.68032963215139
H            2.09880005926762        0.99745331851883       -0.28677231268137
H            3.91522305351145       -2.74905501965705        1.19950326941997
H            3.68225095368003       -1.19926452782079        2.03533709774795
H            2.46082094340370       -2.48511968460280        2.19892570445982
H            3.58266327217311       -1.61723147432050       -3.80177618430607
H            4.90765815077381       -1.01947706872822       -2.76301485512703
H            3.58752696805757        0.05720367787884       -3.18980736170020
H           -1.00825618146120        1.73974986716937        3.02559429216043

          :  Hamiltonian                  GFN1-xTB          :
         :: total energy             -82.953827540844 Eh    ::
         :: gradient norm              0.000815000318 Eh/a0 ::
         :: HOMO-LUMO gap              0.159706610997 eV    ::
         :: SCC energy               -83.723867066896 Eh    ::
         :: -> Gsolv                  -0.087955702990 Eh    ::
         :: repulsion energy           0.797065361123 Eh    ::

    * Orbital Energies and Occupations

         #    Occupation            Energy/Eh            Energy/eV
      -------------------------------------------------------------
         1        2.0000           -0.8871506             -24.1406
       ...           ...                  ...                  ...
        55        2.0000           -0.5139743             -13.9860
        56        2.0000           -0.5113477             -13.9145
        57        2.0000           -0.5085542             -13.8385
        58        2.0000           -0.4952710             -13.4770
        59        2.0000           -0.4889732             -13.3056
        60        2.0000           -0.4884255             -13.2907
        61        2.0000           -0.4778318             -13.0025
        62        2.0000           -0.4772963             -12.9879
        63        2.0000           -0.4704521             -12.8017
        64        2.0000           -0.4687919             -12.7565
        65        2.0000           -0.4531871             -12.3318
        66        2.0000           -0.4156015             -11.3091
        67        1.9129           -0.3999798             -10.8840 (HOMO)
        68        0.0871           -0.3941107             -10.7243 (LUMO)
        69                         -0.3026015              -8.2342
        70                         -0.2892275              -7.8703
        71                         -0.2769098              -7.5351
        72                         -0.2765808              -7.5261
        73                         -0.2289905              -6.2311
        74                         -0.1578260              -4.2947
        75                         -0.1484237              -4.0388
        76                         -0.1438553              -3.9145
        77                         -0.1405360              -3.8242
        78                         -0.1360466              -3.7020
       ...                                ...                  ...
       134                          0.7466854              20.3183
      -------------------------------------------------------------
                  HL-Gap            0.0058691 Eh            0.1597 eV

Wiberg/Mayer (AO) data.
largest (>0.10) Wiberg bond orders for each atom

     #   Z sym  total        # sym  WBO       # sym  WBO       # sym  WBO
 ---------------------------------------------------------------------------
     1   6 C    3.881 --    28 H    0.986    27 H    0.980    26 H    0.979
                             2 O    0.907
     2   8 O    2.187 --     3 C    1.098     1 C    0.907     4 O    0.127
     3   6 C    3.840 --     4 O    1.619     2 O    1.098     5 C    1.038
     4   8 O    1.879 --     3 C    1.619     2 O    0.127
     5   6 C    3.836 --     6 N    1.283    24 C    1.181     3 C    1.038
     6   7 N    3.007 --     7 C    1.485     5 C    1.283
     7   6 C    3.880 --     6 N    1.485    21 N    1.169     8 C    0.988
     8   6 C    3.925 --    10 C    0.997     7 C    0.988     9 C    0.979
                            11 N    0.892
     9   6 C    3.980 --    29 H    0.983    30 H    0.983    31 H    0.981
                             8 C    0.979
    10   6 C    3.990 --     8 C    0.997    32 H    0.981    34 H    0.981
                            33 H    0.981
    11   7 N    3.366 --    12 C    1.328     8 C    0.892    35 H    0.887
                            13 O    0.171
    12   6 C    3.888 --    13 O    1.628    11 N    1.328    14 C    0.802
    13   8 O    1.996 --    12 C    1.628    11 N    0.171
    14   6 C    3.852 --    16 N    1.066    15 C    0.939    20 O    0.910
                            12 C    0.802
    15   6 C    3.944 --    37 H    0.982    36 H    0.980    38 H    0.979
                            14 C    0.939
    16   7 N    2.823 --    17 N    1.448    14 C    1.066
    17   7 N    2.973 --    16 N    1.448    18 C    1.370
    18   6 C    3.699 --    17 N    1.370    20 O    1.151    19 C    1.052
    19   6 C    3.974 --    18 C    1.052    39 H    0.980    40 H    0.947
                            41 H    0.943
    20   8 O    2.241 --    18 C    1.151    14 C    0.910
    21   7 N    3.433 --     7 C    1.169    22 C    1.123    42 H    0.884
                            23 O    0.120
    22   6 C    3.850 --    23 O    1.633    21 N    1.123    24 C    0.953
    23   8 O    1.868 --    22 C    1.633    21 N    0.120
    24   6 C    3.881 --    25 O    1.595     5 C    1.181    22 C    0.953
    25   8 O    1.795 --    24 C    1.595
    26   1 H    1.009 --     1 C    0.979
    27   1 H    1.009 --     1 C    0.980
    28   1 H    1.012 --     1 C    0.986
    29   1 H    0.998 --     9 C    0.983
    30   1 H    0.996 --     9 C    0.983
    31   1 H    1.010 --     9 C    0.981
    32   1 H    0.997 --    10 C    0.981
    33   1 H    0.996 --    10 C    0.981
    34   1 H    0.998 --    10 C    0.981
    35   1 H    0.932 --    11 N    0.887
    36   1 H    0.994 --    15 C    0.980
    37   1 H    0.995 --    15 C    0.982
    38   1 H    1.001 --    15 C    0.979
    39   1 H    0.995 --    19 C    0.980
    40   1 H    0.982 --    19 C    0.947
    41   1 H    0.981 --    19 C    0.943
    42   1 H    0.935 --    21 N    0.884
 ---------------------------------------------------------------------------

           -------------------------------------------------
          | TOTAL ENERGY              -82.953827540844 Eh   |
          | GRADIENT NORM               0.000815000318 Eh/α |
          | HOMO-LUMO GAP               0.159706610997 eV   |
           -------------------------------------------------

 * finished run on 2023/06/21 at 17:44:39.197
