   * xtb version 6.5.1 (579679a) compiled by 'ehlert@majestix' on 2022-07-11
          program call               : /lustre/hpc/kemi/ree/PhD/git/ReactivityQM/dep/xtb-6.5.1/bin/xtb --gfn 1 /lustre/hpc/kemi/ree/PhD/git/ReactivityQM/calculations/RaltegravirCLI/reac02prodE09/conf08/RaltegravirCLI_reac02prodE09_conf08_gfn1.xyz --opt --vfukui --chrg -1 --uhf 0 --alpb DMSO

   ID    Z sym.   atoms
    1    6 C      1, 3-6, 9, 10, 13-18, 20-22, 24
    2    7 N      2, 7, 8, 12
    3    8 O      11, 23, 25
    4    9 F      19
    5    1 H      26-47

      * Solvation model:               ALPB
        Solvent                        DMSO
        Solvent mass                       7.8130E+01 g/mol
          :  Hamiltonian                  GFN1-xTB          :
 * total energy  :   -80.1920262 Eh     change       -0.1138289E-10 Eh
 * total energy  :   -80.2009980 Eh     change       -0.8971861E-02 Eh
 * total energy  :   -80.2048483 Eh     change       -0.3850269E-02 Eh
 * total energy  :   -80.2060498 Eh     change       -0.1201474E-02 Eh
 * total energy  :   -80.2074029 Eh     change       -0.1353155E-02 Eh
 * total energy  :   -80.2087979 Eh     change       -0.1394987E-02 Eh
 * total energy  :   -80.2114523 Eh     change       -0.2654411E-02 Eh
 * total energy  :   -80.2147990 Eh     change       -0.3346608E-02 Eh
 * total energy  :   -80.2159277 Eh     change       -0.1128795E-02 Eh
 * total energy  :   -80.2195749 Eh     change       -0.3647149E-02 Eh
 * total energy  :   -80.2353508 Eh     change       -0.4749993E-04 Eh
 * total energy  :   -80.2353758 Eh     change       -0.2498716E-04 Eh
 * total energy  :   -80.2353919 Eh     change       -0.1617525E-04 Eh
 * total energy  :   -80.2354082 Eh     change       -0.1622031E-04 Eh
 * total energy  :   -80.2354214 Eh     change       -0.1322959E-04 Eh
 * total energy  :   -80.2354324 Eh     change       -0.1103599E-04 Eh
 * total energy  :   -80.2354376 Eh     change       -0.5153583E-05 Eh
 * total energy  :   -80.2354376 Eh     change       -0.1153612E-07 Eh
 * total energy  :   -80.2354417 Eh     change       -0.4145644E-05 Eh
   *** GEOMETRY OPTIMIZATION CONVERGED AFTER 70 ITERATIONS ***

 final structure:
================
47
 xtb: 6.5.1 (579679a)
C           -4.48134923024826        2.49454761501000        1.06996722035329
N           -3.24854262017798        2.11186150478082        0.37716159433154
C           -2.74836354836481        0.83637289450163        0.40636777333820
C           -3.44148066520664       -0.29958685859341        1.15057800417647
C           -4.56393289891551       -0.85762159342448        0.26264654452650
C           -2.42247596221056       -1.41728111931592        1.42980224480370
N           -4.00562083992591        0.16998034835438        2.41148449848407
N           -1.67356543080900        0.51115394723667       -0.24520524133807
C           -1.00088257382578        1.44374613863637       -0.98108664864825
C            0.20252332696407        0.99729181975215       -1.72582012980772
O            0.85809158330587        1.77817325821934       -2.42623985905195
N            0.50909601887878       -0.29708362929156       -1.58136169642213
C            1.63108409546430       -0.90899185599300       -2.27758494524863
C            2.85788035232157       -1.04025707833833       -1.39853876297822
C            3.19905017798831       -0.05240602236123       -0.47871179114922
C            4.34667260248792       -0.17315587049612        0.28988921509202
C            5.18775849209858       -1.27802389526484        0.15510960283307
C            6.41442817812027       -1.41625562874363        1.00415064231059
F            5.69194105118624       -2.80977507883897        3.60311649550505
C            4.84282854500166       -2.26195907967929       -0.77084310144262
C            3.69203134284578       -2.14628031638298       -1.53709015088882
C           -1.41794785400060        2.74724448540671       -1.02976502631125
O           -0.78489872786560        3.69704055972563       -1.73132210045456
C           -2.60791048696106        3.15511504805622       -0.29546752782454
O           -3.04831709589552        4.29832449247491       -0.25766601626113
H           -4.27654686551227        2.66134783572292        2.12642584482665
H           -4.85498829752597        3.41471144101683        0.62047123025794
H           -5.22739266788528        1.71411322247480        0.96931792845191
H           -5.01393859531976       -1.72356700445119        0.74587348885513
H           -4.15540814512346       -1.16446776536802       -0.69931321074692
H           -5.34074741865537       -0.11455703792799        0.09230046491010
H           -2.05093980653037       -1.83448954624259        0.49544632445455
H           -1.58128531398441       -1.02581893458049        2.00016443440872
H           -2.90406568227159       -2.20609006437748        2.00505951559269
H           -3.26543325766825        0.29176846737568        3.09106254788506
H           -4.63679143160783       -0.53138026916561        2.77069292918186
H           -0.09080962868320       -0.87436340250849       -1.01120707923462
H            1.86349474564465       -0.27767440814496       -3.14404783942299
H            1.31522215919833       -1.89071281767421       -2.64067139342208
H            2.56370438492690        0.81872996930772       -0.36221444681226
H            4.59467747676146        0.61069020137684        0.99915966566100
H            7.17335499602768       -2.01416474419753        0.50006864441548
H            6.15398493626015       -1.91975952917518        1.95016697848525
H            6.83314125987466       -0.43961906405285        1.24664496420757
H            5.48179204319610       -3.12936410217502       -0.90237603573844
H            3.44385029693514       -2.92053983076145       -2.25481662934945
H           -0.01297202039570        3.27303129805318       -2.19311016470815

          :  Hamiltonian                  GFN1-xTB          :
         :: total energy             -80.235441728727 Eh    ::
         :: gradient norm              0.000546223557 Eh/a0 ::
         :: HOMO-LUMO gap              0.642382004427 eV    ::
         :: SCC energy               -81.125565171095 Eh    ::
         :: -> Gsolv                  -0.153555444501 Eh    ::
         :: repulsion energy           0.919633932882 Eh    ::

    * Orbital Energies and Occupations

         #    Occupation            Energy/Eh            Energy/eV
      -------------------------------------------------------------
         1        2.0000           -0.8204162             -22.3247
       ...           ...                  ...                  ...
        56        2.0000           -0.4621652             -12.5762
        57        2.0000           -0.4585872             -12.4788
        58        2.0000           -0.4503183             -12.2538
        59        2.0000           -0.4485646             -12.2061
        60        2.0000           -0.4347098             -11.8291
        61        2.0000           -0.4279129             -11.6441
        62        2.0000           -0.4245042             -11.5513
        63        2.0000           -0.4143993             -11.2764
        64        2.0000           -0.4111735             -11.1886
        65        2.0000           -0.4084783             -11.1153
        66        2.0000           -0.3316787              -9.0254
        67        2.0000           -0.3316759              -9.0254
        68        2.0000           -0.3311282              -9.0105 (HOMO)
        69        0.0000           -0.3075211              -8.3681 (LUMO)
        70                         -0.2720862              -7.4038
        71                         -0.2462116              -6.6998
        72                         -0.2432690              -6.6197
        73                         -0.2242515              -6.1022
        74                         -0.1443443              -3.9278
        75                         -0.1300710              -3.5394
        76                         -0.1233947              -3.3577
        77                         -0.1224019              -3.3307
        78                         -0.1185979              -3.2272
        79                         -0.1149201              -3.1271
       ...                                ...                  ...
       144                          0.7142597              19.4360
      -------------------------------------------------------------
                  HL-Gap            0.0236071 Eh            0.6424 eV

Wiberg/Mayer (AO) data.
largest (>0.10) Wiberg bond orders for each atom

     #   Z sym  total        # sym  WBO       # sym  WBO       # sym  WBO
 ---------------------------------------------------------------------------
     1   6 C    3.925 --    28 H    0.978    26 H    0.976    27 H    0.976
                             2 N    0.931
     2   7 N    3.507 --     3 C    1.183    24 C    1.110     1 C    0.931
                            25 O    0.134
     3   6 C    3.923 --     8 N    1.551     2 N    1.183     4 C    0.976
     4   6 C    3.966 --     6 C    0.989     7 N    0.985     5 C    0.982
                             3 C    0.976
     5   6 C    3.993 --    30 H    0.985    29 H    0.983     4 C    0.982
                            31 H    0.979
     6   6 C    3.994 --     4 C    0.989    34 H    0.985    33 H    0.985
                            32 H    0.983
     7   7 N    2.977 --     4 C    0.985    35 H    0.941    36 H    0.939
     8   7 N    3.044 --     3 C    1.551     9 C    1.192
     9   6 C    3.963 --    22 C    1.483     8 N    1.192    10 C    1.016
    10   6 C    3.907 --    11 O    1.508    12 N    1.296     9 C    1.016
    11   8 O    1.901 --    10 C    1.508    12 N    0.166
    12   7 N    3.377 --    10 C    1.296    13 C    0.941    37 H    0.896
                            11 O    0.166
    13   6 C    3.941 --    14 C    0.992    39 H    0.975    38 H    0.962
                            12 N    0.941
    14   6 C    3.983 --    21 C    1.414    15 C    1.412    13 C    0.992
                            17 C    0.105
    15   6 C    3.995 --    16 C    1.454    14 C    1.412    40 H    0.972
                            20 C    0.107
    16   6 C    3.995 --    15 C    1.454    17 C    1.403    41 H    0.973
                            21 C    0.107
    17   6 C    3.986 --    20 C    1.405    16 C    1.403    18 C    1.033
                            14 C    0.105
    18   6 C    3.988 --    17 C    1.033    42 H    0.984    44 H    0.983
                            43 H    0.925
    19   9 F    0.102
    20   6 C    3.994 --    21 C    1.450    17 C    1.405    45 H    0.973
                            15 C    0.107
    21   6 C    3.995 --    20 C    1.450    14 C    1.414    46 H    0.972
                            16 C    0.107
    22   6 C    3.923 --     9 C    1.483    23 O    1.110    24 C    1.082
    23   8 O    2.068 --    22 C    1.110    47 H    0.766
    24   6 C    3.913 --    25 O    1.566     2 N    1.110    22 C    1.082
    25   8 O    1.883 --    24 C    1.566     2 N    0.134
    26   1 H    1.018 --     1 C    0.976
    27   1 H    1.011 --     1 C    0.976
    28   1 H    1.023 --     1 C    0.978
    29   1 H    1.000 --     5 C    0.983
    30   1 H    1.004 --     5 C    0.985
    31   1 H    1.004 --     5 C    0.979
    32   1 H    1.014 --     6 C    0.983
    33   1 H    1.007 --     6 C    0.985
    34   1 H    1.003 --     6 C    0.985
    35   1 H    0.957 --     7 N    0.941
    36   1 H    0.954 --     7 N    0.939
    37   1 H    0.960 --    12 N    0.896
    38   1 H    1.012 --    13 C    0.962
    39   1 H    1.004 --    13 C    0.975
    40   1 H    1.005 --    15 C    0.972
    41   1 H    1.003 --    16 C    0.973
    42   1 H    1.006 --    18 C    0.984
    43   1 H    1.038 --    18 C    0.925
    44   1 H    1.006 --    18 C    0.983
    45   1 H    1.003 --    20 C    0.973
    46   1 H    1.001 --    21 C    0.972
    47   1 H    0.861 --    23 O    0.766
 ---------------------------------------------------------------------------

           -------------------------------------------------
          | TOTAL ENERGY              -80.235441728727 Eh   |
          | GRADIENT NORM               0.000546223557 Eh/α |
          | HOMO-LUMO GAP               0.642382004427 eV   |
           -------------------------------------------------

 * finished run on 2023/06/20 at 15:10:11.672
