                         Program Version 5.0.1 -  RELEASE  -
|  1> # ORCA input file
|  2> ! SP r2SCAN-3c CPCM
|  3>
|  4> %maxcore 1875.0
|  5> %pal nprocs 4 end
|  6> %cpcm smd true SMDsolvent "DMSO" end
|  7>
|  8> *xyz -1 1
|  9> C       4.518410   -1.313395   -1.773142
| 10> O       3.508133   -1.153420   -0.785006
| 11> C       2.384446   -0.524870   -1.178721
| 12> O       2.256905   -0.134129   -2.325447
| 13> C       1.351425   -0.369467   -0.117032
| 14> C       1.533404   -0.782276    1.205833
| 15> O       2.746220   -1.269933    1.705314
| 16> C       0.429603   -0.816269    2.103184
| 17> O       0.489630   -1.269965    3.265148
| 18> N      -0.777472   -0.413952    1.556652
| 19> C      -0.775372    0.514723    0.427680
| 20> C      -0.481485    1.945085    0.951423
| 21> C      -2.177723    0.411388   -0.244748
| 22> C      -2.357662   -1.017029   -0.772764
| 23> C      -2.306327    1.408289   -1.406033
| 24> N      -3.205586    0.652975    0.771293
| 25> N       0.224105    0.178387   -0.563154
| 26> H       4.866118   -0.338323   -2.127257
| 27> H       5.340954   -1.852686   -1.305828
| 28> H       4.136345   -1.883818   -2.625629
| 29> H       2.574141   -1.503443    2.632258
| 30> H      -1.522158   -0.240724    2.218063
| 31> H      -0.410295    2.642029    0.118839
| 32> H      -1.260094    2.277576    1.634331
| 33> H       0.469711    1.942715    1.484056
| 34> H      -1.574467   -1.243608   -1.498165
| 35> H      -2.292146   -1.730736    0.049869
| 36> H      -3.328446   -1.126237   -1.255313
| 37> H      -3.208328    1.200802   -1.981042
| 38> H      -1.438067    1.321474   -2.061864
| 39> H      -2.370255    2.430279   -1.035123
| 40> H      -3.229552    1.636552    1.008103
| 41> H      -4.114113    0.422006    0.393570
| 42> **                         ****END OF INPUT****

CARTESIAN COORDINATES (ANGSTROEM)
---------------------------------
  C      4.518410   -1.313395   -1.773142
  O      3.508133   -1.153420   -0.785006
  C      2.384446   -0.524870   -1.178721
  O      2.256905   -0.134129   -2.325447
  C      1.351425   -0.369467   -0.117032
  C      1.533404   -0.782276    1.205833
  O      2.746220   -1.269933    1.705314
  C      0.429603   -0.816269    2.103184
  O      0.489630   -1.269965    3.265148
  N     -0.777472   -0.413952    1.556652
  C     -0.775372    0.514723    0.427680
  C     -0.481485    1.945085    0.951423
  C     -2.177723    0.411388   -0.244748
  C     -2.357662   -1.017029   -0.772764
  C     -2.306327    1.408289   -1.406033
  N     -3.205586    0.652975    0.771293
  N      0.224105    0.178387   -0.563154
  H      4.866118   -0.338323   -2.127257
  H      5.340954   -1.852686   -1.305828
  H      4.136345   -1.883818   -2.625629
  H      2.574141   -1.503443    2.632258
  H     -1.522158   -0.240724    2.218063
  H     -0.410295    2.642029    0.118839
  H     -1.260094    2.277576    1.634331
  H      0.469711    1.942715    1.484056
  H     -1.574467   -1.243608   -1.498165
  H     -2.292146   -1.730736    0.049869
  H     -3.328446   -1.126237   -1.255313
  H     -3.208328    1.200802   -1.981042
  H     -1.438067    1.321474   -2.061864
  H     -2.370255    2.430279   -1.035123
  H     -3.229552    1.636552    1.008103
  H     -4.114113    0.422006    0.393570

 Total Charge           Charge          ....   -1
 Multiplicity           Mult            ....    1
 Number of Electrons    NEL             ....  130
 Basis Dimension        Dim             ....  438

ORBITAL ENERGIES
----------------

  NO   OCC          E(Eh)            E(eV)
   0   2.0000     -18.980554      -516.4871
   1   2.0000     -18.936931      -515.3001
   2   2.0000     -18.915923      -514.7284
   3   2.0000     -18.885809      -513.9090
   4   2.0000     -14.138849      -384.7376
   5   2.0000     -14.123812      -384.3285
   6   2.0000     -14.090709      -383.4277
   7   2.0000     -10.136884      -275.8386
   8   2.0000     -10.088092      -274.5109
   9   2.0000     -10.072398      -274.0839
  10   2.0000     -10.066257      -273.9168
  11   2.0000     -10.049321      -273.4559
  12   2.0000     -10.047086      -273.3951
  13   2.0000     -10.038283      -273.1556
  14   2.0000      -9.998462      -272.0720
  15   2.0000      -9.998334      -272.0685
  16   2.0000      -9.998103      -272.0622
  17   2.0000      -1.053891       -28.6778
  18   2.0000      -0.983090       -26.7512
  19   2.0000      -0.959350       -26.1052
  20   2.0000      -0.949069       -25.8255
  21   2.0000      -0.890706       -24.2373
  22   2.0000      -0.840393       -22.8683
  23   2.0000      -0.806927       -21.9576
  24   2.0000      -0.727297       -19.7908
  25   2.0000      -0.692386       -18.8408
  26   2.0000      -0.677993       -18.4491
  27   2.0000      -0.651558       -17.7298
  28   2.0000      -0.632601       -17.2140
  29   2.0000      -0.599999       -16.3268
  30   2.0000      -0.576129       -15.6773
  31   2.0000      -0.518395       -14.1062
  32   2.0000      -0.506416       -13.7803
  33   2.0000      -0.481078       -13.0908
  34   2.0000      -0.462803       -12.5935
  35   2.0000      -0.458728       -12.4826
  36   2.0000      -0.445638       -12.1264
  37   2.0000      -0.434310       -11.8182
  38   2.0000      -0.420447       -11.4409
  39   2.0000      -0.416656       -11.3378
  40   2.0000      -0.406092       -11.0503
  41   2.0000      -0.398206       -10.8357
  42   2.0000      -0.382724       -10.4145
  43   2.0000      -0.370170       -10.0728
  44   2.0000      -0.363681        -9.8963
  45   2.0000      -0.359577        -9.7846
  46   2.0000      -0.350492        -9.5374
  47   2.0000      -0.347401        -9.4533
  48   2.0000      -0.338202        -9.2030
  49   2.0000      -0.334700        -9.1076
  50   2.0000      -0.327094        -8.9007
  51   2.0000      -0.320097        -8.7103
  52   2.0000      -0.319201        -8.6859
  53   2.0000      -0.294571        -8.0157
  54   2.0000      -0.293210        -7.9787
  55   2.0000      -0.289166        -7.8686
  56   2.0000      -0.280975        -7.6457
  57   2.0000      -0.258509        -7.0344
  58   2.0000      -0.241343        -6.5673
  59   2.0000      -0.229126        -6.2348
  60   2.0000      -0.210103        -5.7172
  61   2.0000      -0.206705        -5.6247
  62   2.0000      -0.201392        -5.4802
  63   2.0000      -0.188521        -5.1299
  64   2.0000      -0.115145        -3.1332
  65   0.0000      -0.050125        -1.3640
  66   0.0000       0.045485         1.2377
  67   0.0000       0.067792         1.8447
  68   0.0000       0.086954         2.3661
  69   0.0000       0.093301         2.5388

MULLIKEN ATOMIC CHARGES
-----------------------
   0 C :   -0.326803
   1 O :   -0.152615
   2 C :    0.096424
   3 O :   -0.410355
   4 C :    0.218279
   5 C :   -0.128041
   6 O :   -0.398233
   7 C :   -0.005358
   8 O :   -0.488247
   9 N :   -0.117589
  10 C :   -0.007540
  11 C :   -0.632220
  12 C :    0.440612
  13 C :   -0.714413
  14 C :   -0.623154
  15 N :   -0.717198
  16 N :   -0.243478
  17 H :    0.167869
  18 H :    0.168228
  19 H :    0.168041
  20 H :    0.317730
  21 H :    0.272963
  22 H :    0.177795
  23 H :    0.169809
  24 H :    0.170567
  25 H :    0.184179
  26 H :    0.176812
  27 H :    0.165870
  28 H :    0.165415
  29 H :    0.182587
  30 H :    0.164938
  31 H :    0.277525
  32 H :    0.279604
Sum of atomic charges:   -1.0000000

LOEWDIN ATOMIC CHARGES
----------------------
   0 C :   -0.048465
   1 O :   -0.587651
   2 C :    0.403653
   3 O :   -0.444158
   4 C :    0.178053
   5 C :    0.135733
   6 O :   -0.546448
   7 C :    0.321049
   8 O :   -0.572209
   9 N :   -0.626286
  10 C :    0.222929
  11 C :   -0.358800
  12 C :    0.048952
  13 C :   -0.375642
  14 C :   -0.392438
  15 N :   -0.711023
  16 N :   -0.731265
  17 H :    0.177046
  18 H :    0.179982
  19 H :    0.177416
  20 H :    0.287399
  21 H :    0.282795
  22 H :    0.164551
  23 H :    0.160977
  24 H :    0.166516
  25 H :    0.172869
  26 H :    0.169994
  27 H :    0.155612
  28 H :    0.158996
  29 H :    0.169451
  30 H :    0.161104
  31 H :    0.248420
  32 H :    0.250889

  Mayer bond orders larger than 0.100000
B(  0-C ,  1-O ) :   0.8429 B(  0-C , 17-H ) :   0.9584 B(  0-C , 18-H ) :   0.9676
B(  0-C , 19-H ) :   0.9591 B(  1-O ,  2-C ) :   1.1335 B(  2-C ,  3-O ) :   1.9183
B(  2-C ,  4-C ) :   1.0250 B(  2-C , 16-N ) :   0.1633 B(  4-C ,  5-C ) :   1.1817
B(  4-C , 16-N ) :   1.2344 B(  5-C ,  6-O ) :   1.0037 B(  5-C ,  7-C ) :   1.0586
B(  5-C ,  8-O ) :  -0.1103 B(  5-C ,  9-N ) :  -0.1212 B(  5-C , 16-N ) :   0.1351
B(  6-O , 20-H ) :   0.8427 B(  7-C ,  8-O ) :   2.0119 B(  7-C ,  9-N ) :   1.1448
B(  9-N , 10-C ) :   0.7734 B(  9-N , 21-H ) :   0.8764 B( 10-C , 11-C ) :   0.9506
B( 10-C , 12-C ) :   0.8606 B( 10-C , 13-C ) :  -0.1169 B( 10-C , 16-N ) :   0.7389
B( 11-C , 22-H ) :   0.9747 B( 11-C , 23-H ) :   0.9772 B( 11-C , 24-H ) :   0.9623
B( 12-C , 13-C ) :   0.9006 B( 12-C , 14-C ) :   0.9094 B( 12-C , 15-N ) :   0.8434
B( 13-C , 25-H ) :   0.9811 B( 13-C , 26-H ) :   0.9852 B( 13-C , 27-H ) :   0.9734
B( 14-C , 28-H ) :   0.9717 B( 14-C , 29-H ) :   0.9853 B( 14-C , 30-H ) :   0.9693
B( 15-N , 31-H ) :   0.9114 B( 15-N , 32-H ) :   0.9116

Dispersion correction           -0.014218288
FINAL SINGLE POINT ENERGY      -855.834277020916

DIPOLE MOMENT
-------------
                                X             Y             Z
Electronic contribution:     12.58781      -6.21451       5.59837
Nuclear contribution   :    -13.60496       7.26303      -6.56276
                        -----------------------------------------
Total Dipole Moment    :     -1.01715       1.04852      -0.96439
                        -----------------------------------------
Magnitude (a.u.)       :      1.75044
Magnitude (Debye)      :      4.44927

Rotational constants in cm-1:     0.024400     0.011571     0.008881
Rotational constants in MHz :   731.502459   346.883295   266.241676

                             ****ORCA TERMINATED NORMALLY****
TOTAL RUN TIME: 0 days 0 hours 1 minutes 30 seconds 381 msec
