   * xtb version 6.5.1 (579679a) compiled by 'ehlert@majestix' on 2022-07-11
          program call               : /lustre/hpc/kemi/ree/PhD/git/ReactivityQM/dep/xtb-6.5.1/bin/xtb --gfn 1 /lustre/hpc/kemi/ree/PhD/git/ReactivityQM/calculations/R01/reac02prodE05/conf07/R01_reac02prodE05_conf07_gfn1.xyz --opt --vfukui --chrg -1 --uhf 0 --alpb DMSO

   ID    Z sym.   atoms
    1    6 C      1, 3, 5, 6, 8, 11-15
    2    8 O      2, 4, 7, 9
    3    7 N      10, 16, 17
    4    1 H      18-33

      * Solvation model:               ALPB
        Solvent                        DMSO
        Solvent mass                       7.8130E+01 g/mol
          :  Hamiltonian                  GFN1-xTB          :
 * total energy  :   -58.5519947 Eh     change       -0.6814105E-11 Eh
 * total energy  :   -58.5596913 Eh     change       -0.7696556E-02 Eh
 * total energy  :   -58.5616142 Eh     change       -0.1922925E-02 Eh
 * total energy  :   -58.5619118 Eh     change       -0.2976526E-03 Eh
 * total energy  :   -58.5621405 Eh     change       -0.2286415E-03 Eh
 * total energy  :   -58.5622279 Eh     change       -0.8738625E-04 Eh
 * total energy  :   -58.5623041 Eh     change       -0.7626829E-04 Eh
 * total energy  :   -58.5623463 Eh     change       -0.4214676E-04 Eh
 * total energy  :   -58.5623794 Eh     change       -0.3311751E-04 Eh
 * total energy  :   -58.5624109 Eh     change       -0.3147378E-04 Eh
 * total energy  :   -58.5626876 Eh     change       -0.8949802E-05 Eh
 * total energy  :   -58.5627046 Eh     change       -0.1699188E-04 Eh
 * total energy  :   -58.5627186 Eh     change       -0.1402579E-04 Eh
 * total energy  :   -58.5627332 Eh     change       -0.1456504E-04 Eh
 * total energy  :   -58.5627470 Eh     change       -0.1377876E-04 Eh
 * total energy  :   -58.5627594 Eh     change       -0.1238953E-04 Eh
 * total energy  :   -58.5627680 Eh     change       -0.8682526E-05 Eh
 * total energy  :   -58.5627710 Eh     change       -0.2993870E-05 Eh
 * total energy  :   -58.5627751 Eh     change       -0.4020217E-05 Eh
   *** GEOMETRY OPTIMIZATION CONVERGED AFTER 38 ITERATIONS ***

 final structure:
================
33
 xtb: 6.5.1 (579679a)
C            4.51841000372388       -1.31339462247314       -1.77314247887892
O            3.50813256659160       -1.15341964453308       -0.78500595315696
C            2.38444559671584       -0.52486963157489       -1.17872088884631
O            2.25690457681768       -0.13412896502477       -2.32544661749176
C            1.35142479796153       -0.36946682376324       -0.11703237207184
C            1.53340372198138       -0.78227639869710        1.20583283043728
O            2.74622039050930       -1.26993287196395        1.70531389489058
C            0.42960317271663       -0.81626872015424        2.10318380741703
O            0.48963036511342       -1.26996475389447        3.26514783433770
N           -0.77747228839653       -0.41395236844779        1.55665214191202
C           -0.77537214751387        0.51472261064338        0.42768045161623
C           -0.48148491126119        1.94508451990739        0.95142283307046
C           -2.17772275046375        0.41138822557754       -0.24474756579449
C           -2.35766152715887       -1.01702945215939       -0.77276443228723
C           -2.30632657985983        1.40828919461973       -1.40603255716514
N           -3.20558635708412        0.65297499133755        0.77129267512383
N            0.22410517028083        0.17838670386281       -0.56315375947308
H            4.86611767431061       -0.33832263500524       -2.12725726384542
H            5.34095422056902       -1.85268574459516       -1.30582816188184
H            4.13634472498125       -1.88381840387131       -2.62562856195922
H            2.57414113054815       -1.50344344001361        2.63225764635634
H           -1.52215849712719       -0.24072426736530        2.21806285863357
H           -0.41029520133686        2.64202868952726        0.11883925341574
H           -1.26009447248998        2.27757606265793        1.63433106786710
H            0.46971110439690        1.94271457500606        1.48405590705414
H           -1.57446691904784       -1.24360805982758       -1.49816503124218
H           -2.29214594282389       -1.73073633079033        0.04986903867293
H           -3.32844594263792       -1.12623652752029       -1.25531326586087
H           -3.20832784012475        1.20080174362924       -1.98104203421002
H           -1.43806730294135        1.32147354505392       -2.06186426431866
H           -2.37025490549424        2.43027850075942       -1.03512266806798
H           -3.22955225735189        1.63655203227827        1.00810322533484
H           -4.11411337410417        0.42200626681499        0.39357041041318

          :  Hamiltonian                  GFN1-xTB          :
         :: total energy             -58.562775055335 Eh    ::
         :: gradient norm              0.000649850750 Eh/a0 ::
         :: HOMO-LUMO gap              1.364468363821 eV    ::
         :: SCC energy               -59.098123832528 Eh    ::
         :: -> Gsolv                  -0.104624006458 Eh    ::
         :: repulsion energy           0.555216603471 Eh    ::

    * Orbital Energies and Occupations

         #    Occupation            Energy/Eh            Energy/eV
      -------------------------------------------------------------
         1        2.0000           -0.8078839             -21.9836
       ...           ...                  ...                  ...
        36        2.0000           -0.4796128             -13.0509
        37        2.0000           -0.4751645             -12.9299
        38        2.0000           -0.4731725             -12.8757
        39        2.0000           -0.4710827             -12.8188
        40        2.0000           -0.4545414             -12.3687
        41        2.0000           -0.4467798             -12.1575
        42        2.0000           -0.4376316             -11.9086
        43        2.0000           -0.4217004             -11.4751
        44        2.0000           -0.3999820             -10.8841
        45        2.0000           -0.3915712             -10.6552
        46        2.0000           -0.3866780             -10.5220
        47        2.0000           -0.3718604             -10.1188
        48        2.0000           -0.3150441              -8.5728 (HOMO)
        49                         -0.2649008              -7.2083 (LUMO)
        50                         -0.1862157              -5.0672
        51                         -0.1266074              -3.4452
        52                         -0.1125546              -3.0628
        53                         -0.1034883              -2.8161
        54                         -0.1009555              -2.7471
        55                         -0.0923708              -2.5135
        56                         -0.0832235              -2.2646
        57                         -0.0639934              -1.7414
        58                         -0.0636332              -1.7315
        59                         -0.0581848              -1.5833
       ...                                ...                  ...
       100                          0.7361857              20.0326
      -------------------------------------------------------------
                  HL-Gap            0.0501433 Eh            1.3645 eV

Wiberg/Mayer (AO) data.
largest (>0.10) Wiberg bond orders for each atom

     #   Z sym  total        # sym  WBO       # sym  WBO       # sym  WBO
 ---------------------------------------------------------------------------
     1   6 C    3.894 --    19 H    0.987    18 H    0.980    20 H    0.980
                             2 O    0.919
     2   8 O    2.183 --     3 C    1.079     1 C    0.919     4 O    0.121
     3   6 C    3.820 --     4 O    1.633     2 O    1.079     5 C    1.011
     4   8 O    1.888 --     3 C    1.633     2 O    0.121
     5   6 C    3.971 --    17 N    1.416     6 C    1.331     3 C    1.011
     6   6 C    3.865 --     5 C    1.331     8 C    1.196     7 O    0.973
                            17 N    0.182
     7   8 O    1.947 --     6 C    0.973    21 H    0.850
     8   6 C    3.920 --     9 O    1.457     6 C    1.196    10 N    1.112
     9   8 O    1.786 --     8 C    1.457    10 N    0.105
    10   7 N    3.224 --     8 C    1.112    11 C    0.935    22 H    0.915
                             9 O    0.105
    11   6 C    3.941 --    17 N    1.002    12 C    0.970    13 C    0.954
                            10 N    0.935
    12   6 C    3.995 --    25 H    0.985    24 H    0.984    23 H    0.984
                            11 C    0.970
    13   6 C    3.961 --    14 C    1.001    15 C    0.993    16 N    0.979
                            11 C    0.954
    14   6 C    3.997 --    13 C    1.001    28 H    0.987    27 H    0.984
                            26 H    0.983
    15   6 C    3.996 --    13 C    0.993    29 H    0.986    31 H    0.984
                            30 H    0.982
    16   7 N    2.968 --    13 C    0.979    32 H    0.949    33 H    0.948
    17   7 N    2.924 --     5 C    1.416    11 C    1.002     6 C    0.182
    18   1 H    1.012 --     1 C    0.980
    19   1 H    1.015 --     1 C    0.987
    20   1 H    1.013 --     1 C    0.980
    21   1 H    0.893 --     7 O    0.850
    22   1 H    0.978 --    10 N    0.915
    23   1 H    1.013 --    12 C    0.984
    24   1 H    1.005 --    12 C    0.984
    25   1 H    1.009 --    12 C    0.985
    26   1 H    1.022 --    14 C    0.983
    27   1 H    1.019 --    14 C    0.984
    28   1 H    1.005 --    14 C    0.987
    29   1 H    1.007 --    15 C    0.986
    30   1 H    1.021 --    15 C    0.982
    31   1 H    1.008 --    15 C    0.984
    32   1 H    0.969 --    16 N    0.949
    33   1 H    0.965 --    16 N    0.948
 ---------------------------------------------------------------------------

           -------------------------------------------------
          | TOTAL ENERGY              -58.562775055335 Eh   |
          | GRADIENT NORM               0.000649850750 Eh/α |
          | HOMO-LUMO GAP               1.364468363821 eV   |
           -------------------------------------------------

 * finished run on 2023/06/20 at 15:00:29.791
