   * xtb version 6.5.1 (579679a) compiled by 'ehlert@majestix' on 2022-07-11
          program call               : /lustre/hpc/kemi/ree/PhD/git/ReactivityQM/dep/xtb-6.5.1/bin/xtb --gfn 1 /lustre/hpc/kemi/ree/PhD/git/ReactivityQM/calculations/R02deprot/reac01prodE11/conf13/R02deprot_reac01prodE11_conf13_gfn1.xyz --opt --vfukui --chrg -2 --uhf 0 --alpb DMSO

   ID    Z sym.   atoms
    1    6 C      1, 3, 5, 7-10, 12, 14, 17-19, 22, 24
    2    8 O      2, 4, 13, 20, 23, 25
    3    7 N      6, 11, 15, 16, 21
    4    1 H      26-42

      * Solvation model:               ALPB
        Solvent                        DMSO
        Solvent mass                       7.8130E+01 g/mol
          :  Hamiltonian                  GFN1-xTB          :
 * total energy  :   -83.6401888 Eh     change       -0.4490630E-10 Eh
 * total energy  :   -83.6507877 Eh     change       -0.1059896E-01 Eh
 * total energy  :   -83.6536301 Eh     change       -0.2842366E-02 Eh
 * total energy  :   -83.6541001 Eh     change       -0.4699859E-03 Eh
 * total energy  :   -83.6545006 Eh     change       -0.4005465E-03 Eh
 * total energy  :   -83.6546684 Eh     change       -0.1677364E-03 Eh
 * total energy  :   -83.6548178 Eh     change       -0.1494320E-03 Eh
 * total energy  :   -83.6549048 Eh     change       -0.8700259E-04 Eh
 * total energy  :   -83.6549616 Eh     change       -0.5683604E-04 Eh
 * total energy  :   -83.6550105 Eh     change       -0.4890862E-04 Eh
 * total energy  :   -83.6558428 Eh     change       -0.1755311E-04 Eh
 * total energy  :   -83.6558577 Eh     change       -0.1488582E-04 Eh
 * total energy  :   -83.6558692 Eh     change       -0.1154096E-04 Eh
 * total energy  :   -83.6558676 Eh     change        0.1692870E-05 Eh
 * total energy  :   -83.6558763 Eh     change       -0.8703937E-05 Eh
 * total energy  :   -83.6558848 Eh     change       -0.8550446E-05 Eh
 * total energy  :   -83.6558906 Eh     change       -0.5829607E-05 Eh
 * total energy  :   -83.6558978 Eh     change       -0.7110825E-05 Eh
 * total energy  :   -83.6559013 Eh     change       -0.3580469E-05 Eh
   *** GEOMETRY OPTIMIZATION CONVERGED AFTER 53 ITERATIONS ***

 final structure:
================
42
 xtb: 6.5.1 (579679a)
C            4.26343003872988        3.87091261323868        0.27106704195449
O            3.97897988008382        2.53638749054350        0.67460606553026
C            2.98665328585350        1.91277623855153        0.01033594185227
O            2.36675598662399        2.47024627506995       -0.87543028389286
C            2.75766807276821        0.52020521444725        0.45375117906876
N            1.72088533075833       -0.11548461933350       -0.17366159572428
C            1.49110242386250       -1.37449083311323        0.13892709517726
C            0.34419998127392       -2.04205150889715       -0.61997243516939
C            0.69896843957260       -2.01274013269350       -2.11939541411127
C            0.14852075622442       -3.48367315454432       -0.13728035155576
N           -0.85468986885013       -1.25199021077871       -0.34538713884466
C           -2.06229977378397       -1.48025432297055       -0.99640636953960
O           -2.27397255017279       -2.51798889481910       -1.66467427011464
C           -3.03863223996369       -0.47383491204049       -0.78192752361329
N           -4.27905792659566       -0.45784283184895       -1.24165597534980
N           -4.92236264925111        0.60079699104666       -0.83539428601494
C           -3.99961150734633        1.38215431321881        0.00446820517694
C           -3.80485087442241        2.78326745791901       -0.60041296285685
C           -4.56266493998405        1.48596530108632        1.43386932799300
O           -2.77311344405000        0.66619665206157        0.01024675437893
N            2.16017930975056       -2.11922645025668        1.02090043318594
C            3.18833985697744       -1.55733095413043        1.69250194718877
O            3.88409640971572       -2.15130347806891        2.54606389125555
C            3.49875515081915       -0.15947642791168        1.38602141638887
O            4.54818243050049        0.35042078126855        2.07573511030392
H            4.61164766587633        3.89121286574785       -0.76591679821587
H            5.04532750059239        4.24181497703015        0.93141863314764
H            3.37141095763470        4.49846469417781        0.35850090321087
H            1.62447260352219       -2.56360135600570       -2.28638588843628
H            0.84395551430510       -0.98062462014314       -2.43969407669685
H           -0.09190734195410       -2.46696023332420       -2.71496608173114
H            1.07869622842038       -4.03888663123205       -0.25512637465147
H           -0.12547287734167       -3.48809967671676        0.91814829228791
H           -0.63405438538501       -3.97886849637516       -0.71033978836552
H           -0.66996301724928       -0.28998352151105       -0.08504762065355
H           -3.38018951661514        2.69068530670076       -1.59886250265058
H           -4.76807561875338        3.28431288827465       -0.67047828629399
H           -3.13540934358177        3.37742865344871        0.01942335548478
H           -3.87263859434855        2.03313973853514        2.07413179436144
H           -4.70729433991951        0.48527270846244        1.83867561590015
H           -5.52052207975153        2.00159417384640        1.41311360717907
H            4.86455506549388       -0.38280306795479        2.64650941342898

          :  Hamiltonian                  GFN1-xTB          :
         :: total energy             -83.655901331558 Eh    ::
         :: gradient norm              0.000761186034 Eh/a0 ::
         :: HOMO-LUMO gap              0.981067392411 eV    ::
         :: SCC energy               -84.386624951328 Eh    ::
         :: -> Gsolv                  -0.259067935635 Eh    ::
         :: repulsion energy           0.755971142391 Eh    ::

    * Orbital Energies and Occupations

         #    Occupation            Energy/Eh            Energy/eV
      -------------------------------------------------------------
         1        2.0000           -0.8090358             -22.0150
       ...           ...                  ...                  ...
        56        2.0000           -0.4418610             -12.0236
        57        2.0000           -0.4394856             -11.9590
        58        2.0000           -0.4255085             -11.5787
        59        2.0000           -0.4238052             -11.5323
        60        2.0000           -0.4102566             -11.1637
        61        2.0000           -0.4030700             -10.9681
        62        2.0000           -0.3937943             -10.7157
        63        2.0000           -0.3893492             -10.5947
        64        2.0000           -0.3781480             -10.2899
        65        2.0000           -0.3626388              -9.8679
        66        2.0000           -0.3615360              -9.8379
        67        2.0000           -0.3600446              -9.7973
        68        2.0000           -0.3049015              -8.2968 (HOMO)
        69                         -0.2688480              -7.3157 (LUMO)
        70                         -0.2264803              -6.1628
        71                         -0.2168157              -5.8999
        72                         -0.1816594              -4.9432
        73                         -0.1244725              -3.3871
        74                         -0.1155154              -3.1433
        75                         -0.1001330              -2.7248
        76                         -0.0957231              -2.6048
        77                         -0.0940081              -2.5581
        78                         -0.0900642              -2.4508
        79                         -0.0863161              -2.3488
       ...                                ...                  ...
       134                          0.7462222              20.3057
      -------------------------------------------------------------
                  HL-Gap            0.0360536 Eh            0.9811 eV

Wiberg/Mayer (AO) data.
largest (>0.10) Wiberg bond orders for each atom

     #   Z sym  total        # sym  WBO       # sym  WBO       # sym  WBO
 ---------------------------------------------------------------------------
     1   6 C    3.891 --    27 H    0.987    26 H    0.980    28 H    0.980
                             2 O    0.916
     2   8 O    2.179 --     3 C    1.076     1 C    0.916     4 O    0.122
     3   6 C    3.835 --     4 O    1.633     2 O    1.076     5 C    1.030
     4   8 O    1.894 --     3 C    1.633     2 O    0.122
     5   6 C    3.964 --    24 C    1.474     6 N    1.207     3 C    1.030
     6   7 N    2.999 --     7 C    1.461     5 C    1.207
     7   6 C    3.952 --     6 N    1.461    21 N    1.361     8 C    0.969
     8   6 C    3.954 --    10 C    0.999     9 C    0.980     7 C    0.969
                            11 N    0.944
     9   6 C    3.994 --    29 H    0.988    30 H    0.985    31 H    0.983
                             8 C    0.980
    10   6 C    3.996 --     8 C    0.999    32 H    0.987    33 H    0.986
                            34 H    0.983
    11   7 N    3.224 --    12 C    1.111     8 C    0.944    35 H    0.912
                            13 O    0.110
    12   6 C    3.925 --    13 O    1.438    14 C    1.206    11 N    1.111
    13   8 O    1.774 --    12 C    1.438    11 N    0.110
    14   6 C    3.842 --    15 N    1.418    12 C    1.206    20 O    0.920
                            16 N    0.167
    15   7 N    3.022 --    16 N    1.445    14 C    1.418
    16   7 N    2.859 --    15 N    1.445    17 C    0.983    14 C    0.167
    17   6 C    3.901 --    16 N    0.983    18 C    0.978    19 C    0.976
                            20 O    0.926
    18   6 C    3.994 --    37 H    0.988    38 H    0.987    36 H    0.985
                            17 C    0.978
    19   6 C    3.994 --    41 H    0.988    39 H    0.987    40 H    0.986
                            17 C    0.976
    20   8 O    2.051 --    17 C    0.926    14 C    0.920
    21   7 N    2.984 --     7 C    1.361    22 C    1.262    23 O    0.124
    22   6 C    3.932 --    23 O    1.452    21 N    1.262    24 C    1.080
    23   8 O    1.791 --    22 C    1.452    21 N    0.124
    24   6 C    3.904 --     5 C    1.474    22 C    1.080    25 O    1.063
    25   8 O    2.040 --    24 C    1.063    42 H    0.817
    26   1 H    1.011 --     1 C    0.980
    27   1 H    1.014 --     1 C    0.987
    28   1 H    1.012 --     1 C    0.980
    29   1 H    1.007 --     9 C    0.988
    30   1 H    1.018 --     9 C    0.985
    31   1 H    1.020 --     9 C    0.983
    32   1 H    1.019 --    10 C    0.987
    33   1 H    1.018 --    10 C    0.986
    34   1 H    1.024 --    10 C    0.983
    35   1 H    0.979 --    11 N    0.912
    36   1 H    1.016 --    18 C    0.985
    37   1 H    1.012 --    18 C    0.988
    38   1 H    1.008 --    18 C    0.987
    39   1 H    1.009 --    19 C    0.987
    40   1 H    1.016 --    19 C    0.986
    41   1 H    1.011 --    19 C    0.988
    42   1 H    0.881 --    25 O    0.817
 ---------------------------------------------------------------------------

           -------------------------------------------------
          | TOTAL ENERGY              -83.655901331558 Eh   |
          | GRADIENT NORM               0.000761186034 Eh/α |
          | HOMO-LUMO GAP               0.981067392411 eV   |
           -------------------------------------------------

 * finished run on 2023/06/20 at 17:55:07.240
