   * xtb version 6.5.1 (579679a) compiled by 'ehlert@majestix' on 2022-07-11
          program call               : /lustre/hpc/kemi/ree/PhD/git/ReactivityQM/dep/xtb-6.5.1/bin/xtb --gfn 1 /lustre/hpc/kemi/ree/PhD/git/ReactivityQM/calculations/RaltegravirCLI/reac01prodE06/conf04/RaltegravirCLI_reac01prodE06_conf04_gfn1.xyz --opt --vfukui --chrg -1 --uhf 0 --alpb DMSO

   ID    Z sym.   atoms
    1    6 C      1, 3, 5, 8, 9
    2    8 O      2, 10
    3   17 Cl     4
    4    7 N      6, 7
    5    1 H      11-16

      * Solvation model:               ALPB
        Solvent                        DMSO
        Solvent mass                       7.8130E+01 g/mol
          :  Hamiltonian                  GFN1-xTB          :
 * total energy  :   -34.1163787 Eh     change       -0.6963319E-12 Eh
 * total energy  :   -34.1225246 Eh     change       -0.6145878E-02 Eh
 * total energy  :   -34.1250804 Eh     change       -0.2555771E-02 Eh
 * total energy  :   -34.1256864 Eh     change       -0.6060495E-03 Eh
 * total energy  :   -34.1261532 Eh     change       -0.4667963E-03 Eh
 * total energy  :   -34.1263369 Eh     change       -0.1837411E-03 Eh
 * total energy  :   -34.1265152 Eh     change       -0.1783066E-03 Eh
 * total energy  :   -34.1267510 Eh     change       -0.2357725E-03 Eh
 * total energy  :   -34.1269297 Eh     change       -0.1786441E-03 Eh
 * total energy  :   -34.1270574 Eh     change       -0.1276950E-03 Eh
 * total energy  :   -34.1276380 Eh     change       -0.2011279E-04 Eh
 * total energy  :   -34.1276555 Eh     change       -0.1756179E-04 Eh
 * total energy  :   -34.1276651 Eh     change       -0.9559951E-05 Eh
 * total energy  :   -34.1276759 Eh     change       -0.1078387E-04 Eh
 * total energy  :   -34.1276848 Eh     change       -0.8935733E-05 Eh
 * total energy  :   -34.1276901 Eh     change       -0.5323743E-05 Eh
 * total energy  :   -34.1276967 Eh     change       -0.6542902E-05 Eh
 * total energy  :   -34.1276981 Eh     change       -0.1408623E-05 Eh
 * total energy  :   -34.1277021 Eh     change       -0.4010661E-05 Eh
   *** GEOMETRY OPTIMIZATION CONVERGED AFTER 32 ITERATIONS ***

 final structure:
================
16
 xtb: 6.5.1 (579679a)
C           -3.47253467699003       -0.33792010833662        0.66915586819484
O           -2.43160917464121        0.53632778205914        0.26585281553646
C           -1.32533853644918       -0.11741480045335       -0.28292460342246
Cl          -1.51902849568410       -0.42380796964490       -2.06163412669783
C           -0.06431725948100        0.28618047716703        0.13605805325011
N            0.25763927203427        0.80249554973871        1.33049467581309
N            1.63933571684247        0.77801537675293        1.39931527152268
C            2.07444468733457        0.27148485520764        0.30183065633986
C            3.48864433507232        0.03416742748449       -0.09154569627956
O            1.06971487839250       -0.07214126207646       -0.55998083596104
H           -3.94700172617862       -0.81044565562781       -0.20023077881908
H           -3.09374542863644       -1.12549627542645        1.33278686182519
H           -4.21586983506875        0.25854938529855        1.20148475995253
H            3.72697226488000        0.56779920978520       -1.01258629296348
H            3.66611629456657       -1.02840402010438       -0.26320735397326
H            4.14657768400652        0.38061102817631        0.70238572568195

          :  Hamiltonian                  GFN1-xTB          :
         :: total energy             -34.127702103188 Eh    ::
         :: gradient norm              0.000521077236 Eh/a0 ::
         :: HOMO-LUMO gap              2.900482675402 eV    ::
         :: SCC energy               -34.377594111283 Eh    ::
         :: -> Gsolv                  -0.095305737330 Eh    ::
         :: repulsion energy           0.256724827202 Eh    ::

    * Orbital Energies and Occupations

         #    Occupation            Energy/Eh            Energy/eV
      -------------------------------------------------------------
         1        2.0000           -0.8494375             -23.1144
       ...           ...                  ...                  ...
        16        2.0000           -0.5125215             -13.9464
        17        2.0000           -0.5056906             -13.7605
        18        2.0000           -0.4955336             -13.4842
        19        2.0000           -0.4773104             -12.9883
        20        2.0000           -0.4735384             -12.8856
        21        2.0000           -0.4508154             -12.2673
        22        2.0000           -0.4337694             -11.8035
        23        2.0000           -0.4302823             -11.7086
        24        2.0000           -0.4254077             -11.5759
        25        2.0000           -0.4066641             -11.0659
        26        2.0000           -0.3951871             -10.7536
        27        2.0000           -0.3815284             -10.3819
        28        2.0000           -0.3033047              -8.2533 (HOMO)
        29                         -0.1967139              -5.3529 (LUMO)
        30                         -0.1748526              -4.7580
        31                         -0.1345829              -3.6622
        32                         -0.1197135              -3.2576
        33                         -0.1078812              -2.9356
        34                         -0.0530049              -1.4423
        35                         -0.0523494              -1.4245
        36                         -0.0519503              -1.4136
        37                         -0.0503891              -1.3712
        38                          0.0136292               0.3709
        39                          0.0189233               0.5149
       ...                                ...                  ...
        57                          0.6387993              17.3826
      -------------------------------------------------------------
                  HL-Gap            0.1065908 Eh            2.9005 eV

Wiberg/Mayer (AO) data.
largest (>0.10) Wiberg bond orders for each atom

     #   Z sym  total        # sym  WBO       # sym  WBO       # sym  WBO
 ---------------------------------------------------------------------------
     1   6 C    3.929 --    13 H    0.986    12 H    0.981    11 H    0.981
                             2 O    0.950
     2   8 O    2.046 --     3 C    0.971     1 C    0.950
     3   6 C    3.489 --     5 C    1.386     2 O    0.971     4 Cl   0.834
                             6 N    0.151
     4  17 Cl   0.943 --     3 C    0.834
     5   6 C    3.865 --     3 C    1.386     6 N    1.364    10 O    0.984
     6   7 N    2.846 --     5 C    1.364     7 N    1.144     3 C    0.151
     7   7 N    2.985 --     8 C    1.677     6 N    1.144
     8   6 C    3.887 --     7 N    1.677     9 C    1.020    10 O    1.012
     9   6 C    3.996 --     8 C    1.020    16 H    0.986    14 H    0.974
                            15 H    0.974
    10   8 O    2.208 --     8 C    1.012     5 C    0.984
    11   1 H    1.024 --     1 C    0.981
    12   1 H    1.027 --     1 C    0.981
    13   1 H    1.022 --     1 C    0.986
    14   1 H    1.005 --     9 C    0.974
    15   1 H    1.005 --     9 C    0.974
    16   1 H    1.006 --     9 C    0.986
 ---------------------------------------------------------------------------

           -------------------------------------------------
          | TOTAL ENERGY              -34.127702103188 Eh   |
          | GRADIENT NORM               0.000521077236 Eh/α |
          | HOMO-LUMO GAP               2.900482675402 eV   |
           -------------------------------------------------

 * finished run on 2023/06/20 at 14:54:05.761
