   * xtb version 6.5.1 (579679a) compiled by 'ehlert@majestix' on 2022-07-11
          program call               : /lustre/hpc/kemi/ree/PhD/git/ReactivityQM/dep/xtb-6.5.1/bin/xtb --gfn 1 /lustre/hpc/kemi/ree/PhD/git/ReactivityQM/calculations/R01/reac01prodE02/conf13/R01_reac01prodE02_conf13_gfn1.xyz --opt --vfukui --chrg -1 --uhf 0 --alpb DMSO

   ID    Z sym.   atoms
    1    6 C      1, 3, 5, 6, 9, 10
    2    8 O      2, 4, 11
    3    7 N      7, 8
    4    1 H      12-20

      * Solvation model:               ALPB
        Solvent                        DMSO
        Solvent mass                       7.8130E+01 g/mol
          :  Hamiltonian                  GFN1-xTB          :
 * total energy  :   -38.2758174 Eh     change       -0.1428191E-11 Eh
 * total energy  :   -38.2869920 Eh     change       -0.1117458E-01 Eh
 * total energy  :   -38.2902292 Eh     change       -0.3237188E-02 Eh
 * total energy  :   -38.2907611 Eh     change       -0.5319364E-03 Eh
 * total energy  :   -38.2910757 Eh     change       -0.3145713E-03 Eh
 * total energy  :   -38.2911812 Eh     change       -0.1054736E-03 Eh
 * total energy  :   -38.2912573 Eh     change       -0.7618281E-04 Eh
 * total energy  :   -38.2913346 Eh     change       -0.7722498E-04 Eh
 * total energy  :   -38.2914658 Eh     change       -0.1312254E-03 Eh
 * total energy  :   -38.2915981 Eh     change       -0.1323050E-03 Eh
 * total energy  :   -38.3032842 Eh     change       -0.1613095E-04 Eh
 * total energy  :   -38.3033087 Eh     change       -0.2445013E-04 Eh
 * total energy  :   -38.3033281 Eh     change       -0.1948043E-04 Eh
 * total energy  :   -38.3033598 Eh     change       -0.3162924E-04 Eh
 * total energy  :   -38.3033744 Eh     change       -0.1464898E-04 Eh
 * total energy  :   -38.3033889 Eh     change       -0.1448449E-04 Eh
 * total energy  :   -38.3033990 Eh     change       -0.1014315E-04 Eh
 * total energy  :   -38.3034042 Eh     change       -0.5107548E-05 Eh
 * total energy  :   -38.3034070 Eh     change       -0.2889067E-05 Eh
   *** GEOMETRY OPTIMIZATION CONVERGED AFTER 52 ITERATIONS ***

 final structure:
================
20
 xtb: 6.5.1 (579679a)
C           -1.95626594715351        2.30293274035977       -0.32937446604098
O           -1.89867070425218        1.19192211406984        0.55896676596629
C           -1.05632289600890        0.13545189223956        0.15832295229608
O           -1.56298313522961       -0.61086438499490       -0.94687207452949
C           -2.38979586441954       -1.69545385520744       -0.56893248454907
C            0.31658841097101        0.29972106784885        0.26885278537729
N            0.96762172154689        1.16751968096462        1.06732106438462
N            2.29961618518660        0.78931945729981        1.03830662698660
C            2.39897740291255       -0.23657611954551        0.27194741969987
C            3.63048050550163       -0.99562313287116       -0.07545038276500
O            1.19743687343561       -0.62639234888168       -0.26180450742008
H           -0.97916919251740        2.80107021122240       -0.40773827328363
H           -2.27712993460440        1.99450003032783       -1.33372638824541
H           -2.68567933793826        3.00986382511862        0.07330560733213
H           -2.67149373339350       -2.23045560244188       -1.47919953102377
H           -1.86014081515452       -2.38503972032625        0.10407027938998
H           -3.30168382663410       -1.34767918159599       -0.06437234339094
H            3.53566241200809       -2.04119923661147        0.22097339075850
H            4.48264945407449       -0.55604625513789        0.43856504855200
H            3.81030442166899       -0.96696918183721       -1.15128448949565

          :  Hamiltonian                  GFN1-xTB          :
         :: total energy             -38.303407046328 Eh    ::
         :: gradient norm              0.000889572546 Eh/a0 ::
         :: HOMO-LUMO gap              2.797884758317 eV    ::
         :: SCC energy               -38.606076806263 Eh    ::
         :: -> Gsolv                  -0.101793317866 Eh    ::
         :: repulsion energy           0.310743938813 Eh    ::

    * Orbital Energies and Occupations

         #    Occupation            Energy/Eh            Energy/eV
      -------------------------------------------------------------
         1        2.0000           -0.7745981             -21.0779
       ...           ...                  ...                  ...
        19        2.0000           -0.5102260             -13.8840
        20        2.0000           -0.5071860             -13.8012
        21        2.0000           -0.4939803             -13.4419
        22        2.0000           -0.4753941             -12.9361
        23        2.0000           -0.4678180             -12.7300
        24        2.0000           -0.4612115             -12.5502
        25        2.0000           -0.4219442             -11.4817
        26        2.0000           -0.4201044             -11.4316
        27        2.0000           -0.4178028             -11.3690
        28        2.0000           -0.3982345             -10.8365
        29        2.0000           -0.3882436             -10.5646
        30        2.0000           -0.3726052             -10.1391
        31        2.0000           -0.2911624              -7.9229 (HOMO)
        32                         -0.1883420              -5.1250 (LUMO)
        33                         -0.1520034              -4.1362
        34                         -0.1170154              -3.1842
        35                         -0.1068172              -2.9066
        36                         -0.1040117              -2.8303
        37                         -0.0504040              -1.3716
        38                         -0.0493583              -1.3431
        39                         -0.0470987              -1.2816
        40                         -0.0463853              -1.2622
        41                         -0.0462112              -1.2575
        42                         -0.0418293              -1.1382
       ...                                ...                  ...
        62                          0.6446045              17.5406
      -------------------------------------------------------------
                  HL-Gap            0.1028204 Eh            2.7979 eV

Wiberg/Mayer (AO) data.
largest (>0.10) Wiberg bond orders for each atom

     #   Z sym  total        # sym  WBO       # sym  WBO       # sym  WBO
 ---------------------------------------------------------------------------
     1   6 C    3.938 --    14 H    0.987    13 H    0.982    12 H    0.982
                             2 O    0.946
     2   8 O    1.988 --     1 C    0.946     3 C    0.923
     3   6 C    3.569 --     6 C    1.413     2 O    0.923     4 O    0.899
                             7 N    0.154
     4   8 O    1.993 --     5 C    0.959     3 C    0.899
     5   6 C    3.936 --    15 H    0.985    17 H    0.982    16 H    0.981
                             4 O    0.959
     6   6 C    3.861 --     3 C    1.413     7 N    1.333    11 O    0.973
     7   7 N    2.824 --     6 C    1.333     8 N    1.144     3 C    0.154
                             9 C    0.103
     8   7 N    2.984 --     9 C    1.678     7 N    1.144
     9   6 C    3.889 --     8 N    1.678    10 C    1.018    11 O    1.006
                             7 N    0.103
    10   6 C    3.996 --     9 C    1.018    19 H    0.987    18 H    0.975
                            20 H    0.975
    11   8 O    2.192 --     9 C    1.006     6 C    0.973
    12   1 H    1.022 --     1 C    0.982
    13   1 H    1.019 --     1 C    0.982
    14   1 H    1.022 --     1 C    0.987
    15   1 H    1.023 --     5 C    0.985
    16   1 H    1.028 --     5 C    0.981
    17   1 H    1.024 --     5 C    0.982
    18   1 H    1.006 --    10 C    0.975
    19   1 H    1.007 --    10 C    0.987
    20   1 H    1.006 --    10 C    0.975
 ---------------------------------------------------------------------------

           -------------------------------------------------
          | TOTAL ENERGY              -38.303407046328 Eh   |
          | GRADIENT NORM               0.000889572546 Eh/α |
          | HOMO-LUMO GAP               2.797884758317 eV   |
           -------------------------------------------------

 * finished run on 2023/06/20 at 14:52:58.548
