   * xtb version 6.5.1 (579679a) compiled by 'ehlert@majestix' on 2022-07-11
          program call               : /lustre/hpc/kemi/ree/PhD/git/ReactivityQM/dep/xtb-6.5.1/bin/xtb --gfn 1 /lustre/hpc/kemi/ree/PhD/git/ReactivityQM/calculations/RaltegravirCLI/reac02/conf16/RaltegravirCLI_reac02_conf16_gfn1.xyz --opt --vfukui --chrg 0 --uhf 0 --alpb DMSO

   ID    Z sym.   atoms
    1    6 C      1, 3-6, 9, 10, 13-17, 19-21, 23
    2    7 N      2, 7, 8, 12
    3    8 O      11, 22, 24
    4    9 F      18
    5    1 H      25-43

      * Solvation model:               ALPB
        Solvent                        DMSO
        Solvent mass                       7.8130E+01 g/mol
          :  Hamiltonian                  GFN1-xTB          :
 * total energy  :   -76.1715635 Eh     change       -0.6863843E-11 Eh
 * total energy  :   -76.1788270 Eh     change       -0.7263522E-02 Eh
 * total energy  :   -76.1807798 Eh     change       -0.1952832E-02 Eh
 * total energy  :   -76.1811736 Eh     change       -0.3937883E-03 Eh
 * total energy  :   -76.1814672 Eh     change       -0.2936151E-03 Eh
 * total energy  :   -76.1815710 Eh     change       -0.1037226E-03 Eh
 * total energy  :   -76.1816362 Eh     change       -0.6525594E-04 Eh
 * total energy  :   -76.1816693 Eh     change       -0.3309735E-04 Eh
 * total energy  :   -76.1816942 Eh     change       -0.2486320E-04 Eh
 * total energy  :   -76.1817131 Eh     change       -0.1892672E-04 Eh
 * total energy  :   -76.1818102 Eh     change       -0.2170460E-04 Eh
 * total energy  :   -76.1818260 Eh     change       -0.1575695E-04 Eh
 * total energy  :   -76.1818405 Eh     change       -0.1446059E-04 Eh
 * total energy  :   -76.1818557 Eh     change       -0.1519497E-04 Eh
 * total energy  :   -76.1818676 Eh     change       -0.1196384E-04 Eh
 * total energy  :   -76.1818694 Eh     change       -0.1752164E-05 Eh
 * total energy  :   -76.1818751 Eh     change       -0.5706785E-05 Eh
 * total energy  :   -76.1818823 Eh     change       -0.7237014E-05 Eh
 * total energy  :   -76.1818870 Eh     change       -0.4670384E-05 Eh
   *** GEOMETRY OPTIMIZATION CONVERGED AFTER 22 ITERATIONS ***

 final structure:
================
43
 xtb: 6.5.1 (579679a)
C           -3.87121838760536       -2.03342571389556        1.05178520203572
N           -2.62950277972144       -1.48196998239748        0.50432718627370
C           -2.41878359927115       -0.15432784358189        0.22505627512683
C           -3.49806402079583        0.90347089060378        0.43043196410703
C           -2.88673053807594        2.29886613933888        0.22180673104415
C           -4.62637963954765        0.68939856351048       -0.58828122886839
N           -4.04516255637879        0.80547733348406        1.78285772421958
N           -1.29803628499472        0.26245598111187       -0.27259236595581
C           -0.25837605118302       -0.58301334332049       -0.54105142156001
C            0.94991071061626        0.10888749634024       -1.10318646807993
O            0.92738862139584        1.30118729824454       -1.38693002867085
N            2.04317260319193       -0.65782555459690       -1.28270883800705
C            3.29107063888371       -0.07710171100630       -1.76623486261126
C            4.16927661320894        0.35360226022746       -0.60991099714466
C            5.31993499487243       -0.36294452079813       -0.29244017787580
C            6.12249843491289        0.02236888386966        0.77364172033697
C            5.74509281240493        1.12976147394014        1.51006419049032
F            6.51386113874414        1.50937383871835        2.54469263105625
C            4.60814640413913        1.86438773402656        1.22346064303931
C            3.82045266087918        1.46722512149932        0.15316490971484
C           -0.40910341425137       -1.91581709413619       -0.29116995949066
O            0.53563829009418       -2.85195363628483       -0.52399816190425
C           -1.65367422547998       -2.42539240262046        0.25021281654960
O           -1.82305751995171       -3.62475674852843        0.46928005621128
H           -4.48485407675264       -2.42026172614402        0.23788442602754
H           -4.40894703667929       -1.26602466950650        1.60108681388763
H           -3.61070349531674       -2.85379623047459        1.72094354091727
H           -2.50703745774703        2.40118401559493       -0.79442286239261
H           -2.06647107626841        2.45780663919401        0.92050339712019
H           -3.65048895480015        3.05497061261586        0.39566187477784
H           -4.21927504656754        0.67441859397087       -1.59885030857307
H           -5.14798635776599       -0.24731816193343       -0.40501161533272
H           -5.34492701143276        1.50410251740268       -0.51118557890014
H           -3.34395374606463        1.08666152031875        2.45492948494551
H           -4.82721238734992        1.43902619126288        1.86809772710040
H            2.06958554156176       -1.61662689271671       -0.97958806773668
H            3.04021468783886        0.78478020276204       -2.39360148747277
H            3.80028776410847       -0.82740905276480       -2.37523272398097
H            5.59860123059174       -1.22850441796050       -0.88181298184171
H            7.01994295136905       -0.52550822082368        1.02882692008352
H            4.34989456500892        2.72669485388791        1.82436094309396
H            2.92682193429768        2.02953652401534       -0.09304477382393
H            0.17815106588055       -3.72166776245262       -0.26101226793493

          :  Hamiltonian                  GFN1-xTB          :
         :: total energy             -76.181886990557 Eh    ::
         :: gradient norm              0.000423172681 Eh/a0 ::
         :: HOMO-LUMO gap              2.788554839951 eV    ::
         :: SCC energy               -77.028128384245 Eh    ::
         :: -> Gsolv                  -0.048289216803 Eh    ::
         :: repulsion energy           0.873447605234 Eh    ::

    * Orbital Energies and Occupations

         #    Occupation            Energy/Eh            Energy/eV
      -------------------------------------------------------------
         1        2.0000           -0.8634331             -23.4952
       ...           ...                  ...                  ...
        52        2.0000           -0.4999040             -13.6031
        53        2.0000           -0.4931596             -13.4196
        54        2.0000           -0.4848287             -13.1929
        55        2.0000           -0.4727764             -12.8649
        56        2.0000           -0.4661933             -12.6858
        57        2.0000           -0.4646104             -12.6427
        58        2.0000           -0.4507511             -12.2656
        59        2.0000           -0.4468095             -12.1583
        60        2.0000           -0.4392797             -11.9534
        61        2.0000           -0.4344734             -11.8226
        62        2.0000           -0.4322514             -11.7622
        63        2.0000           -0.4203391             -11.4380
        64        2.0000           -0.4127446             -11.2314 (HOMO)
        65                         -0.3102671              -8.4428 (LUMO)
        66                         -0.2731163              -7.4319
        67                         -0.2726627              -7.4195
        68                         -0.2662108              -7.2440
        69                         -0.2256137              -6.1393
        70                         -0.1479276              -4.0253
        71                         -0.1445612              -3.9337
        72                         -0.1349087              -3.6711
        73                         -0.1219557              -3.3186
        74                         -0.1201534              -3.2695
        75                         -0.1147777              -3.1233
       ...                                ...                  ...
       134                          0.7161265              19.4868
      -------------------------------------------------------------
                  HL-Gap            0.1024775 Eh            2.7886 eV

Wiberg/Mayer (AO) data.
largest (>0.10) Wiberg bond orders for each atom

     #   Z sym  total        # sym  WBO       # sym  WBO       # sym  WBO
 ---------------------------------------------------------------------------
     1   6 C    3.920 --    27 H    0.976    25 H    0.976    26 H    0.968
                             2 N    0.927
     2   7 N    3.516 --     3 C    1.171    23 C    1.139     1 C    0.927
                            24 O    0.133
     3   6 C    3.923 --     8 N    1.566     2 N    1.171     4 C    0.975
     4   6 C    3.965 --     5 C    0.992     6 C    0.985     7 N    0.980
                             3 C    0.975
     5   6 C    3.995 --     4 C    0.992    30 H    0.986    29 H    0.984
                            28 H    0.983
     6   6 C    3.994 --    31 H    0.986     4 C    0.985    33 H    0.983
                            32 H    0.982
     7   7 N    2.994 --     4 C    0.980    34 H    0.941    35 H    0.939
     8   7 N    3.032 --     3 C    1.566     9 C    1.197
     9   6 C    3.964 --    21 C    1.507     8 N    1.197    10 C    0.991
    10   6 C    3.907 --    11 O    1.570    12 N    1.265     9 C    0.991
    11   8 O    1.878 --    10 C    1.570    12 N    0.170
    12   7 N    3.346 --    10 C    1.265    13 C    0.942    36 H    0.888
                            11 O    0.170
    13   6 C    3.949 --    14 C    0.994    38 H    0.977    37 H    0.968
                            12 N    0.942
    14   6 C    3.988 --    15 C    1.424    20 C    1.414    13 C    0.994
    15   6 C    3.994 --    16 C    1.438    14 C    1.424    39 H    0.971
                            19 C    0.110
    16   6 C    3.991 --    15 C    1.438    17 C    1.405    40 H    0.969
                            20 C    0.112
    17   6 C    3.860 --    16 C    1.405    19 C    1.397    18 F    0.923
    18   9 F    1.051 --    17 C    0.923
    19   6 C    3.992 --    20 C    1.448    17 C    1.397    41 H    0.970
                            15 C    0.110
    20   6 C    3.992 --    19 C    1.448    14 C    1.414    42 H    0.969
                            16 C    0.112
    21   6 C    3.916 --     9 C    1.507    23 C    1.093    22 O    1.069
    22   8 O    2.062 --    21 C    1.069    43 H    0.801
    23   6 C    3.918 --    24 O    1.534     2 N    1.139    21 C    1.093
    24   8 O    1.882 --    23 C    1.534     2 N    0.133
    25   1 H    1.004 --     1 C    0.976
    26   1 H    1.029 --     1 C    0.968
    27   1 H    1.008 --     1 C    0.976
    28   1 H    1.013 --     5 C    0.983
    29   1 H    1.010 --     5 C    0.984
    30   1 H    1.004 --     5 C    0.986
    31   1 H    1.003 --     6 C    0.986
    32   1 H    1.004 --     6 C    0.982
    33   1 H    1.000 --     6 C    0.983
    34   1 H    0.956 --     7 N    0.941
    35   1 H    0.954 --     7 N    0.939
    36   1 H    0.945 --    12 N    0.888
    37   1 H    1.010 --    13 C    0.968
    38   1 H    1.003 --    13 C    0.977
    39   1 H    1.000 --    15 C    0.971
    40   1 H    0.998 --    16 C    0.969
    41   1 H    0.999 --    19 C    0.970
    42   1 H    1.010 --    20 C    0.969
    43   1 H    0.846 --    22 O    0.801
 ---------------------------------------------------------------------------

           -------------------------------------------------
          | TOTAL ENERGY              -76.181886990557 Eh   |
          | GRADIENT NORM               0.000423172681 Eh/α |
          | HOMO-LUMO GAP               2.788554839951 eV   |
           -------------------------------------------------

 * finished run on 2023/06/20 at 14:51:57.462
