   * xtb version 6.5.1 (579679a) compiled by 'ehlert@majestix' on 2022-07-11
          program call               : /lustre/hpc/kemi/ree/PhD/git/ReactivityQM/dep/xtb-6.5.1/bin/xtb --gfn 1 /lustre/hpc/kemi/ree/PhD/git/ReactivityQM/calculations/R01/reac02prodN02/conf11/R01_reac02prodN02_conf11_gfn1.xyz --opt --vfukui --chrg 1 --uhf 0 --alpb DMSO

   ID    Z sym.   atoms
    1    6 C      1, 3-6, 8, 9, 12, 13, 15
    2    7 N      2, 7, 17
    3    8 O      10, 11, 14, 16
    4    1 H      18-33

      * Solvation model:               ALPB
        Solvent                        DMSO
        Solvent mass                       7.8130E+01 g/mol
          :  Hamiltonian                  GFN1-xTB          :
 * total energy  :   -57.8559689 Eh     change       -0.4732215E-11 Eh
 * total energy  :   -57.8660516 Eh     change       -0.1008274E-01 Eh
 * total energy  :   -57.8693079 Eh     change       -0.3256258E-02 Eh
 * total energy  :   -57.8701735 Eh     change       -0.8655844E-03 Eh
 * total energy  :   -57.8705628 Eh     change       -0.3893015E-03 Eh
 * total energy  :   -57.8707059 Eh     change       -0.1430918E-03 Eh
 * total energy  :   -57.8708054 Eh     change       -0.9954072E-04 Eh
 * total energy  :   -57.8709096 Eh     change       -0.1041786E-03 Eh
 * total energy  :   -57.8710589 Eh     change       -0.1493191E-03 Eh
 * total energy  :   -57.8712132 Eh     change       -0.1542831E-03 Eh
 * total energy  :   -57.8737909 Eh     change       -0.8675375E-05 Eh
 * total energy  :   -57.8737985 Eh     change       -0.7647218E-05 Eh
 * total energy  :   -57.8738053 Eh     change       -0.6824168E-05 Eh
 * total energy  :   -57.8738116 Eh     change       -0.6287282E-05 Eh
 * total energy  :   -57.8738177 Eh     change       -0.6104261E-05 Eh
 * total energy  :   -57.8738239 Eh     change       -0.6180732E-05 Eh
 * total energy  :   -57.8738304 Eh     change       -0.6530937E-05 Eh
 * total energy  :   -57.8738375 Eh     change       -0.7035264E-05 Eh
 * total energy  :   -57.8738424 Eh     change       -0.4969283E-05 Eh
   *** GEOMETRY OPTIMIZATION CONVERGED AFTER 68 ITERATIONS ***

 final structure:
================
33
 xtb: 6.5.1 (579679a)
C           -1.18350384154839        2.24445210701147        0.29232690444028
N           -1.70742674348923        0.99500306727524        0.89972826278892
C           -1.88600820929354       -0.18855463761194       -0.01471939257606
C           -2.61710084090855        0.22880868393936       -1.28935887007257
C           -2.69701124867481       -1.21861103243120        0.77750971700884
C           -0.50023168593209       -0.71850561538045       -0.29696993779270
N            0.51051504339337       -0.16302910388673        0.27465660881118
C            1.78221865015900       -0.64012795437446        0.04308887442086
C            2.88943774454340        0.12497294813091        0.68941233059159
O            4.04742026363458       -0.21361023822509        0.70030094652724
O            2.44609180759472        1.25313692412360        1.24649816709308
C            3.43124731077881        2.08120564453011        1.87805604041148
C            1.97537022642901       -1.73019789965001       -0.76059049008819
O            3.16822571340372       -2.25734718633499       -1.02739104082319
C            0.83406724045833       -2.37976124295162       -1.40977187115077
O            0.94187710499054       -3.34528183713758       -2.14289018807946
N           -0.38226624613229       -1.79094853902759       -1.12731249292056
H           -1.90019283104077        2.62049343543296       -0.43056675375194
H           -0.22655778154086        2.02570616834051       -0.17502562205693
H           -1.05555724190538        2.95976610780640        1.10108624957136
H           -2.59801876513929        1.20010220458368        1.34273598131507
H           -1.04588268447162        0.70852476380453        1.62499595355312
H           -2.90336478308678       -0.66410618800638       -1.84247954561890
H           -3.51953677018332        0.78190858512481       -1.03632629136568
H           -1.98044257839490        0.84193334401841       -1.92444819950625
H           -2.19142783492082       -1.46241498796488        1.71059011950707
H           -2.80704712554501       -2.12676931228456        0.18781009715320
H           -3.68659356513644       -0.82218682692376        0.99770158709075
H            2.89950569180746        2.94343731965911        2.27373220886585
H            3.92067093853502        1.53134465290737        2.68569254855803
H            4.17813801437701        2.39771684350436        1.14552210539531
H            3.05928370865818       -3.01864672328548       -1.62671286259911
H           -1.19589968141862       -2.19841147471668       -1.56181314470143

          :  Hamiltonian                  GFN1-xTB          :
         :: total energy             -57.873842441102 Eh    ::
         :: gradient norm              0.000214653380 Eh/a0 ::
         :: HOMO-LUMO gap              3.010862921431 eV    ::
         :: SCC energy               -58.456572405460 Eh    ::
         :: -> Gsolv                  -0.124237717924 Eh    ::
         :: repulsion energy           0.602130343351 Eh    ::

    * Orbital Energies and Occupations

         #    Occupation            Energy/Eh            Energy/eV
      -------------------------------------------------------------
         1        2.0000           -0.8876318             -24.1537
       ...           ...                  ...                  ...
        35        2.0000           -0.5605336             -15.2529
        36        2.0000           -0.5529710             -15.0471
        37        2.0000           -0.5489847             -14.9386
        38        2.0000           -0.5469064             -14.8821
        39        2.0000           -0.5358779             -14.5820
        40        2.0000           -0.5313716             -14.4594
        41        2.0000           -0.5220682             -14.2062
        42        2.0000           -0.5091056             -13.8535
        43        2.0000           -0.5030090             -13.6876
        44        2.0000           -0.4988821             -13.5753
        45        2.0000           -0.4827098             -13.1352
        46        2.0000           -0.4687263             -12.7547
        47        2.0000           -0.4498942             -12.2422 (HOMO)
        48                         -0.3392470              -9.2314 (LUMO)
        49                         -0.3079249              -8.3791
        50                         -0.2542434              -6.9183
        51                         -0.1823079              -4.9608
        52                         -0.1761903              -4.7944
        53                         -0.1718326              -4.6758
        54                         -0.1643933              -4.4734
        55                         -0.1468177              -3.9951
        56                         -0.1433846              -3.9017
        57                         -0.1379485              -3.7538
        58                         -0.1258800              -3.4254
       ...                                ...                  ...
       100                          0.7375276              20.0691
      -------------------------------------------------------------
                  HL-Gap            0.1106472 Eh            3.0109 eV

Wiberg/Mayer (AO) data.
largest (>0.10) Wiberg bond orders for each atom

     #   Z sym  total        # sym  WBO       # sym  WBO       # sym  WBO
 ---------------------------------------------------------------------------
     1   6 C    3.892 --    18 H    0.984    20 H    0.981    19 H    0.980
                             2 N    0.915
     2   7 N    3.603 --     1 C    0.915    21 H    0.892     3 C    0.889
                            22 H    0.882
     3   6 C    3.905 --     4 C    0.992     6 C    0.986     5 C    0.985
                             2 N    0.889
     4   6 C    3.982 --     3 C    0.992    25 H    0.981    24 H    0.980
                            23 H    0.976
     5   6 C    3.981 --     3 C    0.985    26 H    0.981    28 H    0.979
                            27 H    0.977
     6   6 C    3.943 --     7 N    1.591    17 N    1.178     3 C    0.986
     7   7 N    3.047 --     6 C    1.591     8 C    1.160
     8   6 C    3.957 --    13 C    1.507     7 N    1.160     9 C    0.996
     9   6 C    3.855 --    10 O    1.670    11 O    1.111     8 C    0.996
    10   8 O    1.935 --     9 C    1.670    11 O    0.136
    11   8 O    2.197 --     9 C    1.111    12 C    0.892    10 O    0.136
    12   6 C    3.866 --    29 H    0.986    30 H    0.979    31 H    0.979
                            11 O    0.892
    13   6 C    3.922 --     8 C    1.507    14 O    1.126    15 C    1.053
    14   8 O    2.104 --    13 C    1.126    32 H    0.802
    15   6 C    3.906 --    16 O    1.603    17 N    1.120    13 C    1.053
    16   8 O    1.926 --    15 C    1.603    17 N    0.132
    17   7 N    3.465 --     6 C    1.178    15 C    1.120    33 H    0.877
                            16 O    0.132
    18   1 H    0.994 --     1 C    0.984
    19   1 H    1.009 --     1 C    0.980
    20   1 H    0.990 --     1 C    0.981
    21   1 H    0.918 --     2 N    0.892
    22   1 H    0.939 --     2 N    0.882
    23   1 H    0.994 --     4 C    0.976
    24   1 H    0.992 --     4 C    0.980
    25   1 H    0.996 --     4 C    0.981
    26   1 H    0.993 --     5 C    0.981
    27   1 H    0.994 --     5 C    0.977
    28   1 H    0.992 --     5 C    0.979
    29   1 H    1.010 --    12 C    0.986
    30   1 H    1.006 --    12 C    0.979
    31   1 H    1.006 --    12 C    0.979
    32   1 H    0.838 --    14 O    0.802
    33   1 H    0.918 --    17 N    0.877
 ---------------------------------------------------------------------------

           -------------------------------------------------
          | TOTAL ENERGY              -57.873842441102 Eh   |
          | GRADIENT NORM               0.000214653380 Eh/α |
          | HOMO-LUMO GAP               3.010862921431 eV   |
           -------------------------------------------------

 * finished run on 2023/06/20 at 15:03:44.638
