   * xtb version 6.5.1 (579679a) compiled by 'ehlert@majestix' on 2022-07-11
          program call               : /lustre/hpc/kemi/ree/PhD/git/ReactivityQM/dep/xtb-6.5.1/bin/xtb --gfn 1 /lustre/hpc/kemi/ree/PhD/git/ReactivityQM/calculations/RaltegravirCLI/reac02prodN02/conf06/RaltegravirCLI_reac02prodN02_conf06_gfn1.xyz --opt --vfukui --chrg 1 --uhf 0 --alpb DMSO

   ID    Z sym.   atoms
    1    6 C      1, 3-6, 8, 9, 12-16, 18-20, 22, 25
    2    7 N      2, 7, 11, 24
    3    8 O      10, 21, 23
    4    9 F      17
    5    1 H      26-47

      * Solvation model:               ALPB
        Solvent                        DMSO
        Solvent mass                       7.8130E+01 g/mol
          :  Hamiltonian                  GFN1-xTB          :
 * total energy  :   -79.5240433 Eh     change       -0.8711254E-11 Eh
 * total energy  :   -79.5342230 Eh     change       -0.1017975E-01 Eh
 * total energy  :   -79.5377039 Eh     change       -0.3480867E-02 Eh
 * total energy  :   -79.5385864 Eh     change       -0.8824958E-03 Eh
 * total energy  :   -79.5391552 Eh     change       -0.5688673E-03 Eh
 * total energy  :   -79.5394559 Eh     change       -0.3006583E-03 Eh
 * total energy  :   -79.5397027 Eh     change       -0.2468185E-03 Eh
 * total energy  :   -79.5398882 Eh     change       -0.1855031E-03 Eh
 * total energy  :   -79.5400112 Eh     change       -0.1229730E-03 Eh
 * total energy  :   -79.5401196 Eh     change       -0.1083562E-03 Eh
 * total energy  :   -79.5403783 Eh     change       -0.6167716E-04 Eh
 * total energy  :   -79.5404229 Eh     change       -0.4451830E-04 Eh
 * total energy  :   -79.5404440 Eh     change       -0.2111293E-04 Eh
 * total energy  :   -79.5404522 Eh     change       -0.8232819E-05 Eh
 * total energy  :   -79.5404685 Eh     change       -0.1628656E-04 Eh
 * total energy  :   -79.5404801 Eh     change       -0.1163394E-04 Eh
 * total energy  :   -79.5404887 Eh     change       -0.8543670E-05 Eh
 * total energy  :   -79.5404946 Eh     change       -0.5971996E-05 Eh
 * total energy  :   -79.5404975 Eh     change       -0.2899111E-05 Eh
   *** GEOMETRY OPTIMIZATION CONVERGED AFTER 21 ITERATIONS ***

 final structure:
================
47
 xtb: 6.5.1 (579679a)
C           -2.73113046481292        3.20533485624917       -1.08083279514900
N           -2.46039749062502        1.75429034338844       -1.13845283666733
C           -3.13464751057811        0.86024538920577       -0.12188077755228
C           -4.52317734954861        0.54722266827053       -0.67781906885047
C           -3.19210777910021        1.57450250337570        1.23055239202480
C           -2.17441562877316       -0.32782001625332       -0.01484452668297
N           -0.97558467626892       -0.07062876887149       -0.42571974340130
C            0.03892268710487       -0.98748793834662       -0.38060637627464
C            1.33249211973588       -0.43794255549620       -0.90628319512439
O            1.38111912075211        0.69928455554451       -1.36194386107470
N            2.39206720887763       -1.25821575375103       -0.84690304573704
C            3.71474202411290       -0.80474831081068       -1.27282472623894
C            4.49169948018303       -0.25245085886316       -0.09664839179233
C            5.57047730242283       -0.95665963605539        0.43097572564898
C            6.27442163034744       -0.45948085503035        1.52005420179802
C            5.87232177023876        0.74579686567363        2.06539222632891
F            6.54491702574574        1.23202020273042        3.12092008288678
C            4.80486195533071        1.47129593445960        1.56655176080785
C            4.11551638803785        0.96180252236301        0.47615708905081
C           -0.23346473766799       -2.22860637674297        0.11108086926937
O            0.66577348082611       -3.22037428703856        0.19509024142488
C           -1.56460962462454       -2.55661285609344        0.59883704675761
O           -1.82918275907891       -3.66125044180563        1.05168704987954
N           -2.50686343614159       -1.53199476997996        0.53129472337000
C           -3.83045581845012       -1.86701784398356        1.06131381119738
H           -3.80441291878075        3.37224266952163       -1.10211772505726
H           -2.29610635616586        3.61943922061467       -0.17656243116690
H           -2.26638075537684        3.65285432089780       -1.95652384597736
H           -2.71022453877970        1.41333336832805       -2.06274314749424
H           -1.43976490950569        1.56197504293640       -1.02556000452974
H           -4.96517433077497        1.46032388671136       -1.07424563685476
H           -5.18228769752984        0.17598551020894        0.10225793541082
H           -4.46112574447216       -0.18812519945795       -1.47832826274291
H           -3.88609837386275        2.41139496883610        1.19272206643980
H           -2.20201323772501        1.93049599113939        1.51163618194675
H           -3.53756533199481        0.87885779485899        1.99259749215880
H            2.32469386853320       -2.16347504164904       -0.41157717990206
H            4.23729628721527       -1.65499290085023       -1.71726728071440
H            3.57280666170661       -0.03029544868336       -2.03329979795975
H            5.86799333315889       -1.90098080257991       -0.00951625301428
H            7.11482477075094       -0.99746033846094        1.93916948209457
H            4.52108458220536        2.41116503399480        2.02194778020825
H            3.27651481880073        1.51239352593511        0.06791702846737
H            0.23452998157084       -4.01012691494521        0.57547096888631
H           -4.49882127083784       -2.12420659741852        0.24138002435801
H           -4.22815757113353       -1.03211889229025        1.62830925206915
H           -3.71490718505075       -2.72918176977946        1.71803247747474

          :  Hamiltonian                  GFN1-xTB          :
         :: total energy             -79.540497533820 Eh    ::
         :: gradient norm              0.000588331592 Eh/a0 ::
         :: HOMO-LUMO gap              2.938531412709 eV    ::
         :: SCC energy               -80.439789193504 Eh    ::
         :: -> Gsolv                  -0.117689910997 Eh    ::
         :: repulsion energy           0.929659500307 Eh    ::

    * Orbital Energies and Occupations

         #    Occupation            Energy/Eh            Energy/eV
      -------------------------------------------------------------
         1        2.0000           -0.8776084             -23.8809
       ...           ...                  ...                  ...
        55        2.0000           -0.5262648             -14.3204
        56        2.0000           -0.5152892             -14.0217
        57        2.0000           -0.5088349             -13.8461
        58        2.0000           -0.5043189             -13.7232
        59        2.0000           -0.4899391             -13.3319
        60        2.0000           -0.4849464             -13.1961
        61        2.0000           -0.4757456             -12.9457
        62        2.0000           -0.4727371             -12.8638
        63        2.0000           -0.4565070             -12.4222
        64        2.0000           -0.4538480             -12.3498
        65        2.0000           -0.4486090             -12.2073
        66        2.0000           -0.4410535             -12.0017
        67        2.0000           -0.4382720             -11.9260 (HOMO)
        68                         -0.3302830              -8.9875 (LUMO)
        69                         -0.3027396              -8.2380
        70                         -0.2757398              -7.5033
        71                         -0.2697869              -7.3413
        72                         -0.2420823              -6.5874
        73                         -0.1767142              -4.8086
        74                         -0.1685176              -4.5856
        75                         -0.1666106              -4.5337
        76                         -0.1644664              -4.4754
        77                         -0.1498416              -4.0774
        78                         -0.1484015              -4.0382
       ...                                ...                  ...
       144                          0.7095049              19.3066
      -------------------------------------------------------------
                  HL-Gap            0.1079890 Eh            2.9385 eV

Wiberg/Mayer (AO) data.
largest (>0.10) Wiberg bond orders for each atom

     #   Z sym  total        # sym  WBO       # sym  WBO       # sym  WBO
 ---------------------------------------------------------------------------
     1   6 C    3.902 --    27 H    0.984    26 H    0.982    28 H    0.979
                             2 N    0.924
     2   7 N    3.592 --     1 C    0.924    29 H    0.897     3 C    0.891
                            30 H    0.828
     3   6 C    3.909 --     4 C    0.999     5 C    0.989     6 C    0.973
                             2 N    0.891
     4   6 C    3.984 --     3 C    0.999    33 H    0.981    31 H    0.977
                            32 H    0.976
     5   6 C    3.983 --     3 C    0.989    35 H    0.981    34 H    0.979
                            36 H    0.973
     6   6 C    3.941 --     7 N    1.561    24 N    1.196     3 C    0.973
     7   7 N    3.100 --     6 C    1.561     8 C    1.175
     8   6 C    3.953 --    20 C    1.510     7 N    1.175     9 C    0.987
     9   6 C    3.913 --    10 O    1.564    11 N    1.283     8 C    0.987
    10   8 O    1.881 --     9 C    1.564    11 N    0.175
    11   7 N    3.362 --     9 C    1.283    12 C    0.936    37 H    0.887
                            10 O    0.175
    12   6 C    3.943 --    13 C    0.994    38 H    0.977    39 H    0.967
                            11 N    0.936
    13   6 C    3.988 --    14 C    1.424    19 C    1.414    12 C    0.994
    14   6 C    3.993 --    15 C    1.439    13 C    1.424    40 H    0.970
                            18 C    0.109
    15   6 C    3.991 --    14 C    1.439    16 C    1.404    41 H    0.969
                            19 C    0.111
    16   6 C    3.861 --    15 C    1.404    18 C    1.397    17 F    0.926
    17   9 F    1.054 --    16 C    0.926
    18   6 C    3.992 --    19 C    1.448    16 C    1.397    42 H    0.969
                            14 C    0.109
    19   6 C    3.993 --    18 C    1.448    13 C    1.414    43 H    0.969
                            15 C    0.111
    20   6 C    3.920 --     8 C    1.510    21 O    1.092    22 C    1.079
    21   8 O    2.082 --    20 C    1.092    44 H    0.794
    22   6 C    3.910 --    23 O    1.575    24 N    1.106    20 C    1.079
    23   8 O    1.920 --    22 C    1.575    24 N    0.130
    24   7 N    3.512 --     6 C    1.196    22 C    1.106    25 C    0.923
                            23 O    0.130
    25   6 C    3.913 --    46 H    0.977    45 H    0.975    47 H    0.971
                            24 N    0.923
    26   1 H    0.994 --     1 C    0.982
    27   1 H    0.995 --     1 C    0.984
    28   1 H    0.990 --     1 C    0.979
    29   1 H    0.925 --     2 N    0.897
    30   1 H    0.953 --     2 N    0.828
    31   1 H    0.994 --     4 C    0.977
    32   1 H    0.998 --     4 C    0.976
    33   1 H    0.995 --     4 C    0.981
    34   1 H    0.994 --     5 C    0.979
    35   1 H    0.995 --     5 C    0.981
    36   1 H    0.998 --     5 C    0.973
    37   1 H    0.942 --    11 N    0.887
    38   1 H    1.002 --    12 C    0.977
    39   1 H    1.009 --    12 C    0.967
    40   1 H    0.999 --    14 C    0.970
    41   1 H    0.997 --    15 C    0.969
    42   1 H    0.998 --    18 C    0.969
    43   1 H    1.009 --    19 C    0.969
    44   1 H    0.835 --    21 O    0.794
    45   1 H    0.998 --    25 C    0.975
    46   1 H    1.003 --    25 C    0.977
    47   1 H    1.003 --    25 C    0.971
 ---------------------------------------------------------------------------

           -------------------------------------------------
          | TOTAL ENERGY              -79.540497533820 Eh   |
          | GRADIENT NORM               0.000588331592 Eh/α |
          | HOMO-LUMO GAP               2.938531412709 eV   |
           -------------------------------------------------

 * finished run on 2023/06/20 at 15:17:04.562
