   * xtb version 6.5.1 (579679a) compiled by 'ehlert@majestix' on 2022-07-11
          program call               : /lustre/hpc/kemi/ree/PhD/git/ReactivityQM/dep/xtb-6.5.1/bin/xtb --gfn 1 /lustre/hpc/kemi/ree/PhD/git/ReactivityQM/calculations/R02deprot/reac01prodN16/conf16/R02deprot_reac01prodN16_conf16_gfn1.xyz --opt --vfukui --chrg 0 --uhf 0 --alpb DMSO

   ID    Z sym.   atoms
    1    6 C      1, 3, 5, 7-10, 12, 14, 17, 18, 21, 23, 24
    2    8 O      2, 4, 13, 19, 22, 25
    3    7 N      6, 11, 15, 16, 20
    4    1 H      26-42

      * Solvation model:               ALPB
        Solvent                        DMSO
        Solvent mass                       7.8130E+01 g/mol
          :  Hamiltonian                  GFN1-xTB          :
 * total energy  :   -82.9461178 Eh     change       -0.1362821E-10 Eh
 * total energy  :   -82.9582273 Eh     change       -0.1210949E-01 Eh
 * total energy  :   -82.9633695 Eh     change       -0.5142242E-02 Eh
 * total energy  :   -82.9646922 Eh     change       -0.1322690E-02 Eh
 * total energy  :   -82.9655915 Eh     change       -0.8992937E-03 Eh
 * total energy  :   -82.9661149 Eh     change       -0.5233648E-03 Eh
 * total energy  :   -82.9665652 Eh     change       -0.4502733E-03 Eh
 * total energy  :   -82.9669081 Eh     change       -0.3429345E-03 Eh
 * total energy  :   -82.9671532 Eh     change       -0.2451420E-03 Eh
 * total energy  :   -82.9673567 Eh     change       -0.2034359E-03 Eh
 * total energy  :   -82.9696198 Eh     change       -0.1566523E-04 Eh
 * total energy  :   -82.9696375 Eh     change       -0.1776068E-04 Eh
 * total energy  :   -82.9696510 Eh     change       -0.1349546E-04 Eh
 * total energy  :   -82.9696613 Eh     change       -0.1025804E-04 Eh
 * total energy  :   -82.9696678 Eh     change       -0.6572932E-05 Eh
 * total energy  :   -82.9696742 Eh     change       -0.6346846E-05 Eh
 * total energy  :   -82.9696807 Eh     change       -0.6517870E-05 Eh
 * total energy  :   -82.9696870 Eh     change       -0.6335747E-05 Eh
 * total energy  :   -82.9696902 Eh     change       -0.3163052E-05 Eh
   *** GEOMETRY OPTIMIZATION CONVERGED AFTER 45 ITERATIONS ***

 final structure:
================
42
 xtb: 6.5.1 (579679a)
C           -2.37255233614763        3.96703920798529       -0.90960044401896
O           -2.14213740183574        2.56167795753751       -1.08828965517373
C           -2.67237735572176        1.74837017212673       -0.19506876332156
O           -3.31228769414927        2.09154709783676        0.76538676913910
C           -2.36401518454279        0.29843720341703       -0.50503378832072
N           -1.15843937800790       -0.04068119872152       -0.75203465612763
C           -0.89350073677480       -1.40948556800713       -0.93062517581484
C            0.54861528125929       -1.84432448719534       -0.86446701003040
C            0.66973627918484       -3.02671173308359        0.10815787871468
C            0.98514000764048       -2.25351624096970       -2.28256268869677
N            1.35282108968083       -0.72325222247473       -0.39678964305396
C            2.69033889156231       -0.77548774756950       -0.24106205631474
O            3.39243534760798       -1.74769607627485       -0.45763349129446
C            3.21410152603707        0.52794865913842        0.24349532110317
N            2.50937436382962        1.59072047225372        0.49225774311929
N            3.38002999969281        2.54963460082239        0.91509024658518
C            4.56147930244107        2.01029400172075        0.89653041444545
C            5.84879133996698        2.63858615023211        1.26614126127574
O            4.52152192218931        0.73550853682493        0.48142220874990
N           -1.78493872994314       -2.28566505653972       -1.20399821764536
C           -3.12811404956784       -1.90360239111855       -1.25954514708843
O           -3.95240959421133       -2.46853460444120       -1.92947206412958
C           -3.47593272261788       -0.71930598431342       -0.36401836290453
C           -3.48565745284601       -1.16850380824464        1.11817205891292
O           -4.71510138830846       -0.18509996828362       -0.72417156501208
H           -2.11137574887560        4.26184633062911        0.10836892236885
H           -1.73882775717544        4.47626698149005       -1.63176733310135
H           -3.42330728384067        4.19445548661153       -1.09772077705973
H           -0.00732741100151       -3.81927375901084       -0.20526189209448
H            1.69025264777162       -3.40423102112360        0.11054144005627
H            0.40378744590318       -2.70610553421324        1.11400700044369
H            0.31807776975303       -3.03020288759576       -2.65210980409147
H            2.00411100593916       -2.63445092945064       -2.25707933084918
H            0.93974096625962       -1.39326399906051       -2.94840142052129
H            0.86934706918615        0.14530224528020       -0.20414821775954
H            6.50534674098886        2.68031767967565        0.39726090351268
H            5.67243941923112        3.64543840538389        1.63543751155902
H            6.34461700932086        2.04705674261608        2.03473936012039
H           -3.70797729229547       -0.30603715702450        1.74306415750970
H           -2.52106310427591       -1.58688048611384        1.39401390909689
H           -4.26345914486869       -1.91744614287526        1.24756677004820
H           -5.19130365844115       -0.82068892787933       -1.28356037233704

          :  Hamiltonian                  GFN1-xTB          :
         :: total energy             -82.969690209611 Eh    ::
         :: gradient norm              0.000912602218 Eh/a0 ::
         :: HOMO-LUMO gap              1.803516318107 eV    ::
         :: SCC energy               -83.745670379437 Eh    ::
         :: -> Gsolv                  -0.047106647110 Eh    ::
         :: repulsion energy           0.802018735037 Eh    ::

    * Orbital Energies and Occupations

         #    Occupation            Energy/Eh            Energy/eV
      -------------------------------------------------------------
         1        2.0000           -0.8653446             -23.5472
       ...           ...                  ...                  ...
        55        2.0000           -0.5079878             -13.8231
        56        2.0000           -0.5073604             -13.8060
        57        2.0000           -0.5048961             -13.7389
        58        2.0000           -0.5025288             -13.6745
        59        2.0000           -0.4986384             -13.5686
        60        2.0000           -0.4893766             -13.3166
        61        2.0000           -0.4844063             -13.1814
        62        2.0000           -0.4680061             -12.7351
        63        2.0000           -0.4643905             -12.6367
        64        2.0000           -0.4623374             -12.5808
        65        2.0000           -0.4541827             -12.3589
        66        2.0000           -0.4492473             -12.2246
        67        2.0000           -0.4377440             -11.9116 (HOMO)
        68                         -0.3714660             -10.1081 (LUMO)
        69                         -0.3122314              -8.4962
        70                         -0.3093785              -8.4186
        71                         -0.2594318              -7.0595
        72                         -0.2585379              -7.0352
        73                         -0.2450347              -6.6677
        74                         -0.2000788              -5.4444
        75                         -0.1467501              -3.9933
        76                         -0.1433268              -3.9001
        77                         -0.1346426              -3.6638
        78                         -0.1266313              -3.4458
       ...                                ...                  ...
       134                          0.7226175              19.6634
      -------------------------------------------------------------
                  HL-Gap            0.0662780 Eh            1.8035 eV

Wiberg/Mayer (AO) data.
largest (>0.10) Wiberg bond orders for each atom

     #   Z sym  total        # sym  WBO       # sym  WBO       # sym  WBO
 ---------------------------------------------------------------------------
     1   6 C    3.856 --    27 H    0.985    26 H    0.979    28 H    0.978
                             2 O    0.881
     2   8 O    2.226 --     3 C    1.150     1 C    0.881     4 O    0.147
     3   6 C    3.851 --     4 O    1.689     2 O    1.150     5 C    0.938
     4   8 O    1.963 --     3 C    1.689     2 O    0.147
     5   6 C    3.930 --     6 N    1.764    23 C    0.959     3 C    0.938
     6   7 N    3.064 --     5 C    1.764     7 C    1.058
     7   6 C    3.922 --    20 N    1.694     6 N    1.058     8 C    0.996
     8   6 C    3.939 --     7 C    0.996     9 C    0.973    10 C    0.961
                            11 N    0.937
     9   6 C    3.987 --    31 H    0.985    29 H    0.984    30 H    0.979
                             8 C    0.973
    10   6 C    3.986 --    34 H    0.986    32 H    0.985    33 H    0.978
                             8 C    0.961
    11   7 N    3.349 --    12 C    1.255     8 C    0.937    35 H    0.880
                            13 O    0.178
    12   6 C    3.917 --    13 O    1.591    11 N    1.255    14 C    0.989
    13   8 O    1.909 --    12 C    1.591    11 N    0.178
    14   6 C    3.875 --    15 N    1.610    19 O    1.065    12 C    0.989
    15   7 N    3.015 --    14 C    1.610    16 N    1.200
    16   7 N    2.980 --    17 C    1.605    15 N    1.200
    17   6 C    3.870 --    16 N    1.605    19 O    1.083    18 C    1.031
    18   6 C    3.986 --    17 C    1.031    37 H    0.982    38 H    0.965
                            36 H    0.962
    19   8 O    2.331 --    17 C    1.083    14 C    1.065
    20   7 N    3.075 --     7 C    1.694    21 C    1.069
    21   6 C    3.867 --    22 O    1.740    20 N    1.069    23 C    0.936
    22   8 O    1.998 --    21 C    1.740
    23   6 C    3.932 --    25 O    0.983     5 C    0.959    21 C    0.936
                            24 C    0.917
    24   6 C    3.982 --    40 H    0.986    39 H    0.980    41 H    0.978
                            23 C    0.917
    25   8 O    1.901 --    23 C    0.983    42 H    0.826
    26   1 H    1.005 --     1 C    0.979
    27   1 H    1.008 --     1 C    0.985
    28   1 H    1.003 --     1 C    0.978
    29   1 H    1.006 --     9 C    0.984
    30   1 H    1.008 --     9 C    0.979
    31   1 H    1.002 --     9 C    0.985
    32   1 H    1.005 --    10 C    0.985
    33   1 H    1.008 --    10 C    0.978
    34   1 H    1.001 --    10 C    0.986
    35   1 H    0.966 --    11 N    0.880
    36   1 H    0.997 --    18 C    0.962
    37   1 H    0.998 --    18 C    0.982
    38   1 H    0.996 --    18 C    0.965
    39   1 H    1.008 --    24 C    0.980
    40   1 H    1.000 --    24 C    0.986
    41   1 H    0.999 --    24 C    0.978
    42   1 H    0.858 --    25 O    0.826
 ---------------------------------------------------------------------------

           -------------------------------------------------
          | TOTAL ENERGY              -82.969690209611 Eh   |
          | GRADIENT NORM               0.000912602218 Eh/α |
          | HOMO-LUMO GAP               1.803516318107 eV   |
           -------------------------------------------------

 * finished run on 2023/06/20 at 18:27:10.361
