   * xtb version 6.5.1 (579679a) compiled by 'ehlert@majestix' on 2022-07-11
          program call               : /lustre/hpc/kemi/ree/PhD/git/ReactivityQM/dep/xtb-6.5.1/bin/xtb --gfn 1 /lustre/hpc/kemi/ree/PhD/git/ReactivityQM/calculations/R02oxygendeprot/reac01prodN07/conf07/R02oxygendeprot_reac01prodN07_conf07_gfn1.xyz --opt --vfukui --chrg 0 --uhf 0 --alpb DMSO

   ID    Z sym.   atoms
    1    6 C      1, 3, 5, 7-10, 12, 14, 17-19, 22, 24
    2    8 O      2, 4, 13, 20, 23, 25
    3    7 N      6, 11, 15, 16, 21
    4    1 H      26-42

      * Solvation model:               ALPB
        Solvent                        DMSO
        Solvent mass                       7.8130E+01 g/mol
          :  Hamiltonian                  GFN1-xTB          :
 * total energy  :   -82.9493206 Eh     change       -0.3488765E-10 Eh
 * total energy  :   -82.9656995 Eh     change       -0.1637893E-01 Eh
 * total energy  :   -82.9728637 Eh     change       -0.7164213E-02 Eh
 * total energy  :   -82.9744154 Eh     change       -0.1551692E-02 Eh
 * total energy  :   -82.9753973 Eh     change       -0.9818675E-03 Eh
 * total energy  :   -82.9757422 Eh     change       -0.3449417E-03 Eh
 * total energy  :   -82.9759875 Eh     change       -0.2452959E-03 Eh
 * total energy  :   -82.9761464 Eh     change       -0.1589093E-03 Eh
 * total energy  :   -82.9762552 Eh     change       -0.1087386E-03 Eh
 * total energy  :   -82.9763234 Eh     change       -0.6827174E-04 Eh
 * total energy  :   -82.9769220 Eh     change       -0.1747750E-04 Eh
 * total energy  :   -82.9769402 Eh     change       -0.1826111E-04 Eh
 * total energy  :   -82.9769591 Eh     change       -0.1885617E-04 Eh
 * total energy  :   -82.9769842 Eh     change       -0.2509405E-04 Eh
 * total energy  :   -82.9770171 Eh     change       -0.3291827E-04 Eh
 * total energy  :   -82.9770433 Eh     change       -0.2616565E-04 Eh
 * total energy  :   -82.9770609 Eh     change       -0.1761210E-04 Eh
 * total energy  :   -82.9770715 Eh     change       -0.1064627E-04 Eh
 * total energy  :   -82.9770745 Eh     change       -0.2934280E-05 Eh
   *** GEOMETRY OPTIMIZATION CONVERGED AFTER 38 ITERATIONS ***

 final structure:
================
42
 xtb: 6.5.1 (579679a)
C            5.89026928468827        1.82281245401422       -0.76797956599551
O            4.75282161697229        1.01910462885112       -0.48345573673544
C            4.68530382022171       -0.17096723519750       -1.15412543885712
O            5.56313529593130       -0.48672095731119       -1.94056915251727
C            3.49967422856819       -0.93848882967824       -0.80633940427045
N            2.64948250586236       -0.33500921387130        0.09874224800160
C            1.57964446924733       -0.92348102584741        0.48756184581484
C            0.66772610529808       -0.23356452131603        1.48704102593525
C            1.28497192789847        1.10614596358608        1.89051020362558
C            0.42244760789147       -1.09319260143041        2.73047959298987
N           -0.62148036539975        0.08769832260031        0.82426336171122
C           -1.60842043135087       -0.77464881694899        0.57338161429300
O           -1.63137737064704       -1.97042464616519        0.78668124952149
C           -2.78522625662747       -0.08024704225667       -0.06176318771907
N           -2.85422833467727        1.14832697779812       -0.48455625200260
N           -4.10542566011097        1.27979957112839       -0.96302240147598
C           -4.55026444396129        2.54391150030072       -1.51004169497770
C           -4.76190442776597        0.14627914723743       -0.82167110847753
C           -6.15183709850593       -0.16279717886713       -1.19274659012253
O           -3.94979129008834       -0.72434247343200       -0.26186254157650
N            1.22815516817412       -2.17473707940141        0.02981771943393
C            1.96320979557952       -2.88254129587866       -0.88763580755284
O            1.57081260986490       -3.98265682578076       -1.26591053588778
C            3.23762387826654       -2.21895479657137       -1.36524336662580
O            3.94822655298467       -2.81604245003778       -2.19073605390640
H            6.81337941478818        1.29849894636129       -0.49907404102703
H            5.79504885518373        2.72940006429650       -0.17214975959141
H            5.92638145962811        2.08183165512297       -1.83111109015019
H            0.62641731211622        1.63012374000785        2.57982937949914
H            1.45202960654825        1.72450020883648        1.00964142942577
H            2.24434621540035        0.93126778295279        2.37552134192472
H            1.36336967753527       -1.21632973902490        3.26534285877150
H            0.03706485612098       -2.07620066189411        2.47030402605942
H           -0.29328496958001       -0.59778735136934        3.38388860233107
H           -0.77650745224823        1.05553394365685        0.59635222805278
H           -3.71942265290041        3.24226876891127       -1.45636972428067
H           -5.39168270143789        2.90491006942538       -0.92127548823592
H           -4.86072464165198        2.39381326798527       -2.54268088497910
H           -6.38763906368810       -1.18778051345896       -0.91251185970913
H           -6.82988240700046        0.52518865763915       -0.68613660141470
H           -6.28781424672168       -0.03129533811167       -2.26728114059827
H            0.36537154958824       -2.59320307685054        0.34505570129371

          :  Hamiltonian                  GFN1-xTB          :
         :: total energy             -82.977074466885 Eh    ::
         :: gradient norm              0.000461796853 Eh/a0 ::
         :: HOMO-LUMO gap              0.421596760119 eV    ::
         :: SCC energy               -83.765331318433 Eh    ::
         :: -> Gsolv                  -0.137837778645 Eh    ::
         :: repulsion energy           0.813374651380 Eh    ::

    * Orbital Energies and Occupations

         #    Occupation            Energy/Eh            Energy/eV
      -------------------------------------------------------------
         1        2.0000           -0.9348074             -25.4374
       ...           ...                  ...                  ...
        55        2.0000           -0.5084531             -13.8357
        56        2.0000           -0.5022234             -13.6662
        57        2.0000           -0.4981365             -13.5550
        58        2.0000           -0.4895087             -13.3202
        59        2.0000           -0.4828747             -13.1397
        60        2.0000           -0.4700863             -12.7917
        61        2.0000           -0.4681311             -12.7385
        62        2.0000           -0.4594703             -12.5028
        63        2.0000           -0.4438925             -12.0789
        64        2.0000           -0.4410523             -12.0016
        65        2.0000           -0.4221331             -11.4868
        66        2.0000           -0.3817817             -10.3888
        67        1.9994           -0.3708364             -10.0910 (HOMO)
        68        0.0006           -0.3553430              -9.6694 (LUMO)
        69                         -0.3422542              -9.3132
        70                         -0.2736954              -7.4476
        71                         -0.2474080              -6.7323
        72                         -0.2377419              -6.4693
        73                         -0.2000084              -5.4425
        74                         -0.1837964              -5.0014
        75                         -0.1708110              -4.6480
        76                         -0.1318406              -3.5876
        77                         -0.1254433              -3.4135
        78                         -0.1240205              -3.3748
       ...                                ...                  ...
       134                          0.7650713              20.8186
      -------------------------------------------------------------
                  HL-Gap            0.0154934 Eh            0.4216 eV

Wiberg/Mayer (AO) data.
largest (>0.10) Wiberg bond orders for each atom

     #   Z sym  total        # sym  WBO       # sym  WBO       # sym  WBO
 ---------------------------------------------------------------------------
     1   6 C    3.897 --    27 H    0.987    28 H    0.981    26 H    0.980
                             2 O    0.925
     2   8 O    2.138 --     3 C    1.029     1 C    0.925     4 O    0.110
     3   6 C    3.850 --     4 O    1.597     5 C    1.113     2 O    1.029
     4   8 O    1.871 --     3 C    1.597     2 O    0.110
     5   6 C    3.908 --    24 C    1.260     6 N    1.160     3 C    1.113
                            25 O    0.127
     6   7 N    3.032 --     7 C    1.625     5 C    1.160
     7   6 C    3.934 --     6 N    1.625    21 N    1.102     8 C    0.966
     8   6 C    3.913 --     9 C    1.002    10 C    0.991     7 C    0.966
                            11 N    0.887
     9   6 C    3.992 --     8 C    1.002    29 H    0.986    30 H    0.982
                            31 H    0.981
    10   6 C    3.988 --     8 C    0.991    34 H    0.985    32 H    0.984
                            33 H    0.978
    11   7 N    3.389 --    12 C    1.309    35 H    0.895     8 C    0.887
                            13 O    0.201
    12   6 C    3.925 --    13 O    1.589    11 N    1.309    14 C    0.953
    13   8 O    1.937 --    12 C    1.589    11 N    0.201
    14   6 C    3.833 --    15 N    1.601    20 O    1.064    12 C    0.953
    15   7 N    2.983 --    14 C    1.601    16 N    1.149
    16   7 N    3.631 --    18 C    1.422    15 N    1.149    17 C    0.910
    17   6 C    3.886 --    36 H    0.978    38 H    0.969    37 H    0.969
                            16 N    0.910
    18   6 C    3.843 --    16 N    1.422    20 O    1.157    19 C    1.041
    19   6 C    3.962 --    18 C    1.041    39 H    0.973    40 H    0.947
                            41 H    0.945
    20   8 O    2.388 --    18 C    1.157    14 C    1.064
    21   7 N    3.429 --    22 C    1.161     7 C    1.102    42 H    0.883
                            23 O    0.136
    22   6 C    3.878 --    23 O    1.583    21 N    1.161    24 C    0.965
    23   8 O    1.860 --    22 C    1.583    21 N    0.136
    24   6 C    3.940 --    25 O    1.532     5 C    1.260    22 C    0.965
    25   8 O    1.832 --    24 C    1.532     5 C    0.127
    26   1 H    1.013 --     1 C    0.980
    27   1 H    1.016 --     1 C    0.987
    28   1 H    1.013 --     1 C    0.981
    29   1 H    1.000 --     9 C    0.986
    30   1 H    1.010 --     9 C    0.982
    31   1 H    1.009 --     9 C    0.981
    32   1 H    1.001 --    10 C    0.984
    33   1 H    1.008 --    10 C    0.978
    34   1 H    0.999 --    10 C    0.985
    35   1 H    0.940 --    11 N    0.895
    36   1 H    0.992 --    17 C    0.978
    37   1 H    0.989 --    17 C    0.969
    38   1 H    0.990 --    17 C    0.969
    39   1 H    0.986 --    19 C    0.973
    40   1 H    0.986 --    19 C    0.947
    41   1 H    0.986 --    19 C    0.945
    42   1 H    0.950 --    21 N    0.883
 ---------------------------------------------------------------------------

           -------------------------------------------------
          | TOTAL ENERGY              -82.977074466885 Eh   |
          | GRADIENT NORM               0.000461796853 Eh/α |
          | HOMO-LUMO GAP               0.421596760119 eV   |
           -------------------------------------------------

 * finished run on 2023/06/21 at 17:22:53.288
