   * xtb version 6.5.1 (579679a) compiled by 'ehlert@majestix' on 2022-07-11
          program call               : /lustre/hpc/kemi/ree/PhD/git/ReactivityQM/dep/xtb-6.5.1/bin/xtb --gfn 1 /lustre/hpc/kemi/ree/PhD/git/ReactivityQM/calculations/R02deprot/reac01prodN04/conf05/R02deprot_reac01prodN04_conf05_gfn1.xyz --opt --vfukui --chrg 0 --uhf 0 --alpb DMSO

   ID    Z sym.   atoms
    1    6 C      1, 3, 5, 6, 8-11, 13, 15, 18, 19, 22, 24
    2    8 O      2, 4, 14, 20, 23, 25
    3    7 N      7, 12, 16, 17, 21
    4    1 H      26-42

      * Solvation model:               ALPB
        Solvent                        DMSO
        Solvent mass                       7.8130E+01 g/mol
          :  Hamiltonian                  GFN1-xTB          :
 * total energy  :   -82.9325989 Eh     change       -0.5749712E-10 Eh
 * total energy  :   -82.9536055 Eh     change       -0.2100658E-01 Eh
 * total energy  :   -82.9617002 Eh     change       -0.8094694E-02 Eh
 * total energy  :   -82.9638429 Eh     change       -0.2142744E-02 Eh
 * total energy  :   -82.9648492 Eh     change       -0.1006344E-02 Eh
 * total energy  :   -82.9651303 Eh     change       -0.2810254E-03 Eh
 * total energy  :   -82.9652814 Eh     change       -0.1511605E-03 Eh
 * total energy  :   -82.9653873 Eh     change       -0.1059089E-03 Eh
 * total energy  :   -82.9654812 Eh     change       -0.9385916E-04 Eh
 * total energy  :   -82.9655804 Eh     change       -0.9919484E-04 Eh
 * total energy  :   -82.9674217 Eh     change       -0.1296466E-04 Eh
 * total energy  :   -82.9674303 Eh     change       -0.8575616E-05 Eh
 * total energy  :   -82.9674388 Eh     change       -0.8457777E-05 Eh
 * total energy  :   -82.9674498 Eh     change       -0.1102648E-04 Eh
 * total energy  :   -82.9674575 Eh     change       -0.7659833E-05 Eh
 * total energy  :   -82.9674664 Eh     change       -0.8989060E-05 Eh
 * total energy  :   -82.9674754 Eh     change       -0.8997067E-05 Eh
 * total energy  :   -82.9674830 Eh     change       -0.7590471E-05 Eh
 * total energy  :   -82.9674871 Eh     change       -0.4112568E-05 Eh
   *** GEOMETRY OPTIMIZATION CONVERGED AFTER 44 ITERATIONS ***

 final structure:
================
42
 xtb: 6.5.1 (579679a)
C           -0.88012474470595        0.71213700518334        1.97122409824821
O           -2.08441173811422       -0.05070052555014        2.12615991556072
C           -2.79777208712220       -0.57698809687541        1.17845105787266
O           -3.91069664276192       -1.13155902304007        1.57861307885674
C           -4.24727706620132       -1.10626823686816        2.97808659914053
C           -2.49579529341005       -0.59370819159401       -0.21749717586913
N           -1.24490694219592       -0.15293254090293       -0.57446688758168
C           -0.94342958908967       -0.14560946545683       -1.85816735145161
C            0.44699707131484        0.35119419263778       -2.22969791892855
C            0.34985994492268        1.84958200568326       -2.55558854410070
C            1.01012533140176       -0.43904241359700       -3.41479713208428
N            1.29259188802846        0.15735584805865       -1.05209510173800
C            2.57253873271103        0.54132339843080       -0.94186724259930
O            3.26179604891190        1.01856431459257       -1.82821919627726
C            3.06747469784720        0.29797196781775        0.44398995817356
N            2.36268845927050       -0.15295691310483        1.44004696664256
N            3.19412491887975       -0.20710219519574        2.51932723761720
C            4.35276295879090        0.21635013258733        2.11327405530646
C            5.59031814470121        0.36465343857469        2.91088073375144
O            4.33505662214366        0.54972805382418        0.81387894724640
N           -1.73037247608222       -0.48346383442268       -2.86720813583044
C           -2.99067721741020       -0.92991894288346       -2.63352577719253
O           -3.76782904346592       -1.25958277315091       -3.52937671976344
C           -3.39045232547616       -1.01136816053055       -1.20150148359912
O           -4.62092112834398       -1.46701211301276       -0.98888466769410
H           -0.99890407925469        1.45758222399790        1.18522512620024
H           -0.04350138358695        0.05287235527473        1.73053520362551
H           -0.71524410170290        1.19110208016605        2.93622781929787
H           -4.34511366481574       -0.07264492037554        3.31127554531115
H           -3.46747807737311       -1.60896487535531        3.55085293228077
H           -5.19325496261666       -1.63337931671829        3.06888743419675
H           -0.35084847301863        1.99589427509636       -3.37668310695701
H           -0.00832598131714        2.39132513052920       -1.68154801330318
H            1.32516496032414        2.23991434675322       -2.84237010767588
H            1.97235325451687       -0.03019257917135       -3.71861415813722
H            0.31302769093470       -0.37867095301302       -4.25005126772170
H            1.13896289859237       -1.48425240111707       -3.13593759489239
H            0.81539950663911       -0.17776630240639       -0.22631143655730
H            5.46646391932845       -0.12664911744728        3.87275295100549
H            6.43443264394572       -0.07079932420616        2.37781151017780
H            5.80125417369059        1.42219687806839        3.07355604505228
H           -4.87605784883188       -1.51821443127869       -0.05664919561786

          :  Hamiltonian                  GFN1-xTB          :
         :: total energy             -82.967487141262 Eh    ::
         :: gradient norm              0.000454656017 Eh/a0 ::
         :: HOMO-LUMO gap              1.485577724312 eV    ::
         :: SCC energy               -83.735529888653 Eh    ::
         :: -> Gsolv                  -0.068878011306 Eh    ::
         :: repulsion energy           0.794733745686 Eh    ::

    * Orbital Energies and Occupations

         #    Occupation            Energy/Eh            Energy/eV
      -------------------------------------------------------------
         1        2.0000           -0.8889895             -24.1906
       ...           ...                  ...                  ...
        55        2.0000           -0.5039329             -13.7127
        56        2.0000           -0.4918158             -13.3830
        57        2.0000           -0.4890808             -13.3086
        58        2.0000           -0.4812149             -13.0945
        59        2.0000           -0.4648663             -12.6497
        60        2.0000           -0.4604760             -12.5302
        61        2.0000           -0.4597360             -12.5101
        62        2.0000           -0.4556255             -12.3982
        63        2.0000           -0.4493442             -12.2273
        64        2.0000           -0.4390459             -11.9470
        65        2.0000           -0.4316577             -11.7460
        66        2.0000           -0.4035920             -10.9823
        67        2.0000           -0.4024782             -10.9520 (HOMO)
        68                         -0.3478843              -9.4664 (LUMO)
        69                         -0.3061765              -8.3315
        70                         -0.2594710              -7.0606
        71                         -0.2563542              -6.9758
        72                         -0.2383977              -6.4871
        73                         -0.1945733              -5.2946
        74                         -0.1556540              -4.2356
        75                         -0.1450637              -3.9474
        76                         -0.1443723              -3.9286
        77                         -0.1417309              -3.8567
        78                         -0.1171609              -3.1881
       ...                                ...                  ...
       134                          0.7317209              19.9111
      -------------------------------------------------------------
                  HL-Gap            0.0545940 Eh            1.4856 eV

Wiberg/Mayer (AO) data.
largest (>0.10) Wiberg bond orders for each atom

     #   Z sym  total        # sym  WBO       # sym  WBO       # sym  WBO
 ---------------------------------------------------------------------------
     1   6 C    3.827 --    28 H    0.980    26 H    0.974    27 H    0.964
                             2 O    0.859
     2   8 O    2.287 --     3 C    1.219     1 C    0.859
     3   6 C    3.806 --     2 O    1.219     4 O    1.190     6 C    1.185
     4   8 O    2.272 --     3 C    1.190     5 C    0.859
     5   6 C    3.833 --    31 H    0.983    30 H    0.976    29 H    0.976
                             4 O    0.859
     6   6 C    3.953 --    24 C    1.361     3 C    1.185     7 N    1.166
     7   7 N    3.018 --     8 C    1.441     6 C    1.166
     8   6 C    3.951 --     7 N    1.441    21 N    1.381     9 C    0.975
     9   6 C    3.931 --    11 C    0.991    10 C    0.976     8 C    0.975
                            12 N    0.921
    10   6 C    3.991 --    33 H    0.986    32 H    0.985    34 H    0.981
                             9 C    0.976
    11   6 C    3.992 --     9 C    0.991    37 H    0.986    35 H    0.983
                            36 H    0.983
    12   7 N    3.367 --    13 C    1.280     9 C    0.921    38 H    0.881
                            14 O    0.185
    13   6 C    3.922 --    14 O    1.581    12 N    1.280    15 C    0.980
    14   8 O    1.899 --    13 C    1.581    12 N    0.185
    15   6 C    3.871 --    16 N    1.608    20 O    1.068    13 C    0.980
    16   7 N    3.036 --    15 C    1.608    17 N    1.195
    17   7 N    2.979 --    18 C    1.608    16 N    1.195
    18   6 C    3.871 --    17 N    1.608    20 O    1.081    19 C    1.031
    19   6 C    3.986 --    18 C    1.031    39 H    0.982    40 H    0.969
                            41 H    0.959
    20   8 O    2.331 --    18 C    1.081    15 C    1.068
    21   7 N    2.996 --     8 C    1.381    22 C    1.231    23 O    0.131
    22   6 C    3.929 --    23 O    1.545    21 N    1.231    24 C    1.025
    23   8 O    1.840 --    22 C    1.545    21 N    0.131
    24   6 C    3.885 --     6 C    1.361    25 O    1.139    22 C    1.025
    25   8 O    2.129 --    24 C    1.139    42 H    0.807
    26   1 H    1.019 --     1 C    0.974
    27   1 H    1.038 --     1 C    0.964
    28   1 H    1.005 --     1 C    0.980
    29   1 H    1.001 --     5 C    0.976
    30   1 H    1.001 --     5 C    0.976
    31   1 H    1.004 --     5 C    0.983
    32   1 H    1.004 --    10 C    0.985
    33   1 H    1.005 --    10 C    0.986
    34   1 H    1.008 --    10 C    0.981
    35   1 H    1.010 --    11 C    0.983
    36   1 H    1.017 --    11 C    0.983
    37   1 H    1.005 --    11 C    0.986
    38   1 H    0.972 --    12 N    0.881
    39   1 H    0.998 --    19 C    0.982
    40   1 H    0.997 --    19 C    0.969
    41   1 H    0.997 --    19 C    0.959
    42   1 H    0.851 --    25 O    0.807
 ---------------------------------------------------------------------------

           -------------------------------------------------
          | TOTAL ENERGY              -82.967487141262 Eh   |
          | GRADIENT NORM               0.000454656017 Eh/α |
          | HOMO-LUMO GAP               1.485577724312 eV   |
           -------------------------------------------------

 * finished run on 2023/06/20 at 18:09:49.256
