   * xtb version 6.5.1 (579679a) compiled by 'ehlert@majestix' on 2022-07-11
          program call               : /lustre/hpc/kemi/ree/PhD/git/ReactivityQM/dep/xtb-6.5.1/bin/xtb --gfn 1 /lustre/hpc/kemi/ree/PhD/git/ReactivityQM/calculations/R02/reac01prodE04/conf20/R02_reac01prodE04_conf20_gfn1.xyz --opt --vfukui --chrg -1 --uhf 0 --alpb DMSO

   ID    Z sym.   atoms
    1    6 C      1, 3, 5, 6, 8-11, 13, 15, 18, 19, 22, 24
    2    8 O      2, 4, 14, 20, 23, 25
    3    7 N      7, 12, 16, 17, 21
    4    1 H      26-43

      * Solvation model:               ALPB
        Solvent                        DMSO
        Solvent mass                       7.8130E+01 g/mol
          :  Hamiltonian                  GFN1-xTB          :
 * total energy  :   -83.8492309 Eh     change       -0.1676881E-11 Eh
 * total energy  :   -83.8635190 Eh     change       -0.1428805E-01 Eh
 * total energy  :   -83.8694865 Eh     change       -0.5967481E-02 Eh
 * total energy  :   -83.8706436 Eh     change       -0.1157106E-02 Eh
 * total energy  :   -83.8715025 Eh     change       -0.8589712E-03 Eh
 * total energy  :   -83.8719250 Eh     change       -0.4224624E-03 Eh
 * total energy  :   -83.8723498 Eh     change       -0.4248079E-03 Eh
 * total energy  :   -83.8728105 Eh     change       -0.4607008E-03 Eh
 * total energy  :   -83.8732791 Eh     change       -0.4685878E-03 Eh
 * total energy  :   -83.8737593 Eh     change       -0.4802121E-03 Eh
 * total energy  :   -83.8763820 Eh     change       -0.1154396E-04 Eh
 * total energy  :   -83.8763927 Eh     change       -0.1062177E-04 Eh
 * total energy  :   -83.8764015 Eh     change       -0.8883343E-05 Eh
 * total energy  :   -83.8764092 Eh     change       -0.7666958E-05 Eh
 * total energy  :   -83.8764150 Eh     change       -0.5753814E-05 Eh
 * total energy  :   -83.8764299 Eh     change       -0.1494075E-04 Eh
 * total energy  :   -83.8764354 Eh     change       -0.5453724E-05 Eh
 * total energy  :   -83.8764398 Eh     change       -0.4456834E-05 Eh
 * total energy  :   -83.8764429 Eh     change       -0.3080371E-05 Eh
   *** GEOMETRY OPTIMIZATION CONVERGED AFTER 46 ITERATIONS ***

 final structure:
================
43
 xtb: 6.5.1 (579679a)
C           -3.81559244512621        2.57212313980643       -1.93229194215562
O           -3.11380283979162        2.27621230178197       -0.72785015722235
C           -2.35462666034403        1.16119303966124       -0.73144311647702
O           -2.25385470054399        0.45500426447305       -1.71750489440111
C           -1.79387756739347        0.82890386721750        0.65733572406344
C           -1.43044601339394        2.09138043030829        1.44587855627762
N           -0.59287463615830        0.01277870338172        0.49336790467878
C           -0.72004660411462       -1.26004820758902        0.41762361173380
C            0.53266897337700       -2.09882350644902        0.17999922729793
C            0.83944223912035       -2.93451339535383        1.43032758805362
C            0.35262596970882       -2.99037197987693       -1.05527990780168
N            1.62542334183804       -1.15339920511776       -0.05563520997987
C            2.89049295274362       -1.50363931470486       -0.30328585675978
O            3.31878515390318       -2.65009158191255       -0.37106072417252
C            3.79482472864058       -0.33838192679599       -0.51859068933588
N            5.05981598456101       -0.38000435926754       -0.80659149334736
N            5.47838245160468        0.91218471105358       -0.93418631111691
C            4.44348648695916        1.66166652680182       -0.71659227187614
C            4.38510182439803        3.13976022002117       -0.73692641084445
O            3.34595365529542        0.93444362158542       -0.44799467834949
N           -1.89087618563426       -1.93303010003755        0.52908804194838
C           -3.02231417811947       -1.30607051846703        1.20373511257001
O           -3.91396755159857       -2.07193810456626        1.66350954886032
C           -2.91676369753904        0.04659891665652        1.28630708487190
O           -3.92174953670328        0.81223074031188        1.92872569849011
H           -4.48933034032872        1.75190023871271       -2.19777584885908
H           -3.11158846787243        2.73435095214449       -2.75399296773535
H           -4.38790694448656        3.48080628672696       -1.75192503560040
H           -0.68314140294693        2.66842385894848        0.90362063312760
H           -2.31343249310183        2.70837523441931        1.60401058075479
H           -1.02013955314549        1.80543074977496        2.41361465394338
H            1.02644280062441       -2.27698082726386        2.27834632600124
H           -0.00738334524777       -3.57811066511336        1.66118448385750
H            1.71690039808104       -3.55691187484575        1.26347079472989
H            0.16408012011523       -2.37477095057828       -1.93441800021299
H            1.24813104556347       -3.58595716669886       -1.22343276575570
H           -0.48834366664541       -3.66489173793315       -0.90774020776294
H            1.36651339004930       -0.17172244214628        0.01393115109538
H            5.35585559643514        3.53656652037613       -1.02207054651128
H            3.63036212383325        3.47641543795996       -1.44671058022475
H            4.11550277336821        3.51738110298550        0.24885711329664
H           -1.87328185891940       -2.93637060185514        0.61555502559114
H           -4.57545132106049        0.18190260145945        2.26310575526341

          :  Hamiltonian                  GFN1-xTB          :
         :: total energy             -83.876442893997 Eh    ::
         :: gradient norm              0.000917644135 Eh/a0 ::
         :: HOMO-LUMO gap              0.308170985676 eV    ::
         :: SCC energy               -84.640965414097 Eh    ::
         :: -> Gsolv                  -0.113713103919 Eh    ::
         :: repulsion energy           0.791588030392 Eh    ::

    * Orbital Energies and Occupations

         #    Occupation            Energy/Eh            Energy/eV
      -------------------------------------------------------------
         1        2.0000           -0.8581030             -23.3502
       ...           ...                  ...                  ...
        56        2.0000           -0.4735213             -12.8852
        57        2.0000           -0.4663054             -12.6888
        58        2.0000           -0.4619865             -12.5713
        59        2.0000           -0.4576668             -12.4537
        60        2.0000           -0.4527923             -12.3211
        61        2.0000           -0.4508224             -12.2675
        62        2.0000           -0.4419419             -12.0259
        63        2.0000           -0.4368538             -11.8874
        64        2.0000           -0.4313975             -11.7389
        65        2.0000           -0.4004520             -10.8969
        66        2.0000           -0.3895591             -10.6004
        67        2.0000           -0.3774492             -10.2709
        68        1.9949           -0.3103493              -8.4450 (HOMO)
        69        0.0051           -0.2990242              -8.1369 (LUMO)
        70                         -0.2511273              -6.8335
        71                         -0.2348019              -6.3893
        72                         -0.2196750              -5.9777
        73                         -0.1871510              -5.0926
        74                         -0.1407794              -3.8308
        75                         -0.1294772              -3.5233
        76                         -0.1272883              -3.4637
        77                         -0.1156763              -3.1477
        78                         -0.1100760              -2.9953
        79                         -0.0968334              -2.6350
       ...                                ...                  ...
       136                          0.7280395              19.8110
      -------------------------------------------------------------
                  HL-Gap            0.0113251 Eh            0.3082 eV

Wiberg/Mayer (AO) data.
largest (>0.10) Wiberg bond orders for each atom

     #   Z sym  total        # sym  WBO       # sym  WBO       # sym  WBO
 ---------------------------------------------------------------------------
     1   6 C    3.890 --    28 H    0.987    27 H    0.981    26 H    0.981
                             2 O    0.912
     2   8 O    2.175 --     3 C    1.072     1 C    0.912     4 O    0.117
     3   6 C    3.814 --     4 O    1.634     2 O    1.072     5 C    0.920
     4   8 O    1.893 --     3 C    1.634     2 O    0.117
     5   6 C    3.963 --     6 C    0.990     7 N    0.967    24 C    0.954
                             3 C    0.920
     6   6 C    3.996 --     5 C    0.990    29 H    0.988    31 H    0.987
                            30 H    0.985
     7   7 N    3.003 --     8 C    1.666     5 C    0.967    21 N    0.164
     8   6 C    3.951 --     7 N    1.666    21 N    1.202     9 C    0.968
     9   6 C    3.932 --    11 C    0.987    10 C    0.983     8 C    0.968
                            12 N    0.925
    10   6 C    3.992 --    32 H    0.986    33 H    0.984     9 C    0.983
                            34 H    0.981
    11   6 C    3.992 --     9 C    0.987    35 H    0.986    37 H    0.984
                            36 H    0.981
    12   7 N    3.387 --    13 C    1.303     9 C    0.925    38 H    0.872
                            14 O    0.186
    13   6 C    3.922 --    14 O    1.554    12 N    1.303    15 C    0.985
    14   8 O    1.876 --    13 C    1.554    12 N    0.186
    15   6 C    3.866 --    16 N    1.624    20 O    1.048    13 C    0.985
    16   7 N    2.992 --    15 C    1.624    17 N    1.193
    17   7 N    2.980 --    18 C    1.617    16 N    1.193
    18   6 C    3.871 --    17 N    1.617    20 O    1.073    19 C    1.030
    19   6 C    3.988 --    18 C    1.030    39 H    0.983    40 H    0.966
                            41 H    0.963
    20   8 O    2.314 --    18 C    1.073    15 C    1.048
    21   7 N    3.315 --     8 C    1.202    42 H    0.911    22 C    0.899
                             7 N    0.164
    22   6 C    3.915 --    24 C    1.513    23 O    1.367    21 N    0.899
    23   8 O    1.711 --    22 C    1.367    24 C    0.170
    24   6 C    3.791 --    22 C    1.513     5 C    0.954    25 O    0.945
                            23 O    0.170
    25   8 O    1.917 --    24 C    0.945    43 H    0.857
    26   1 H    1.011 --     1 C    0.981
    27   1 H    1.012 --     1 C    0.981
    28   1 H    1.014 --     1 C    0.987
    29   1 H    1.009 --     6 C    0.988
    30   1 H    1.017 --     6 C    0.985
    31   1 H    1.012 --     6 C    0.987
    32   1 H    1.004 --    10 C    0.986
    33   1 H    1.003 --    10 C    0.984
    34   1 H    1.011 --    10 C    0.981
    35   1 H    1.004 --    11 C    0.986
    36   1 H    1.011 --    11 C    0.981
    37   1 H    1.004 --    11 C    0.984
    38   1 H    0.972 --    12 N    0.872
    39   1 H    0.999 --    19 C    0.983
    40   1 H    0.998 --    19 C    0.966
    41   1 H    0.997 --    19 C    0.963
    42   1 H    0.963 --    21 N    0.911
    43   1 H    0.889 --    25 O    0.857
 ---------------------------------------------------------------------------

           -------------------------------------------------
          | TOTAL ENERGY              -83.876442893997 Eh   |
          | GRADIENT NORM               0.000917644135 Eh/α |
          | HOMO-LUMO GAP               0.308170985676 eV   |
           -------------------------------------------------

 * finished run on 2023/06/20 at 14:57:20.806
