   * xtb version 6.5.1 (579679a) compiled by 'ehlert@majestix' on 2022-07-11
          program call               : /lustre/hpc/kemi/ree/PhD/git/ReactivityQM/dep/xtb-6.5.1/bin/xtb --gfn 1 /lustre/hpc/kemi/ree/PhD/git/ReactivityQM/calculations/RaltegravirCLI/reac01prodN02/conf02/RaltegravirCLI_reac01prodN02_conf02_gfn1.xyz --opt --vfukui --chrg 1 --uhf 0 --alpb DMSO

   ID    Z sym.   atoms
    1    6 C      1, 2, 4, 5, 10
    2    8 O      3, 6
    3   17 Cl     7
    4    7 N      8, 9
    5    1 H      11-16

      * Solvation model:               ALPB
        Solvent                        DMSO
        Solvent mass                       7.8130E+01 g/mol
          :  Hamiltonian                  GFN1-xTB          :
 * total energy  :   -33.4328412 Eh     change       -0.1350031E-11 Eh
 * total energy  :   -33.4385301 Eh     change       -0.5688866E-02 Eh
 * total energy  :   -33.4401593 Eh     change       -0.1629236E-02 Eh
 * total energy  :   -33.4402859 Eh     change       -0.1266056E-03 Eh
 * total energy  :   -33.4403569 Eh     change       -0.7093777E-04 Eh
 * total energy  :   -33.4403683 Eh     change       -0.1146904E-04 Eh
 * total energy  :   -33.4403735 Eh     change       -0.5154384E-05 Eh
 * total energy  :   -33.4403766 Eh     change       -0.3100332E-05 Eh
   *** GEOMETRY OPTIMIZATION CONVERGED AFTER 8 ITERATIONS ***

 final structure:
================
16
 xtb: 6.5.1 (579679a)
C           -1.63270209177995       -1.42989054745329        0.38545066836394
C           -0.41846674840894       -0.63807307321851        0.14311174233640
O            0.77844539076312       -1.17391482679587        0.05338597598297
C            1.62930509136669       -0.15842500980309       -0.18741975719350
C            3.09235848773358       -0.41775832491022       -0.35176170022396
O            3.55825418679355       -1.51154143657568       -0.29092197649703
Cl           3.99297257211738        1.00063310714882       -0.63430102820002
N            0.99551487889022        0.97479394871136       -0.24815336884601
N           -0.29275842468513        0.66377793640344       -0.04197539297801
C           -1.29578523740222        1.71031015587665       -0.03331751116609
H           -2.38094934645654       -0.83392803245584        0.90360110386536
H           -2.04903470242962       -1.75235484483644       -0.57262812885970
H           -1.37980261695961       -2.31794346277371        0.96421075538355
H           -0.86681891521212        2.58558931043928       -0.51474923935008
H           -2.17212606936512        1.36122542311925       -0.57403240453444
H           -1.55840645496532        1.93749867712388        0.99949926191668

          :  Hamiltonian                  GFN1-xTB          :
         :: total energy             -33.440376579044 Eh    ::
         :: gradient norm              0.000558826495 Eh/a0 ::
         :: HOMO-LUMO gap              3.237379962031 eV    ::
         :: SCC energy               -33.735900265303 Eh    ::
         :: -> Gsolv                  -0.089538772812 Eh    ::
         :: repulsion energy           0.302694363702 Eh    ::

    * Orbital Energies and Occupations

         #    Occupation            Energy/Eh            Energy/eV
      -------------------------------------------------------------
         1        2.0000           -0.9823065             -26.7299
       ...           ...                  ...                  ...
        15        2.0000           -0.6353891             -17.2898
        16        2.0000           -0.6321507             -17.2017
        17        2.0000           -0.6197791             -16.8650
        18        2.0000           -0.6152351             -16.7414
        19        2.0000           -0.5962757             -16.2255
        20        2.0000           -0.5832123             -15.8700
        21        2.0000           -0.5765796             -15.6895
        22        2.0000           -0.5708156             -15.5327
        23        2.0000           -0.5588286             -15.2065
        24        2.0000           -0.5322249             -14.4826
        25        2.0000           -0.5221879             -14.2095
        26        2.0000           -0.5181744             -14.1002
        27        2.0000           -0.5085723             -13.8390 (HOMO)
        28                         -0.3896008             -10.6016 (LUMO)
        29                         -0.3538512              -9.6288
        30                         -0.2838393              -7.7237
        31                         -0.2394478              -6.5157
        32                         -0.1877265              -5.1083
        33                         -0.1762696              -4.7965
        34                         -0.1197709              -3.2591
        35                         -0.1185966              -3.2272
        36                         -0.1090397              -2.9671
        37                         -0.1078596              -2.9350
        38                         -0.1076755              -2.9300
       ...                                ...                  ...
        57                          0.7210327              19.6203
      -------------------------------------------------------------
                  HL-Gap            0.1189715 Eh            3.2374 eV

Wiberg/Mayer (AO) data.
largest (>0.10) Wiberg bond orders for each atom

     #   Z sym  total        # sym  WBO       # sym  WBO       # sym  WBO
 ---------------------------------------------------------------------------
     1   6 C    3.957 --     2 C    1.045    11 H    0.966    13 H    0.960
                            12 H    0.927
     2   6 C    3.837 --     9 N    1.406     3 O    1.161     1 C    1.045
     3   8 O    2.396 --     2 C    1.161     4 C    1.062
     4   6 C    3.859 --     8 N    1.604     3 O    1.062     5 C    0.981
     5   6 C    3.901 --     6 O    1.795     7 Cl   1.083     4 C    0.981
     6   8 O    2.067 --     5 C    1.795     7 Cl   0.174
     7  17 Cl   1.313 --     5 C    1.083     6 O    0.174
     8   7 N    2.994 --     4 C    1.604     9 N    1.169
     9   7 N    3.632 --     2 C    1.406     8 N    1.169    10 C    0.905
    10   6 C    3.877 --    14 H    0.976    15 H    0.974    16 H    0.963
                             9 N    0.905
    11   1 H    0.986 --     1 C    0.966
    12   1 H    0.981 --     1 C    0.927
    13   1 H    0.984 --     1 C    0.960
    14   1 H    0.991 --    10 C    0.976
    15   1 H    0.988 --    10 C    0.974
    16   1 H    0.987 --    10 C    0.963
 ---------------------------------------------------------------------------

           -------------------------------------------------
          | TOTAL ENERGY              -33.440376579044 Eh   |
          | GRADIENT NORM               0.000558826495 Eh/α |
          | HOMO-LUMO GAP               3.237379962031 eV   |
           -------------------------------------------------

 * finished run on 2023/06/20 at 14:54:30.610
