   * xtb version 6.5.1 (579679a) compiled by 'ehlert@majestix' on 2022-07-11
          program call               : /lustre/hpc/kemi/ree/PhD/git/ReactivityQM/dep/xtb-6.5.1/bin/xtb --gfn 1 /lustre/hpc/kemi/ree/PhD/git/ReactivityQM/calculations/R03/reac02prodN07/conf08/R03_reac02prodN07_conf08_gfn1.xyz --opt --vfukui --chrg 1 --uhf 0 --alpb DMSO

   ID    Z sym.   atoms
    1    6 C      1, 3, 5, 7-10, 12, 14, 17-19, 22, 23, 25
    2    8 O      2, 4, 13, 20, 24, 26
    3    7 N      6, 11, 15, 16, 21
    4    1 H      27-46

      * Solvation model:               ALPB
        Solvent                        DMSO
        Solvent mass                       7.8130E+01 g/mol
          :  Hamiltonian                  GFN1-xTB          :
 * total energy  :   -86.3394834 Eh     change       -0.1567457E-10 Eh
 * total energy  :   -86.3557370 Eh     change       -0.1625360E-01 Eh
 * total energy  :   -86.3606826 Eh     change       -0.4945682E-02 Eh
 * total energy  :   -86.3615967 Eh     change       -0.9140373E-03 Eh
 * total energy  :   -86.3622643 Eh     change       -0.6675969E-03 Eh
 * total energy  :   -86.3625967 Eh     change       -0.3323959E-03 Eh
 * total energy  :   -86.3629140 Eh     change       -0.3173476E-03 Eh
 * total energy  :   -86.3631693 Eh     change       -0.2552608E-03 Eh
 * total energy  :   -86.3633187 Eh     change       -0.1494179E-03 Eh
 * total energy  :   -86.3634032 Eh     change       -0.8454014E-04 Eh
 * total energy  :   -86.3639027 Eh     change       -0.1332426E-04 Eh
 * total energy  :   -86.3639152 Eh     change       -0.1252127E-04 Eh
 * total energy  :   -86.3639295 Eh     change       -0.1428381E-04 Eh
 * total energy  :   -86.3639462 Eh     change       -0.1673340E-04 Eh
 * total energy  :   -86.3639580 Eh     change       -0.1183569E-04 Eh
 * total energy  :   -86.3639669 Eh     change       -0.8902691E-05 Eh
 * total energy  :   -86.3639748 Eh     change       -0.7832864E-05 Eh
 * total energy  :   -86.3639800 Eh     change       -0.5267188E-05 Eh
 * total energy  :   -86.3639827 Eh     change       -0.2649058E-05 Eh
   *** GEOMETRY OPTIMIZATION CONVERGED AFTER 31 ITERATIONS ***

 final structure:
================
46
 xtb: 6.5.1 (579679a)
C           -5.49691544948540        0.53657377626014        3.24136828221074
O           -4.50068851366437        0.33032535556052        2.23523457597500
C           -4.72532940762649        0.90242579945680        1.05120649220730
O           -5.71152558265141        1.55729762625427        0.80821861153878
C           -3.61972545635348        0.63811505859244        0.08465185410632
N           -2.59499493112852       -0.14962740209138        0.53335749450646
C           -1.58269761593760       -0.44058312046568       -0.21472060641639
C           -0.53717752275894       -1.35133941879783        0.41264094921696
C           -0.66669367954459       -2.76398719432210       -0.17409253633586
C           -0.74177996355239       -1.39664573596164        1.93306483150856
N            0.79545410480124       -0.77370697936765        0.15353612923566
C            1.94223920969184       -1.39354805408377        0.46670057111890
O            2.07963052829933       -2.50898661015513        0.92032582001243
C            3.14656812704140       -0.54173716883399        0.16773363223134
N            4.38959985117040       -0.84869228583035        0.37606102371917
N            5.08743118405953        0.21996869923672       -0.05067105960545
C            6.53520811378639        0.21630382992088        0.01314471497976
C            4.26746601341555        1.14279981033146       -0.50718802102488
C            4.58427493924788        2.46372917733210       -1.07212375162274
O            3.03634504305246        0.68673264074647       -0.37916174309901
N           -1.48719345335804        0.00334998025433       -1.50974996977960
C           -0.39606960560447       -0.27895956955347       -2.44312919933700
C           -2.45595817969965        0.83107363244147       -2.05292754624238
O           -2.36990253235122        1.26274681870196       -3.19665594054710
C           -3.58138291172110        1.14507149702460       -1.18506112156402
O           -4.51903586496832        1.93303009676078       -1.71626086238030
H           -6.45550019650016        0.12771312028401        2.91179791411388
H           -5.60906703114034        1.60455977602898        3.44454539189806
H           -5.15050882549752        0.01721347472341        4.13259834983317
H           -0.01468482841687       -3.45478258793488        0.35648559833353
H           -0.40958170797389       -2.78059918360768       -1.23016051332991
H           -1.69860613253541       -3.09395830401815       -0.05845320719559
H            0.02307802300423       -2.02464965500956        2.38604761407906
H           -0.67552417861045       -0.39232601296112        2.34715901984997
H           -1.72463070774078       -1.80756172921720        2.15824185021630
H            0.83821419064399        0.19839201906220       -0.10083908406293
H            6.83707120655527       -0.47752259945885        0.79472786151227
H            6.87732297795635        1.22446802016601        0.23513803829783
H            6.92843850240384       -0.10648324024188       -0.95092056507307
H            5.18688591650121        3.03623751995993       -0.36467929191432
H            3.66273321263607        2.99875103098041       -1.29255892529561
H            5.16756309117321        2.34433737783339       -1.98737941474655
H            0.15001441543312        0.64554653154119       -2.62538169278411
H           -0.83318143867556       -0.62266045824709       -3.38108321862105
H            0.27382144243285       -1.03048618887354       -2.04809434706181
H           -4.25100137580782        2.17208282957437       -2.62269400266142

          :  Hamiltonian                  GFN1-xTB          :
         :: total energy             -86.363982690964 Eh    ::
         :: gradient norm              0.000725790432 Eh/a0 ::
         :: HOMO-LUMO gap              1.988393410154 eV    ::
         :: SCC energy               -87.209214529712 Eh    ::
         :: -> Gsolv                  -0.131331197640 Eh    ::
         :: repulsion energy           0.873740850326 Eh    ::

    * Orbital Energies and Occupations

         #    Occupation            Energy/Eh            Energy/eV
      -------------------------------------------------------------
         1        2.0000           -0.9412793             -25.6135
       ...           ...                  ...                  ...
        58        2.0000           -0.5264982             -14.3267
        59        2.0000           -0.5221290             -14.2079
        60        2.0000           -0.5190476             -14.1240
        61        2.0000           -0.5165066             -14.0549
        62        2.0000           -0.5132350             -13.9658
        63        2.0000           -0.4989382             -13.5768
        64        2.0000           -0.4948080             -13.4644
        65        2.0000           -0.4880554             -13.2807
        66        2.0000           -0.4826379             -13.1332
        67        2.0000           -0.4775078             -12.9936
        68        2.0000           -0.4657407             -12.6734
        69        2.0000           -0.4529979             -12.3267
        70        2.0000           -0.4354485             -11.8492 (HOMO)
        71                         -0.3623764              -9.8608 (LUMO)
        72                         -0.3462855              -9.4229
        73                         -0.3283556              -8.9350
        74                         -0.2925196              -7.9599
        75                         -0.2457071              -6.6860
        76                         -0.2444143              -6.6509
        77                         -0.1858442              -5.0571
        78                         -0.1732322              -4.7139
        79                         -0.1627837              -4.4296
        80                         -0.1488474              -4.0503
        81                         -0.1397796              -3.8036
       ...                                ...                  ...
       144                          0.7383564              20.0917
      -------------------------------------------------------------
                  HL-Gap            0.0730721 Eh            1.9884 eV

Wiberg/Mayer (AO) data.
largest (>0.10) Wiberg bond orders for each atom

     #   Z sym  total        # sym  WBO       # sym  WBO       # sym  WBO
 ---------------------------------------------------------------------------
     1   6 C    3.871 --    29 H    0.986    28 H    0.979    27 H    0.979
                             2 O    0.897
     2   8 O    2.200 --     3 C    1.111     1 C    0.897     4 O    0.135
     3   6 C    3.852 --     4 O    1.663     2 O    1.111     5 C    0.998
     4   8 O    1.927 --     3 C    1.663     2 O    0.135
     5   6 C    3.962 --    25 C    1.490     6 N    1.186     3 C    0.998
     6   7 N    3.034 --     7 C    1.579     5 C    1.186
     7   6 C    3.934 --     6 N    1.579    21 N    1.167     8 C    0.977
     8   6 C    3.919 --    10 C    0.988     9 C    0.981     7 C    0.977
                            11 N    0.905
     9   6 C    3.985 --    32 H    0.983     8 C    0.981    31 H    0.979
                            30 H    0.977
    10   6 C    3.986 --     8 C    0.988    34 H    0.984    33 H    0.983
                            35 H    0.982
    11   7 N    3.379 --    12 C    1.285     8 C    0.905    36 H    0.891
                            13 O    0.195
    12   6 C    3.925 --    13 O    1.611    11 N    1.285    14 C    0.956
    13   8 O    1.940 --    12 C    1.611    11 N    0.195
    14   6 C    3.841 --    15 N    1.620    20 O    1.051    12 C    0.956
    15   7 N    2.985 --    14 C    1.620    16 N    1.151
    16   7 N    3.631 --    18 C    1.427    15 N    1.151    17 C    0.909
    17   6 C    3.884 --    37 H    0.976    38 H    0.976    39 H    0.963
                            16 N    0.909
    18   6 C    3.839 --    16 N    1.427    20 O    1.144    19 C    1.042
    19   6 C    3.960 --    18 C    1.042    41 H    0.972    40 H    0.946
                            42 H    0.942
    20   8 O    2.373 --    18 C    1.144    14 C    1.051
    21   7 N    3.507 --     7 C    1.167    23 C    1.126    22 C    0.927
                            24 O    0.135
    22   6 C    3.919 --    45 H    0.979    43 H    0.974    44 H    0.973
                            21 N    0.927
    23   6 C    3.913 --    24 O    1.563    21 N    1.126    25 C    1.074
    24   8 O    1.906 --    23 C    1.563    21 N    0.135
    25   6 C    3.922 --     5 C    1.490    26 O    1.114    23 C    1.074
    26   8 O    2.093 --    25 C    1.114    46 H    0.805
    27   1 H    1.007 --     1 C    0.979
    28   1 H    1.007 --     1 C    0.979
    29   1 H    1.011 --     1 C    0.986
    30   1 H    1.007 --     9 C    0.977
    31   1 H    1.000 --     9 C    0.979
    32   1 H    1.000 --     9 C    0.983
    33   1 H    1.003 --    10 C    0.983
    34   1 H    1.006 --    10 C    0.984
    35   1 H    1.011 --    10 C    0.982
    36   1 H    0.931 --    11 N    0.891
    37   1 H    0.992 --    17 C    0.976
    38   1 H    0.989 --    17 C    0.976
    39   1 H    0.989 --    17 C    0.963
    40   1 H    0.986 --    19 C    0.946
    41   1 H    0.985 --    19 C    0.972
    42   1 H    0.985 --    19 C    0.942
    43   1 H    1.001 --    22 C    0.974
    44   1 H    1.002 --    22 C    0.973
    45   1 H    1.008 --    22 C    0.979
    46   1 H    0.845 --    26 O    0.805
 ---------------------------------------------------------------------------

           -------------------------------------------------
          | TOTAL ENERGY              -86.363982690964 Eh   |
          | GRADIENT NORM               0.000725790432 Eh/α |
          | HOMO-LUMO GAP               1.988393410154 eV   |
           -------------------------------------------------

 * finished run on 2023/06/20 at 15:42:19.305
