   * xtb version 6.5.1 (579679a) compiled by 'ehlert@majestix' on 2022-07-11
          program call               : /lustre/hpc/kemi/ree/PhD/git/ReactivityQM/dep/xtb-6.5.1/bin/xtb --gfn 1 /lustre/hpc/kemi/ree/PhD/git/ReactivityQM/calculations/R02methylcation/reac01prodE09/conf13/R02methylcation_reac01prodE09_conf13_gfn1.xyz --opt --vfukui --chrg -2 --uhf 0 --alpb DMSO

   ID    Z sym.   atoms
    1    6 C      1, 3, 5, 7-10, 12, 14, 16, 17, 20, 22, 24
    2    8 O      2, 4, 13, 15, 23, 25
    3    7 N      6, 11, 18, 19, 21
    4    1 H      26-42

      * Solvation model:               ALPB
        Solvent                        DMSO
        Solvent mass                       7.8130E+01 g/mol
          :  Hamiltonian                  GFN1-xTB          :
 * total energy  :   -83.5958868 Eh     change       -0.3351914E-09 Eh
 * total energy  :   -83.6109036 Eh     change       -0.1501681E-01 Eh
 * total energy  :   -83.6162940 Eh     change       -0.5390426E-02 Eh
 * total energy  :   -83.6174551 Eh     change       -0.1161098E-02 Eh
 * total energy  :   -83.6189254 Eh     change       -0.1470234E-02 Eh
 * total energy  :   -83.6210394 Eh     change       -0.2114064E-02 Eh
 * total energy  :   -83.6227487 Eh     change       -0.1709318E-02 Eh
 * total energy  :   -83.6248857 Eh     change       -0.2136918E-02 Eh
 * total energy  :   -83.6268669 Eh     change       -0.1981218E-02 Eh
 * total energy  :   -83.6281843 Eh     change       -0.1317387E-02 Eh
 * total energy  :   -83.6350421 Eh     change       -0.7757835E-05 Eh
 * total energy  :   -83.6350522 Eh     change       -0.1006264E-04 Eh
 * total energy  :   -83.6350615 Eh     change       -0.9335719E-05 Eh
 * total energy  :   -83.6350688 Eh     change       -0.7333214E-05 Eh
 * total energy  :   -83.6350757 Eh     change       -0.6870206E-05 Eh
 * total energy  :   -83.6350823 Eh     change       -0.6622200E-05 Eh
 * total energy  :   -83.6350883 Eh     change       -0.5941866E-05 Eh
 * total energy  :   -83.6350936 Eh     change       -0.5360215E-05 Eh
 * total energy  :   -83.6350980 Eh     change       -0.4360387E-05 Eh
   *** GEOMETRY OPTIMIZATION CONVERGED AFTER 58 ITERATIONS ***

 final structure:
================
42
 xtb: 6.5.1 (579679a)
C            6.99370996066131       -0.99887692286610        0.18684458482724
O            5.85385564199949       -0.25907318869602        0.59255656849685
C            4.72354212623946       -0.46858272103276       -0.13815882772983
O            4.73297704677080       -1.26691218255445       -1.07097138199074
C            3.57330246296717        0.31382516972273        0.27711732663391
N            2.45398721347351        0.07305481090879       -0.50441769816486
C            1.35406787922277        0.69033913141998       -0.27739564801777
C            0.14365616296749        0.50459213277381       -1.17700758374173
C            0.22207780652857        1.61039496724460       -2.24632262119562
C            0.20478963320938       -0.88759465138729       -1.82759587723353
N           -1.04857678364575        0.68001296482923       -0.34708130360270
C           -2.33765970970090        0.38584927785747       -0.96645350982197
O           -2.50082752847120        0.53573303816299       -2.21624393834480
C           -3.34483917089484        0.17074708967795       -0.06213835422852
O           -3.10767804758356       -0.18614215288647        1.30387671576612
C           -4.18841359669241       -0.88784571108311        1.66000313995311
C           -4.25687742223307       -1.43013441374513        3.04702565000617
N           -5.10329655115748       -1.04637036185044        0.78153835481465
N           -4.65687306067540       -0.37933321692594       -0.41735530955365
C           -5.63884781633325        0.67361658552178       -0.72432697675287
N            1.24375276892018        1.62505939485183        0.73152220584613
C            2.26180425811111        1.96223402647645        1.57661455010371
O            2.07925569455461        2.80814540185202        2.45451144914139
C            3.57407695863376        1.24592565942855        1.34653378793269
O            4.53962684685617        1.51847115209019        2.08971424830117
H            7.80249851418482       -0.74399115094470        0.87070819946747
H            6.79831844992726       -2.07531563222212        0.23266821478840
H            7.28247128616031       -0.73892108330102       -0.83702793325098
H            1.18731855584570        1.56435153321906       -2.75141918945506
H            0.11782708029893        2.58595758870036       -1.77171604528038
H           -0.56894240815855        1.49328442878849       -2.98478752821508
H            1.16470693403316       -1.01578983352100       -2.32859224582753
H            0.10394103892283       -1.66016423824636       -1.06492754336265
H           -0.59589935816026       -1.00007028174049       -2.55723948287260
H           -0.96396132305328        0.12686527004046        0.50280214007157
H           -3.47430302300471       -2.17260289064258        3.20298381345418
H           -5.22706955066965       -1.89221813084179        3.21226987907520
H           -4.11012119261273       -0.62662811184452        3.76774397087357
H           -5.72427135541819        1.39758822106479        0.09273017926808
H           -6.60760642782222        0.20655677257004       -0.89864364458509
H           -5.30716283714546        1.17982431757554       -1.63049424308154
H            0.35166584294443        2.07987194154627        0.87055190748041

          :  Hamiltonian                  GFN1-xTB          :
         :: total energy             -83.635097994481 Eh    ::
         :: gradient norm              0.000315918912 Eh/a0 ::
         :: HOMO-LUMO gap              0.803435030879 eV    ::
         :: SCC energy               -84.376468604692 Eh    ::
         :: -> Gsolv                  -0.259790061005 Eh    ::
         :: repulsion energy           0.766649457283 Eh    ::

    * Orbital Energies and Occupations

         #    Occupation            Energy/Eh            Energy/eV
      -------------------------------------------------------------
         1        2.0000           -0.7903653             -21.5069
       ...           ...                  ...                  ...
        56        2.0000           -0.4477216             -12.1831
        57        2.0000           -0.4421137             -12.0305
        58        2.0000           -0.4272089             -11.6249
        59        2.0000           -0.4241424             -11.5415
        60        2.0000           -0.4173444             -11.3565
        61        2.0000           -0.4097933             -11.1510
        62        2.0000           -0.4000096             -10.8848
        63        2.0000           -0.3809790             -10.3670
        64        2.0000           -0.3796937             -10.3320
        65        2.0000           -0.3667649              -9.9802
        66        2.0000           -0.3597987              -9.7906
        67        2.0000           -0.3521939              -9.5837
        68        2.0000           -0.2886593              -7.8548 (HOMO)
        69        0.0000           -0.2591336              -7.0514 (LUMO)
        70                         -0.2205494              -6.0015
        71                         -0.2043871              -5.5617
        72                         -0.1861789              -5.0662
        73                         -0.1348746              -3.6701
        74                         -0.1197444              -3.2584
        75                         -0.1180230              -3.2116
        76                         -0.0972650              -2.6467
        77                         -0.0920505              -2.5048
        78                         -0.0896319              -2.4390
        79                         -0.0886232              -2.4116
       ...                                ...                  ...
       134                          0.7584017              20.6372
      -------------------------------------------------------------
                  HL-Gap            0.0295257 Eh            0.8034 eV

Wiberg/Mayer (AO) data.
largest (>0.10) Wiberg bond orders for each atom

     #   Z sym  total        # sym  WBO       # sym  WBO       # sym  WBO
 ---------------------------------------------------------------------------
     1   6 C    3.903 --    26 H    0.987    28 H    0.980    27 H    0.980
                             2 O    0.930
     2   8 O    2.153 --     3 C    1.036     1 C    0.930     4 O    0.106
     3   6 C    3.848 --     4 O    1.566     5 C    1.127     2 O    1.036
     4   8 O    1.844 --     3 C    1.566     2 O    0.106
     5   6 C    3.919 --    24 C    1.279     6 N    1.144     3 C    1.127
                            25 O    0.130
     6   7 N    3.024 --     7 C    1.635     5 C    1.144
     7   6 C    3.925 --     6 N    1.635    21 N    1.095     8 C    0.976
     8   6 C    3.966 --    10 C    0.988     9 C    0.979     7 C    0.976
                            11 N    0.969
     9   6 C    3.993 --    29 H    0.989    30 H    0.987     8 C    0.979
                            31 H    0.977
    10   6 C    3.996 --     8 C    0.988    33 H    0.987    32 H    0.985
                            34 H    0.983
    11   7 N    3.080 --     8 C    0.969    12 C    0.950    35 H    0.937
    12   6 C    3.925 --    14 C    1.499    13 O    1.351    11 N    0.950
    13   8 O    1.714 --    12 C    1.351    14 C    0.169
    14   6 C    3.636 --    12 C    1.499    19 N    0.948    15 O    0.869
                            13 O    0.169
    15   8 O    2.187 --    16 C    1.089    14 C    0.869    18 N    0.134
    16   6 C    3.907 --    18 N    1.710    15 O    1.089    17 C    1.014
    17   6 C    3.995 --    16 C    1.014    37 H    0.987    38 H    0.974
                            36 H    0.972
    18   7 N    2.947 --    16 C    1.710    19 N    0.985    15 O    0.134
    19   7 N    3.060 --    18 N    0.985    20 C    0.970    14 C    0.948
    20   6 C    3.982 --    40 H    0.989    41 H    0.987    39 H    0.983
                            19 N    0.970
    21   7 N    3.438 --    22 C    1.179     7 C    1.095    42 H    0.893
                            23 O    0.136
    22   6 C    3.883 --    23 O    1.559    21 N    1.179    24 C    0.972
    23   8 O    1.840 --    22 C    1.559    21 N    0.136
    24   6 C    3.944 --    25 O    1.504     5 C    1.279    22 C    0.972
    25   8 O    1.810 --    24 C    1.504     5 C    0.130
    26   1 H    1.016 --     1 C    0.987
    27   1 H    1.016 --     1 C    0.980
    28   1 H    1.015 --     1 C    0.980
    29   1 H    1.009 --     9 C    0.989
    30   1 H    1.012 --     9 C    0.987
    31   1 H    1.031 --     9 C    0.977
    32   1 H    1.020 --    10 C    0.985
    33   1 H    1.009 --    10 C    0.987
    34   1 H    1.022 --    10 C    0.983
    35   1 H    0.978 --    11 N    0.937
    36   1 H    1.004 --    17 C    0.972
    37   1 H    1.006 --    17 C    0.987
    38   1 H    1.003 --    17 C    0.974
    39   1 H    1.022 --    20 C    0.983
    40   1 H    1.026 --    20 C    0.989
    41   1 H    1.031 --    20 C    0.987
    42   1 H    0.962 --    21 N    0.893
 ---------------------------------------------------------------------------

           -------------------------------------------------
          | TOTAL ENERGY              -83.635097994481 Eh   |
          | GRADIENT NORM               0.000315918912 Eh/α |
          | HOMO-LUMO GAP               0.803435030879 eV   |
           -------------------------------------------------

 * finished run on 2023/06/21 at 17:18:59.972
