   * xtb version 6.5.1 (579679a) compiled by 'ehlert@majestix' on 2022-07-11
          program call               : /lustre/hpc/kemi/ree/PhD/git/ReactivityQM/dep/xtb-6.5.1/bin/xtb --gfn 1 /lustre/hpc/kemi/ree/PhD/git/ReactivityQM/calculations/R02/reac01prodE06/conf17/R02_reac01prodE06_conf17_gfn1.xyz --opt --vfukui --chrg -1 --uhf 0 --alpb DMSO

   ID    Z sym.   atoms
    1    6 C      1, 3, 5, 6, 8, 11-15, 17, 19, 22, 23
    2    8 O      2, 4, 7, 9, 18, 24
    3    7 N      10, 16, 20, 21, 25
    4    1 H      26-43

      * Solvation model:               ALPB
        Solvent                        DMSO
        Solvent mass                       7.8130E+01 g/mol
          :  Hamiltonian                  GFN1-xTB          :
 * total energy  :   -83.8646701 Eh     change       -0.3609557E-11 Eh
 * total energy  :   -83.8766586 Eh     change       -0.1198848E-01 Eh
 * total energy  :   -83.8816900 Eh     change       -0.5031370E-02 Eh
 * total energy  :   -83.8829243 Eh     change       -0.1234280E-02 Eh
 * total energy  :   -83.8837565 Eh     change       -0.8321792E-03 Eh
 * total energy  :   -83.8840751 Eh     change       -0.3186284E-03 Eh
 * total energy  :   -83.8842947 Eh     change       -0.2195703E-03 Eh
 * total energy  :   -83.8844867 Eh     change       -0.1920430E-03 Eh
 * total energy  :   -83.8846815 Eh     change       -0.1947626E-03 Eh
 * total energy  :   -83.8849141 Eh     change       -0.2325886E-03 Eh
 * total energy  :   -83.8872867 Eh     change       -0.6660574E-05 Eh
 * total energy  :   -83.8872922 Eh     change       -0.5518937E-05 Eh
 * total energy  :   -83.8872979 Eh     change       -0.5746487E-05 Eh
 * total energy  :   -83.8873048 Eh     change       -0.6852468E-05 Eh
 * total energy  :   -83.8873134 Eh     change       -0.8552632E-05 Eh
 * total energy  :   -83.8873191 Eh     change       -0.5731630E-05 Eh
 * total energy  :   -83.8873186 Eh     change        0.4959190E-06 Eh
 * total energy  :   -83.8873241 Eh     change       -0.5479602E-05 Eh
 * total energy  :   -83.8873290 Eh     change       -0.4906973E-05 Eh
   *** GEOMETRY OPTIMIZATION CONVERGED AFTER 68 ITERATIONS ***

 final structure:
================
43
 xtb: 6.5.1 (579679a)
C           -3.79414906942717        2.76605449330414        2.77348631975220
O           -3.67100203362260        1.59557193246251        1.97333486277595
C           -2.43186141918351        1.28806057340024        1.55319869118717
O           -1.47724956904353        1.98390630052121        1.84709107255462
C           -2.34676027401843        0.06072080819532        0.71197514706307
C           -3.44333948725961       -0.72885095116079        0.37328503574379
O           -4.72776751890678       -0.52839516540230        0.88053910022334
C           -3.30691323912545       -1.76967503269462       -0.58655149275456
O           -4.25106762496960       -2.47737877715323       -0.98375254617344
N           -2.04474578332554       -1.89302279378348       -1.15888144565310
C           -0.87370364741596       -1.42213048976710       -0.42630742722509
C           -0.43051942841884       -2.50273649180043        0.59079781923405
C            0.26583297197820       -1.11140097678535       -1.45462111414934
C           -0.27498909642752       -0.16462751439775       -2.53494899527660
C            0.86208682041381       -2.36842180753145       -2.09094157987784
N            1.28383811133493       -0.40016950353361       -0.67676111831072
C            2.48393120905285       -0.01833689575569       -1.12438403112987
O            2.99252389583019       -0.32008424925842       -2.19593811823439
C            3.17780842335224        0.83758445465865       -0.11654459448759
N            2.70117960087259        1.21557737734337        1.03007725574023
N            3.65442804288933        1.99762555525321        1.61575637773002
C            4.65003613602577        2.04726455640460        0.78700815719892
C            5.92785120094552        2.77405584007966        0.95715337445652
O            4.41238721337824        1.33651293656159       -0.32617969781195
N           -1.11012031785141       -0.19052087871426        0.29039405577881
H           -3.21941439253415        2.66096357546717        3.69839973116868
H           -3.43216712405732        3.64359060555884        2.22952084437989
H           -4.85145098486134        2.88339201927722        3.00538665885965
H           -5.28542821602475       -1.20737700063027        0.46593635077063
H           -1.91113736838238       -2.76819194963769       -1.64361951677279
H            0.52054172638149       -2.22169935616419        1.03983851179096
H           -1.18153643311709       -2.58323309081028        1.37578706041682
H           -0.32883149177208       -3.47153051911101        0.10654430508084
H            0.52633098483737        0.14245500248926       -3.20553615790562
H           -1.04688737928512       -0.67145289669321       -3.11242597631385
H           -0.70810410995228        0.71878675531987       -2.06425238537568
H            1.51850544071630       -2.10084483028459       -2.91788228992299
H            1.44072033730937       -2.93430274699824       -1.36284959534589
H            0.06593000438528       -3.00172121287819       -2.47805372878977
H            0.91682075761882        0.03865256408744        0.17008054706498
H            6.76520290427350        2.08012133017613        0.89219579289531
H            5.93926624818872        3.26898882129212        1.92499756623607
H            6.04392697918937        3.51622162908554        0.16764317342278

          :  Hamiltonian                  GFN1-xTB          :
         :: total energy             -83.887328975286 Eh    ::
         :: gradient norm              0.000477636923 Eh/a0 ::
         :: HOMO-LUMO gap              0.740325967479 eV    ::
         :: SCC energy               -84.643973405458 Eh    ::
         :: -> Gsolv                  -0.109478162607 Eh    ::
         :: repulsion energy           0.784332381076 Eh    ::

    * Orbital Energies and Occupations

         #    Occupation            Energy/Eh            Energy/eV
      -------------------------------------------------------------
         1        2.0000           -0.8547107             -23.2579
       ...           ...                  ...                  ...
        56        2.0000           -0.4761353             -12.9563
        57        2.0000           -0.4725989             -12.8601
        58        2.0000           -0.4624916             -12.5850
        59        2.0000           -0.4504001             -12.2560
        60        2.0000           -0.4495028             -12.2316
        61        2.0000           -0.4440004             -12.0819
        62        2.0000           -0.4387089             -11.9379
        63        2.0000           -0.4314230             -11.7396
        64        2.0000           -0.4257957             -11.5865
        65        2.0000           -0.4084083             -11.1134
        66        2.0000           -0.3956948             -10.7674
        67        2.0000           -0.3832427             -10.4286
        68        2.0000           -0.3231140              -8.7924 (HOMO)
        69        0.0000           -0.2959075              -8.0521 (LUMO)
        70                         -0.2703825              -7.3575
        71                         -0.2491867              -6.7807
        72                         -0.1924768              -5.2376
        73                         -0.1846942              -5.0258
        74                         -0.1402053              -3.8152
        75                         -0.1282455              -3.4897
        76                         -0.1173037              -3.1920
        77                         -0.1126959              -3.0666
        78                         -0.1039942              -2.8298
        79                         -0.0975817              -2.6553
       ...                                ...                  ...
       136                          0.7372146              20.0606
      -------------------------------------------------------------
                  HL-Gap            0.0272065 Eh            0.7403 eV

Wiberg/Mayer (AO) data.
largest (>0.10) Wiberg bond orders for each atom

     #   Z sym  total        # sym  WBO       # sym  WBO       # sym  WBO
 ---------------------------------------------------------------------------
     1   6 C    3.892 --    28 H    0.987    26 H    0.980    27 H    0.980
                             2 O    0.916
     2   8 O    2.187 --     3 C    1.085     1 C    0.916     4 O    0.123
     3   6 C    3.823 --     4 O    1.636     2 O    1.085     5 C    1.007
     4   8 O    1.891 --     3 C    1.636     2 O    0.123
     5   6 C    3.971 --    25 N    1.399     6 C    1.345     3 C    1.007
     6   6 C    3.871 --     5 C    1.345     8 C    1.191     7 O    0.980
                            25 N    0.176
     7   8 O    1.953 --     6 C    0.980    29 H    0.847
     8   6 C    3.916 --     9 O    1.475     6 C    1.191    10 N    1.094
     9   8 O    1.806 --     8 C    1.475    10 N    0.103
    10   7 N    3.208 --     8 C    1.094    11 C    0.941    30 H    0.917
                             9 O    0.103
    11   6 C    3.945 --    25 N    1.006    12 C    0.972    13 C    0.947
                            10 N    0.941
    12   6 C    3.996 --    31 H    0.985    33 H    0.985    32 H    0.985
                            11 C    0.972
    13   6 C    3.926 --    15 C    1.001    14 C    0.991    11 C    0.947
                            16 N    0.920
    14   6 C    3.995 --    13 C    0.991    34 H    0.986    35 H    0.984
                            36 H    0.983
    15   6 C    3.994 --    13 C    1.001    38 H    0.984    39 H    0.984
                            37 H    0.980
    16   7 N    3.386 --    17 C    1.299    13 C    0.920    40 H    0.875
                            18 O    0.186
    17   6 C    3.924 --    18 O    1.562    16 N    1.299    19 C    0.979
    18   8 O    1.881 --    17 C    1.562    16 N    0.186
    19   6 C    3.868 --    20 N    1.620    24 O    1.059    17 C    0.979
    20   7 N    3.010 --    19 C    1.620    21 N    1.191
    21   7 N    2.980 --    22 C    1.616    20 N    1.191
    22   6 C    3.874 --    21 N    1.616    24 O    1.080    23 C    1.030
    23   6 C    3.988 --    22 C    1.030    42 H    0.983    41 H    0.965
                            43 H    0.964
    24   8 O    2.322 --    22 C    1.080    19 C    1.059
    25   7 N    2.945 --     5 C    1.399    11 C    1.006     6 C    0.176
    26   1 H    1.012 --     1 C    0.980
    27   1 H    1.012 --     1 C    0.980
    28   1 H    1.014 --     1 C    0.987
    29   1 H    0.888 --     7 O    0.847
    30   1 H    0.963 --    10 N    0.917
    31   1 H    1.010 --    12 C    0.985
    32   1 H    1.007 --    12 C    0.985
    33   1 H    1.005 --    12 C    0.985
    34   1 H    1.007 --    14 C    0.986
    35   1 H    1.014 --    14 C    0.984
    36   1 H    1.017 --    14 C    0.983
    37   1 H    1.016 --    15 C    0.980
    38   1 H    1.005 --    15 C    0.984
    39   1 H    1.003 --    15 C    0.984
    40   1 H    0.991 --    16 N    0.875
    41   1 H    0.998 --    23 C    0.965
    42   1 H    1.000 --    23 C    0.983
    43   1 H    0.998 --    23 C    0.964
 ---------------------------------------------------------------------------

           -------------------------------------------------
          | TOTAL ENERGY              -83.887328975286 Eh   |
          | GRADIENT NORM               0.000477636923 Eh/α |
          | HOMO-LUMO GAP               0.740325967479 eV   |
           -------------------------------------------------

 * finished run on 2023/06/20 at 15:00:39.935
