   * xtb version 6.5.1 (579679a) compiled by 'ehlert@majestix' on 2022-07-11
          program call               : /lustre/hpc/kemi/ree/PhD/git/ReactivityQM/dep/xtb-6.5.1/bin/xtb --gfn 1 /lustre/hpc/kemi/ree/PhD/git/ReactivityQM/calculations/R02methylcation/reac01prodN10/conf08/R02methylcation_reac01prodN10_conf08_gfn1.xyz --opt --vfukui --chrg 0 --uhf 0 --alpb DMSO

   ID    Z sym.   atoms
    1    6 C      1, 3, 5, 6, 8, 11-15, 17, 19, 22, 23
    2    8 O      2, 4, 7, 9, 18, 24
    3    7 N      10, 16, 20, 21, 25
    4    1 H      26-42

      * Solvation model:               ALPB
        Solvent                        DMSO
        Solvent mass                       7.8130E+01 g/mol
          :  Hamiltonian                  GFN1-xTB          :
 * total energy  :   -82.9641907 Eh     change       -0.2246736E-10 Eh
 * total energy  :   -82.9752040 Eh     change       -0.1101331E-01 Eh
 * total energy  :   -82.9797460 Eh     change       -0.4542017E-02 Eh
 * total energy  :   -82.9807578 Eh     change       -0.1011808E-02 Eh
 * total energy  :   -82.9815829 Eh     change       -0.8250416E-03 Eh
 * total energy  :   -82.9822694 Eh     change       -0.6865547E-03 Eh
 * total energy  :   -82.9828689 Eh     change       -0.5994466E-03 Eh
 * total energy  :   -82.9832761 Eh     change       -0.4072097E-03 Eh
 * total energy  :   -82.9834736 Eh     change       -0.1975014E-03 Eh
 * total energy  :   -82.9835612 Eh     change       -0.8755077E-04 Eh
 * total energy  :   -82.9841020 Eh     change       -0.5150089E-05 Eh
 * total energy  :   -82.9841123 Eh     change       -0.1029778E-04 Eh
 * total energy  :   -82.9841181 Eh     change       -0.5802140E-05 Eh
 * total energy  :   -82.9841244 Eh     change       -0.6267075E-05 Eh
 * total energy  :   -82.9841285 Eh     change       -0.4082136E-05 Eh
 * total energy  :   -82.9841347 Eh     change       -0.6185633E-05 Eh
 * total energy  :   -82.9841425 Eh     change       -0.7885661E-05 Eh
 * total energy  :   -82.9841487 Eh     change       -0.6155046E-05 Eh
 * total energy  :   -82.9841509 Eh     change       -0.2191295E-05 Eh
   *** GEOMETRY OPTIMIZATION CONVERGED AFTER 44 ITERATIONS ***

 final structure:
================
42
 xtb: 6.5.1 (579679a)
C           -2.43066115766750        0.09058941504904        3.84597713575558
O           -2.21715432573808        0.21262596168611        2.43342529379803
C           -3.05982573642185       -0.43130776832424        1.64126494903729
O           -3.98938766133529       -1.09349018804870        2.02331964503268
C           -2.70330705496107       -0.24046005500246        0.17964825548713
C           -3.78909436713867       -0.32032478676124       -0.83825736221799
O           -4.95754403435977       -0.18064354239448       -0.58067381491186
C           -3.29486890900613       -0.55483230375652       -2.26639259698858
O           -4.02151930978447       -0.93544368248098       -3.16214081204561
N           -1.97915302230610       -0.31472145969844       -2.44276986892159
C           -1.03890049935417        0.18006979556572       -1.45478666163769
C           -0.88133678464483        1.69933562403066       -1.62448584195693
C            0.29824661346135       -0.63121573110268       -1.60171913918021
C            0.01681184833475       -2.09057634016779       -1.22817776220452
C            0.87459049260067       -0.56697829563980       -3.01764814536042
N            1.25926528805101       -0.13037887427796       -0.62374255299701
C            2.09925592610079        0.91097122022379       -0.79986413368351
O            2.11098086968436        1.66636946810056       -1.75800424936829
C            3.04791857215851        1.07126786375473        0.33080332091438
N            3.95072446293773        1.98991799047808        0.48078110717802
N            4.59539066159195        1.72155054068340        1.65030006697441
C            4.04777672144804        0.65436646030155        2.14316846630385
C            4.40038837141690       -0.05101052426036        3.39407032164046
O            3.05973867817476        0.19338641973247        1.35795322592776
N           -1.48211215704488       -0.01492732929693       -0.11025056120303
H           -3.48257581061519        0.26397591520595        4.08326524969951
H           -2.14150724314110       -0.90909663710401        4.17535031127705
H           -1.80250541149963        0.84141139113671        4.31945954285217
H           -1.64932368092109       -0.37148747379473       -3.39399721268203
H           -1.86984426742909        2.15475423489471       -1.59855956421300
H           -0.28248511935804        2.10039479366499       -0.81100004150714
H           -0.40367689499507        1.92611176382942       -2.57380275840866
H            0.92735654953912       -2.67771028761950       -1.33048136310942
H           -0.33473781731207       -2.15650601092632       -0.19938080369521
H           -0.74564892481728       -2.50191358246197       -1.88745874313986
H            0.29210833125669       -1.20454802349308       -3.68019026071444
H            1.89874365851610       -0.93642860425852       -3.00175904255263
H            0.87732545845884        0.44510087656536       -3.41518903673832
H            1.34800975019649       -0.66592328208975        0.22565283437258
H            4.67328835069135       -1.08239767251166        3.17194229819553
H            3.54449952186754       -0.06847721116961        4.06806521264052
H            5.23475006336547        0.45253293173724        3.87628409235951

          :  Hamiltonian                  GFN1-xTB          :
         :: total energy             -82.984150886799 Eh    ::
         :: gradient norm              0.000414887557 Eh/a0 ::
         :: HOMO-LUMO gap              1.759535189508 eV    ::
         :: SCC energy               -83.765186697285 Eh    ::
         :: -> Gsolv                  -0.059753035057 Eh    ::
         :: repulsion energy           0.808549912733 Eh    ::

    * Orbital Energies and Occupations

         #    Occupation            Energy/Eh            Energy/eV
      -------------------------------------------------------------
         1        2.0000           -0.8680736             -23.6215
       ...           ...                  ...                  ...
        55        2.0000           -0.5092003             -13.8560
        56        2.0000           -0.5075371             -13.8108
        57        2.0000           -0.5054355             -13.7536
        58        2.0000           -0.4992563             -13.5855
        59        2.0000           -0.4952209             -13.4756
        60        2.0000           -0.4823621             -13.1257
        61        2.0000           -0.4793480             -13.0437
        62        2.0000           -0.4710755             -12.8186
        63        2.0000           -0.4684064             -12.7460
        64        2.0000           -0.4607058             -12.5364
        65        2.0000           -0.4544807             -12.3670
        66        2.0000           -0.4494045             -12.2289
        67        2.0000           -0.4366044             -11.8806 (HOMO)
        68                         -0.3719427             -10.1211 (LUMO)
        69                         -0.3168459              -8.6218
        70                         -0.3138574              -8.5405
        71                         -0.2589954              -7.0476
        72                         -0.2507683              -6.8238
        73                         -0.2028085              -5.5187
        74                         -0.1999698              -5.4415
        75                         -0.1435629              -3.9065
        76                         -0.1422814              -3.8717
        77                         -0.1373500              -3.7375
        78                         -0.1356550              -3.6914
       ...                                ...                  ...
       134                          0.7674004              20.8820
      -------------------------------------------------------------
                  HL-Gap            0.0646617 Eh            1.7595 eV

Wiberg/Mayer (AO) data.
largest (>0.10) Wiberg bond orders for each atom

     #   Z sym  total        # sym  WBO       # sym  WBO       # sym  WBO
 ---------------------------------------------------------------------------
     1   6 C    3.860 --    28 H    0.985    26 H    0.979    27 H    0.978
                             2 O    0.885
     2   8 O    2.219 --     3 C    1.140     1 C    0.885     4 O    0.145
     3   6 C    3.852 --     4 O    1.691     2 O    1.140     5 C    0.945
     4   8 O    1.949 --     3 C    1.691     2 O    0.145
     5   6 C    3.955 --    25 N    1.787     6 C    0.996     3 C    0.945
     6   6 C    3.858 --     7 O    1.800     5 C    0.996     8 C    0.909
     7   8 O    2.007 --     6 C    1.800
     8   6 C    3.902 --     9 O    1.631    10 N    1.248     6 C    0.909
     9   8 O    1.925 --     8 C    1.631    10 N    0.185
    10   7 N    3.366 --     8 C    1.248    11 C    0.937    29 H    0.884
                             9 O    0.185
    11   6 C    3.910 --    25 N    1.004    12 C    0.946    10 N    0.937
                            13 C    0.913
    12   6 C    3.980 --    30 H    0.984    31 H    0.981    32 H    0.976
                            11 C    0.946
    13   6 C    3.927 --    15 C    0.999    14 C    0.999    16 N    0.938
                            11 C    0.913
    14   6 C    3.990 --    13 C    0.999    33 H    0.984    35 H    0.983
                            34 H    0.980
    15   6 C    3.988 --    13 C    0.999    36 H    0.981    37 H    0.980
                            38 H    0.976
    16   7 N    3.353 --    17 C    1.253    13 C    0.938    39 H    0.894
                            18 O    0.175
    17   6 C    3.916 --    18 O    1.582    16 N    1.253    19 C    0.993
    18   8 O    1.904 --    17 C    1.582    16 N    0.175
    19   6 C    3.873 --    20 N    1.622    24 O    1.047    17 C    0.993
    20   7 N    3.000 --    19 C    1.622    21 N    1.200
    21   7 N    2.982 --    22 C    1.610    20 N    1.200
    22   6 C    3.867 --    21 N    1.610    24 O    1.072    23 C    1.032
    23   6 C    3.986 --    22 C    1.032    42 H    0.982    40 H    0.963
                            41 H    0.962
    24   8 O    2.316 --    22 C    1.072    19 C    1.047
    25   7 N    3.043 --     5 C    1.787    11 C    1.004
    26   1 H    1.006 --     1 C    0.979
    27   1 H    1.004 --     1 C    0.978
    28   1 H    1.009 --     1 C    0.985
    29   1 H    0.929 --    10 N    0.884
    30   1 H    1.001 --    12 C    0.984
    31   1 H    1.004 --    12 C    0.981
    32   1 H    1.007 --    12 C    0.976
    33   1 H    0.998 --    14 C    0.984
    34   1 H    1.003 --    14 C    0.980
    35   1 H    1.002 --    14 C    0.983
    36   1 H    1.000 --    15 C    0.981
    37   1 H    0.998 --    15 C    0.980
    38   1 H    1.011 --    15 C    0.976
    39   1 H    0.941 --    16 N    0.894
    40   1 H    0.996 --    23 C    0.963
    41   1 H    0.996 --    23 C    0.962
    42   1 H    0.998 --    23 C    0.982
 ---------------------------------------------------------------------------

           -------------------------------------------------
          | TOTAL ENERGY              -82.984150886799 Eh   |
          | GRADIENT NORM               0.000414887557 Eh/α |
          | HOMO-LUMO GAP               1.759535189508 eV   |
           -------------------------------------------------

 * finished run on 2023/06/21 at 17:41:37.091
