   * xtb version 6.5.1 (579679a) compiled by 'ehlert@majestix' on 2022-07-11
          program call               : /lustre/hpc/kemi/ree/PhD/git/ReactivityQM/dep/xtb-6.5.1/bin/xtb --gfn 1 /lustre/hpc/kemi/ree/PhD/git/ReactivityQM/calculations/R02methylcation/reac01prodE11/conf17/R02methylcation_reac01prodE11_conf17_gfn1.xyz --opt --vfukui --chrg -2 --uhf 0 --alpb DMSO

   ID    Z sym.   atoms
    1    6 C      1, 3, 5, 7-10, 12, 14, 17-19, 22, 24
    2    8 O      2, 4, 13, 20, 23, 25
    3    7 N      6, 11, 15, 16, 21
    4    1 H      26-42

      * Solvation model:               ALPB
        Solvent                        DMSO
        Solvent mass                       7.8130E+01 g/mol
          :  Hamiltonian                  GFN1-xTB          :
 * total energy  :   -83.6551609 Eh     change       -0.6475886E-10 Eh
 * total energy  :   -83.6641923 Eh     change       -0.9031403E-02 Eh
 * total energy  :   -83.6668511 Eh     change       -0.2658779E-02 Eh
 * total energy  :   -83.6674566 Eh     change       -0.6055196E-03 Eh
 * total energy  :   -83.6680241 Eh     change       -0.5674666E-03 Eh
 * total energy  :   -83.6682694 Eh     change       -0.2453355E-03 Eh
 * total energy  :   -83.6684138 Eh     change       -0.1443429E-03 Eh
 * total energy  :   -83.6684779 Eh     change       -0.6409637E-04 Eh
 * total energy  :   -83.6685053 Eh     change       -0.2746909E-04 Eh
 * total energy  :   -83.6685220 Eh     change       -0.1666138E-04 Eh
 * total energy  :   -83.6685371 Eh     change       -0.1515828E-04 Eh
 * total energy  :   -83.6685442 Eh     change       -0.7082515E-05 Eh
 * total energy  :   -83.6685553 Eh     change       -0.1103424E-04 Eh
 * total energy  :   -83.6685601 Eh     change       -0.4788891E-05 Eh
   *** GEOMETRY OPTIMIZATION CONVERGED AFTER 14 ITERATIONS ***

 final structure:
================
42
 xtb: 6.5.1 (579679a)
C           -6.03258048151911        1.25514045908614       -1.02757348089760
O           -4.79319536577587        0.63772812417149       -0.72048036487862
C           -4.50296987061805       -0.49675346894130       -1.43654647755268
O           -5.29382716510172       -0.91034451465849       -2.27264189013722
C           -3.22321655425913       -1.07348598282144       -1.07123301465671
N           -2.52689350933160       -0.39043830323128       -0.08882854438612
C           -1.38498385846714       -0.81127019946990        0.31231940497716
C           -0.64435490590677       -0.11482676464924        1.43936367878648
C           -0.94624315857021       -0.89452034745944        2.73170014887027
C           -1.13772274714570        1.33501314894420        1.55494356588961
N            0.78430384218544       -0.17614213318981        1.13142823588084
C            1.71343642179855        0.48344105254807        1.96528068568780
O            1.44969057383069        0.77360008515403        3.15132936838188
C            2.95925249981349        0.72178768280480        1.34735579564490
N            4.03007061786841        1.28115474822641        1.89577997055688
N            5.00555757425726        1.36806426690775        1.04426460015316
C            4.53855760239844        0.79584190761088       -0.22955617347729
C            4.60084672023354        1.86477764312124       -1.33290874909920
C            5.40766711019238       -0.41874868953985       -0.59864226255128
O            3.19535662408208        0.39141102495487       -0.00492440260794
N           -0.81291632259763       -1.95932404098496       -0.19775756756594
C           -1.38935628551369       -2.73590190415162       -1.16510735036904
O           -0.81561425285267       -3.75068203116637       -1.56087366282019
C           -2.73330841096393       -2.26216741265268       -1.67422590183776
O           -3.30713040208553       -2.92862735955007       -2.55695380636708
H           -6.05101983307252        1.59794644941522       -2.06745784141230
H           -6.13970681627552        2.10896000945152       -0.35953074055415
H           -6.86468910727085        0.56031851688814       -0.87194874281425
H           -2.02487924497726       -0.95919945453497        2.87298033511996
H           -0.50794095009663       -0.39806685054826        3.59536870435996
H           -0.53863987377360       -1.90229482469286        2.65896400176620
H           -2.22121793568403        1.34100202008935        1.67080423981579
H           -0.88100527408745        1.89001486173006        0.65300946340702
H           -0.68450949609491        1.82238683999446        2.41647067012546
H            0.98720612291040       -0.03468791315271        0.14856996025470
H            4.25325687457393        1.45367519609036       -2.27911179697708
H            3.96931709359196        2.70772329894883       -1.05656771850027
H            5.62577108448874        2.21197691379811       -1.44604261226736
H            5.36283784366731       -1.15206239899998        0.20508712611136
H            6.44020324176017       -0.10263640565762       -0.73229422073763
H            5.04825159645418       -0.87587947704395       -1.51905921517727
H            0.08633837793021       -2.25390577282475        0.15429058186277

          :  Hamiltonian                  GFN1-xTB          :
         :: total energy             -83.668560054569 Eh    ::
         :: gradient norm              0.000824739635 Eh/a0 ::
         :: HOMO-LUMO gap              1.346641665645 eV    ::
         :: SCC energy               -84.405879355332 Eh    ::
         :: -> Gsolv                  -0.253023628700 Eh    ::
         :: repulsion energy           0.762829808848 Eh    ::

    * Orbital Energies and Occupations

         #    Occupation            Energy/Eh            Energy/eV
      -------------------------------------------------------------
         1        2.0000           -0.7906514             -21.5147
       ...           ...                  ...                  ...
        56        2.0000           -0.4452617             -12.1162
        57        2.0000           -0.4425752             -12.0431
        58        2.0000           -0.4301106             -11.7039
        59        2.0000           -0.4294718             -11.6865
        60        2.0000           -0.4280983             -11.6491
        61        2.0000           -0.4090728             -11.1314
        62        2.0000           -0.4050071             -11.0208
        63        2.0000           -0.3997637             -10.8781
        64        2.0000           -0.3871293             -10.5343
        65        2.0000           -0.3681298             -10.0173
        66        2.0000           -0.3648111              -9.9270
        67        2.0000           -0.3553132              -9.6686
        68        2.0000           -0.3110424              -8.4639 (HOMO)
        69                         -0.2615543              -7.1173 (LUMO)
        70                         -0.2336213              -6.3572
        71                         -0.2252340              -6.1289
        72                         -0.1880375              -5.1168
        73                         -0.1211290              -3.2961
        74                         -0.1188665              -3.2345
        75                         -0.1010755              -2.7504
        76                         -0.1008756              -2.7450
        77                         -0.0974553              -2.6519
        78                         -0.0949630              -2.5841
        79                         -0.0947936              -2.5795
       ...                                ...                  ...
       134                          0.7703190              20.9614
      -------------------------------------------------------------
                  HL-Gap            0.0494882 Eh            1.3466 eV

Wiberg/Mayer (AO) data.
largest (>0.10) Wiberg bond orders for each atom

     #   Z sym  total        # sym  WBO       # sym  WBO       # sym  WBO
 ---------------------------------------------------------------------------
     1   6 C    3.903 --    27 H    0.987    26 H    0.980    28 H    0.980
                             2 O    0.931
     2   8 O    2.133 --     3 C    1.018     1 C    0.931     4 O    0.106
     3   6 C    3.849 --     4 O    1.585     5 C    1.128     2 O    1.018
     4   8 O    1.862 --     3 C    1.585     2 O    0.106
     5   6 C    3.918 --    24 C    1.271     6 N    1.148     3 C    1.128
                            25 O    0.129
     6   7 N    3.025 --     7 C    1.634     5 C    1.148
     7   6 C    3.929 --     6 N    1.634    21 N    1.094     8 C    0.978
     8   6 C    3.958 --    10 C    0.990     9 C    0.981     7 C    0.978
                            11 N    0.952
     9   6 C    3.992 --    29 H    0.988    31 H    0.986     8 C    0.981
                            30 H    0.978
    10   6 C    3.994 --     8 C    0.990    33 H    0.986    32 H    0.985
                            34 H    0.984
    11   7 N    3.179 --    12 C    1.058     8 C    0.952    35 H    0.919
    12   6 C    3.924 --    13 O    1.450    14 C    1.235    11 N    1.058
    13   8 O    1.791 --    12 C    1.450
    14   6 C    3.843 --    15 N    1.393    12 C    1.235    20 O    0.922
                            16 N    0.156
    15   7 N    3.024 --    16 N    1.474    14 C    1.393
    16   7 N    2.879 --    15 N    1.474    17 C    0.981    14 C    0.156
    17   6 C    3.899 --    16 N    0.981    18 C    0.978    19 C    0.977
                            20 O    0.924
    18   6 C    3.994 --    38 H    0.988    36 H    0.987    37 H    0.985
                            17 C    0.978
    19   6 C    3.993 --    40 H    0.988    41 H    0.987    39 H    0.985
                            17 C    0.977
    20   8 O    2.053 --    17 C    0.924    14 C    0.922
    21   7 N    3.434 --    22 C    1.172     7 C    1.094    42 H    0.895
                            23 O    0.136
    22   6 C    3.881 --    23 O    1.567    21 N    1.172    24 C    0.969
    23   8 O    1.846 --    22 C    1.567    21 N    0.136
    24   6 C    3.943 --    25 O    1.515     5 C    1.271    22 C    0.969
    25   8 O    1.819 --    24 C    1.515     5 C    0.129
    26   1 H    1.014 --     1 C    0.980
    27   1 H    1.017 --     1 C    0.987
    28   1 H    1.015 --     1 C    0.980
    29   1 H    1.008 --     9 C    0.988
    30   1 H    1.024 --     9 C    0.978
    31   1 H    1.009 --     9 C    0.986
    32   1 H    1.019 --    10 C    0.985
    33   1 H    1.008 --    10 C    0.986
    34   1 H    1.016 --    10 C    0.984
    35   1 H    0.969 --    11 N    0.919
    36   1 H    1.008 --    18 C    0.987
    37   1 H    1.015 --    18 C    0.985
    38   1 H    1.011 --    18 C    0.988
    39   1 H    1.015 --    19 C    0.985
    40   1 H    1.011 --    19 C    0.988
    41   1 H    1.008 --    19 C    0.987
    42   1 H    0.954 --    21 N    0.895
 ---------------------------------------------------------------------------

           -------------------------------------------------
          | TOTAL ENERGY              -83.668560054569 Eh   |
          | GRADIENT NORM               0.000824739635 Eh/α |
          | HOMO-LUMO GAP               1.346641665645 eV   |
           -------------------------------------------------

 * finished run on 2023/06/21 at 17:22:31.884
