   * xtb version 6.5.1 (579679a) compiled by 'ehlert@majestix' on 2022-07-11
          program call               : /lustre/hpc/kemi/ree/PhD/git/ReactivityQM/dep/xtb-6.5.1/bin/xtb --gfn 1 /lustre/hpc/kemi/ree/PhD/git/ReactivityQM/calculations/R01/reac01prodN06/conf02/R01_reac01prodN06_conf02_gfn1.xyz --opt --vfukui --chrg 1 --uhf 0 --alpb DMSO

   ID    Z sym.   atoms
    1    6 C      1, 3, 5, 6, 9, 10
    2    8 O      2, 4, 11
    3    7 N      7, 8
    4    1 H      12-20

      * Solvation model:               ALPB
        Solvent                        DMSO
        Solvent mass                       7.8130E+01 g/mol
          :  Hamiltonian                  GFN1-xTB          :
 * total energy  :   -37.5795596 Eh     change       -0.4305889E-11 Eh
 * total energy  :   -37.5912528 Eh     change       -0.1169318E-01 Eh
 * total energy  :   -37.5962159 Eh     change       -0.4963094E-02 Eh
 * total energy  :   -37.5969864 Eh     change       -0.7705881E-03 Eh
 * total energy  :   -37.5975075 Eh     change       -0.5210337E-03 Eh
 * total energy  :   -37.5976660 Eh     change       -0.1585323E-03 Eh
 * total energy  :   -37.5978148 Eh     change       -0.1488298E-03 Eh
 * total energy  :   -37.5978963 Eh     change       -0.8141998E-04 Eh
 * total energy  :   -37.5979568 Eh     change       -0.6056686E-04 Eh
 * total energy  :   -37.5980197 Eh     change       -0.6291715E-04 Eh
 * total energy  :   -37.5982030 Eh     change       -0.1913917E-04 Eh
 * total energy  :   -37.5982416 Eh     change       -0.3854943E-04 Eh
 * total energy  :   -37.5982557 Eh     change       -0.1413494E-04 Eh
 * total energy  :   -37.5982677 Eh     change       -0.1201646E-04 Eh
 * total energy  :   -37.5982747 Eh     change       -0.7006737E-05 Eh
 * total energy  :   -37.5982797 Eh     change       -0.4987170E-05 Eh
 * total energy  :   -37.5982836 Eh     change       -0.3933772E-05 Eh
 * total energy  :   -37.5982873 Eh     change       -0.3693758E-05 Eh
 * total energy  :   -37.5982904 Eh     change       -0.3113191E-05 Eh
   *** GEOMETRY OPTIMIZATION CONVERGED AFTER 21 ITERATIONS ***

 final structure:
================
20
 xtb: 6.5.1 (579679a)
C           -3.40971334029802        0.31181306872238       -0.14861419126454
O           -2.12457349818876       -0.30544289341202       -0.41725601313112
C           -1.06105690384027        0.32452805112459       -0.06246491932505
O           -0.91741075680460        1.38281300649876        0.45438937526612
C            0.24486030609052       -0.55372000670530       -0.45623640690176
C           -0.06141272421130       -2.03096701117435       -0.60101864464883
N            0.70155657870928        0.13715876979813       -1.60322088886909
N            1.69812374367361        0.84661125446710       -1.29987902882681
C            2.00173557151403        0.60391864970006        0.02231825154014
C            3.09107805365234        1.22563816189200        0.76149863923187
O            1.20559665004224       -0.26315488294421        0.52564252301253
H           -3.47373795298240        0.55978200671746        0.91050012022633
H           -3.50664895434480        1.21123930654817       -0.75614291275552
H           -4.15281100912385       -0.43160770157851       -0.42472322026560
H           -0.50716899938590       -2.40125660016656        0.31924378287507
H            0.86652953038684       -2.56308390649988       -0.80052792675741
H           -0.75381041128295       -2.16910426662549       -1.42795685856768
H            4.02484521550867        0.73376986827040        0.46894154374501
H            2.95197778807425        1.10508996132248        1.83420218724812
H            3.18204011281117        2.27597916404517        0.48312958816884

          :  Hamiltonian                  GFN1-xTB          :
         :: total energy             -37.598290442981 Eh    ::
         :: gradient norm              0.000545883894 Eh/a0 ::
         :: HOMO-LUMO gap              2.257959183769 eV    ::
         :: SCC energy               -37.940036137295 Eh    ::
         :: -> Gsolv                  -0.078905435876 Eh    ::
         :: repulsion energy           0.350552733746 Eh    ::

    * Orbital Energies and Occupations

         #    Occupation            Energy/Eh            Energy/eV
      -------------------------------------------------------------
         1        2.0000           -0.9416476             -25.6235
       ...           ...                  ...                  ...
        18        2.0000           -0.6147563             -16.7284
        19        2.0000           -0.6095900             -16.5878
        20        2.0000           -0.6010885             -16.3565
        21        2.0000           -0.5981031             -16.2752
        22        2.0000           -0.5865536             -15.9609
        23        2.0000           -0.5816650             -15.8279
        24        2.0000           -0.5727108             -15.5843
        25        2.0000           -0.5682075             -15.4617
        26        2.0000           -0.5641622             -15.3516
        27        2.0000           -0.5509008             -14.9908
        28        2.0000           -0.5415685             -14.7368
        29        2.0000           -0.5331437             -14.5076
        30        2.0000           -0.5155474             -14.0288 (HOMO)
        31                         -0.4325689             -11.7708 (LUMO)
        32                         -0.3416816              -9.2976
        33                         -0.3154151              -8.5829
        34                         -0.1795301              -4.8853
        35                         -0.1663214              -4.5258
        36                         -0.1593986              -4.3375
        37                         -0.1116212              -3.0374
        38                         -0.1089762              -2.9654
        39                         -0.1081485              -2.9429
        40                         -0.0995018              -2.7076
        41                         -0.0988605              -2.6901
       ...                                ...                  ...
        62                          0.7563613              20.5816
      -------------------------------------------------------------
                  HL-Gap            0.0829785 Eh            2.2580 eV

Wiberg/Mayer (AO) data.
largest (>0.10) Wiberg bond orders for each atom

     #   Z sym  total        # sym  WBO       # sym  WBO       # sym  WBO
 ---------------------------------------------------------------------------
     1   6 C    3.806 --    14 H    0.980    12 H    0.978    13 H    0.977
                             2 O    0.830
     2   8 O    2.271 --     3 C    1.232     1 C    0.830     4 O    0.153
     3   6 C    3.862 --     4 O    1.754     2 O    1.232     5 C    0.721
     4   8 O    2.081 --     3 C    1.754     2 O    0.153
     5   6 C    3.835 --     7 N    1.078     6 C    0.949    11 O    0.908
                             3 C    0.721
     6   6 C    3.953 --    15 H    0.977    17 H    0.975    16 H    0.972
                             5 C    0.949
     7   7 N    3.009 --     8 N    1.674     5 C    1.078
     8   7 N    3.021 --     7 N    1.674     9 C    1.181
     9   6 C    3.797 --    11 O    1.299     8 N    1.181    10 C    1.085
    10   6 C    3.964 --     9 C    1.085    19 H    0.965    20 H    0.943
                            18 H    0.899
    11   8 O    2.390 --     9 C    1.299     5 C    0.908
    12   1 H    0.996 --     1 C    0.978
    13   1 H    0.996 --     1 C    0.977
    14   1 H    1.000 --     1 C    0.980
    15   1 H    0.991 --     6 C    0.977
    16   1 H    0.990 --     6 C    0.972
    17   1 H    0.995 --     6 C    0.975
    18   1 H    0.978 --    10 C    0.899
    19   1 H    0.984 --    10 C    0.965
    20   1 H    0.984 --    10 C    0.943
 ---------------------------------------------------------------------------

           -------------------------------------------------
          | TOTAL ENERGY              -37.598290442981 Eh   |
          | GRADIENT NORM               0.000545883894 Eh/α |
          | HOMO-LUMO GAP               2.257959183769 eV   |
           -------------------------------------------------

 * finished run on 2023/06/20 at 14:56:07.590
