                         Program Version 5.0.1 -  RELEASE  -
|  1> # ORCA input file
|  2> ! SP r2SCAN-3c CPCM
|  3>
|  4> %maxcore 1875.0
|  5> %pal nprocs 4 end
|  6> %cpcm smd true SMDsolvent "DMSO" end
|  7>
|  8> *xyz 0 1
|  9> C      -4.381573   -3.271391   -1.098728
| 10> O      -3.429635   -2.228906   -0.875542
| 11> C      -3.758900   -1.311479    0.039027
| 12> O      -4.799855   -1.344108    0.653928
| 13> C      -2.697542   -0.272071    0.185033
| 14> N      -1.592615   -0.455865   -0.603074
| 15> C      -0.627707    0.399796   -0.558058
| 16> C       0.578032    0.207112   -1.464282
| 17> C       0.473454   -1.153880   -2.154631
| 18> C       0.629509    1.326328   -2.512972
| 19> N       1.816504    0.185564   -0.671172
| 20> C       2.413054    1.251685   -0.107172
| 21> O       1.956003    2.386657   -0.066191
| 22> C       3.717351    0.921904    0.513243
| 23> N       4.512275    1.723006    1.152127
| 24> N       5.585947    0.982689    1.542770
| 25> C       5.381930   -0.225882    1.118870
| 26> C       6.256596   -1.405926    1.288176
| 27> O       4.215990   -0.332408    0.459877
| 28> N      -0.683207    1.492602    0.245750
| 29> C      -1.721732    1.782178    1.102352
| 30> O      -1.673874    2.779153    1.810708
| 31> C      -2.810330    0.801628    1.042522
| 32> O      -3.912049    0.921158    1.794154
| 33> C      -4.116469    1.997731    2.708516
| 34> H      -4.531000   -3.847598   -0.182151
| 35> H      -5.336845   -2.847543   -1.418664
| 36> H      -3.970136   -3.906856   -1.879987
| 37> H       1.337120   -1.311124   -2.797173
| 38> H       0.425548   -1.949839   -1.413192
| 39> H      -0.431661   -1.188930   -2.758786
| 40> H       0.662545    2.306744   -2.042979
| 41> H       1.514380    1.200271   -3.134061
| 42> H      -0.257737    1.266714   -3.141358
| 43> H       2.314364   -0.689940   -0.652921
| 44> H       7.161252   -1.118550    1.818794
| 45> H       6.517173   -1.817593    0.313562
| 46> H       5.732543   -2.179147    1.849750
| 47> H       0.099592    2.146363    0.245657
| 48> H      -3.349556    2.005253    3.486474
| 49> H      -5.093172    1.815102    3.158704
| 50> H      -4.125572    2.959395    2.190488
| 51> **                         ****END OF INPUT****

CARTESIAN COORDINATES (ANGSTROEM)
---------------------------------
  C     -4.381573   -3.271391   -1.098728
  O     -3.429635   -2.228906   -0.875542
  C     -3.758900   -1.311479    0.039027
  O     -4.799855   -1.344108    0.653928
  C     -2.697542   -0.272071    0.185033
  N     -1.592615   -0.455865   -0.603074
  C     -0.627707    0.399796   -0.558058
  C      0.578032    0.207112   -1.464282
  C      0.473454   -1.153880   -2.154631
  C      0.629509    1.326328   -2.512972
  N      1.816504    0.185564   -0.671172
  C      2.413054    1.251685   -0.107172
  O      1.956003    2.386657   -0.066191
  C      3.717351    0.921904    0.513243
  N      4.512275    1.723006    1.152127
  N      5.585947    0.982689    1.542770
  C      5.381930   -0.225882    1.118870
  C      6.256596   -1.405926    1.288176
  O      4.215990   -0.332408    0.459877
  N     -0.683207    1.492602    0.245750
  C     -1.721732    1.782178    1.102352
  O     -1.673874    2.779153    1.810708
  C     -2.810330    0.801628    1.042522
  O     -3.912049    0.921158    1.794154
  C     -4.116469    1.997731    2.708516
  H     -4.531000   -3.847598   -0.182151
  H     -5.336845   -2.847543   -1.418664
  H     -3.970136   -3.906856   -1.879987
  H      1.337120   -1.311124   -2.797173
  H      0.425548   -1.949839   -1.413192
  H     -0.431661   -1.188930   -2.758786
  H      0.662545    2.306744   -2.042979
  H      1.514380    1.200271   -3.134061
  H     -0.257737    1.266714   -3.141358
  H      2.314364   -0.689940   -0.652921
  H      7.161252   -1.118550    1.818794
  H      6.517173   -1.817593    0.313562
  H      5.732543   -2.179147    1.849750
  H      0.099592    2.146363    0.245657
  H     -3.349556    2.005253    3.486474
  H     -5.093172    1.815102    3.158704
  H     -4.125572    2.959395    2.190488

 Total Charge           Charge          ....    0
 Multiplicity           Mult            ....    1
 Number of Electrons    NEL             ....  184
 Basis Dimension        Dim             ....  615

ORBITAL ENERGIES
----------------

  NO   OCC          E(Eh)            E(eV)
   0   2.0000     -19.069519      -518.9080
   1   2.0000     -18.998854      -516.9851
   2   2.0000     -18.995017      -516.8807
   3   2.0000     -18.948203      -515.6068
   4   2.0000     -18.932878      -515.1898
   5   2.0000     -18.928310      -515.0655
   6   2.0000     -14.220599      -386.9622
   7   2.0000     -14.211991      -386.7279
   8   2.0000     -14.208808      -386.6413
   9   2.0000     -14.200028      -386.4024
  10   2.0000     -14.162587      -385.3836
  11   2.0000     -10.168840      -276.7082
  12   2.0000     -10.157591      -276.4021
  13   2.0000     -10.150661      -276.2135
  14   2.0000     -10.150627      -276.2126
  15   2.0000     -10.147464      -276.1265
  16   2.0000     -10.122867      -275.4572
  17   2.0000     -10.122557      -275.4488
  18   2.0000     -10.108522      -275.0669
  19   2.0000     -10.089076      -274.5377
  20   2.0000     -10.074113      -274.1306
  21   2.0000     -10.073204      -274.1058
  22   2.0000     -10.046481      -273.3786
  23   2.0000     -10.024395      -272.7777
  24   2.0000     -10.023901      -272.7642
  25   2.0000      -1.158996       -31.5379
  26   2.0000      -1.072058       -29.1722
  27   2.0000      -1.051758       -28.6198
  28   2.0000      -1.037238       -28.2247
  29   2.0000      -1.018231       -27.7075
  30   2.0000      -0.979517       -26.6540
  31   2.0000      -0.979338       -26.6491
  32   2.0000      -0.965825       -26.2814
  33   2.0000      -0.922039       -25.0899
  34   2.0000      -0.877737       -23.8844
  35   2.0000      -0.835310       -22.7299
  36   2.0000      -0.792187       -21.5565
  37   2.0000      -0.754172       -20.5221
  38   2.0000      -0.716147       -19.4874
  39   2.0000      -0.709785       -19.3142
  40   2.0000      -0.676755       -18.4155
  41   2.0000      -0.671963       -18.2850
  42   2.0000      -0.667370       -18.1601
  43   2.0000      -0.644365       -17.5341
  44   2.0000      -0.624706       -16.9991
  45   2.0000      -0.606984       -16.5169
  46   2.0000      -0.590795       -16.0763
  47   2.0000      -0.560608       -15.2549
  48   2.0000      -0.547080       -14.8868
  49   2.0000      -0.539563       -14.6822
  50   2.0000      -0.528250       -14.3744
  51   2.0000      -0.523598       -14.2478
  52   2.0000      -0.498778       -13.5724
  53   2.0000      -0.490673       -13.3519
  54   2.0000      -0.483891       -13.1673
  55   2.0000      -0.463934       -12.6243
  56   2.0000      -0.460387       -12.5278
  57   2.0000      -0.447517       -12.1775
  58   2.0000      -0.442650       -12.0451
  59   2.0000      -0.437675       -11.9097
  60   2.0000      -0.429067       -11.6755
  61   2.0000      -0.421382       -11.4664
  62   2.0000      -0.418596       -11.3906
  63   2.0000      -0.412877       -11.2350
  64   2.0000      -0.409074       -11.1315
  65   2.0000      -0.406976       -11.0744
  66   2.0000      -0.390064       -10.6142
  67   2.0000      -0.388126       -10.5614
  68   2.0000      -0.382949       -10.4206
  69   2.0000      -0.379892       -10.3374
  70   2.0000      -0.374512       -10.1910
  71   2.0000      -0.372251       -10.1295
  72   2.0000      -0.359771        -9.7899
  73   2.0000      -0.354810        -9.6549
  74   2.0000      -0.348256        -9.4765
  75   2.0000      -0.346273        -9.4226
  76   2.0000      -0.338390        -9.2081
  77   2.0000      -0.327531        -8.9126
  78   2.0000      -0.323102        -8.7920
  79   2.0000      -0.320793        -8.7292
  80   2.0000      -0.317349        -8.6355
  81   2.0000      -0.316889        -8.6230
  82   2.0000      -0.278879        -7.5887
  83   2.0000      -0.271931        -7.3996
  84   2.0000      -0.270031        -7.3479
  85   2.0000      -0.268958        -7.3187
  86   2.0000      -0.267182        -7.2704
  87   2.0000      -0.259133        -7.0514
  88   2.0000      -0.254687        -6.9304
  89   2.0000      -0.237807        -6.4711
  90   2.0000      -0.227627        -6.1941
  91   2.0000      -0.203401        -5.5348
  92   0.0000      -0.094220        -2.5639
  93   0.0000      -0.091396        -2.4870
  94   0.0000      -0.038606        -1.0505
  95   0.0000      -0.023008        -0.6261
  96   0.0000       0.015797         0.4298

MULLIKEN ATOMIC CHARGES
-----------------------
   0 C :   -0.307992
   1 O :   -0.181676
   2 C :    0.080182
   3 O :   -0.396723
   4 C :    0.145494
   5 N :   -0.129623
   6 C :    0.103505
   7 C :    0.125252
   8 C :   -0.595338
   9 C :   -0.555208
  10 N :   -0.094357
  11 C :   -0.056527
  12 O :   -0.494729
  13 C :    0.373990
  14 N :   -0.173444
  15 N :   -0.273740
  16 C :    0.397066
  17 C :   -0.629815
  18 O :   -0.054673
  19 N :   -0.012215
  20 C :    0.122116
  21 O :   -0.426882
  22 C :    0.047574
  23 O :   -0.127272
  24 C :   -0.310626
  25 H :    0.173865
  26 H :    0.173664
  27 H :    0.174460
  28 H :    0.187612
  29 H :    0.191094
  30 H :    0.198102
  31 H :    0.193602
  32 H :    0.197493
  33 H :    0.189650
  34 H :    0.327966
  35 H :    0.206115
  36 H :    0.201540
  37 H :    0.202975
  38 H :    0.293711
  39 H :    0.173569
  40 H :    0.166580
  41 H :    0.173661
Sum of atomic charges:    0.0000000

LOEWDIN ATOMIC CHARGES
----------------------
   0 C :   -0.039225
   1 O :   -0.580747
   2 C :    0.399376
   3 O :   -0.413699
   4 C :    0.216478
   5 N :   -0.563069
   6 C :    0.357672
   7 C :    0.110378
   8 C :   -0.336543
   9 C :   -0.340396
  10 N :   -0.554422
  11 C :    0.387486
  12 O :   -0.486777
  13 C :    0.415275
  14 N :   -0.329304
  15 N :   -0.355769
  16 C :    0.382130
  17 C :   -0.316262
  18 O :   -0.390513
  19 N :   -0.444026
  20 C :    0.371213
  21 O :   -0.475295
  22 C :    0.291077
  23 O :   -0.627825
  24 C :   -0.025922
  25 H :    0.180515
  26 H :    0.180881
  27 H :    0.184475
  28 H :    0.170849
  29 H :    0.177814
  30 H :    0.182553
  31 H :    0.181859
  32 H :    0.176741
  33 H :    0.175752
  34 H :    0.303467
  35 H :    0.191892
  36 H :    0.192418
  37 H :    0.193038
  38 H :    0.312512
  39 H :    0.181899
  40 H :    0.180033
  41 H :    0.182013

  Mayer bond orders larger than 0.100000
B(  0-C ,  1-O ) :   0.8342 B(  0-C , 25-H ) :   0.9564 B(  0-C , 26-H ) :   0.9568
B(  0-C , 27-H ) :   0.9644 B(  1-O ,  2-C ) :   1.1376 B(  2-C ,  3-O ) :   1.9154
B(  2-C ,  4-C ) :   0.9611 B(  4-C ,  5-N ) :   0.9886 B(  4-C , 22-C ) :   1.4884
B(  5-N ,  6-C ) :   1.7474 B(  6-C ,  7-C ) :   0.9705 B(  6-C , 19-N ) :   1.1603
B(  6-C , 22-C ) :   0.1181 B(  7-C ,  8-C ) :   0.9181 B(  7-C ,  9-C ) :   0.9018
B(  7-C , 10-N ) :   0.8126 B(  8-C , 28-H ) :   0.9698 B(  8-C , 29-H ) :   0.9584
B(  8-C , 30-H ) :   0.9646 B(  9-C , 31-H ) :   0.9385 B(  9-C , 32-H ) :   0.9769
B(  9-C , 33-H ) :   0.9577 B( 10-N , 11-C ) :   1.2147 B( 10-N , 34-H ) :   0.8802
B( 11-C , 12-O ) :   1.7761 B( 11-C , 13-C ) :   0.8595 B( 13-C , 14-N ) :   1.7106
B( 13-C , 16-C ) :   0.1194 B( 13-C , 18-O ) :   1.0879 B( 14-N , 15-N ) :   1.2661
B( 15-N , 16-C ) :   1.6162 B( 16-C , 17-C ) :   0.8306 B( 16-C , 18-O ) :   1.0624
B( 17-C , 35-H ) :   0.9890 B( 17-C , 36-H ) :   0.9425 B( 17-C , 37-H ) :   0.9396
B( 19-N , 20-C ) :   1.0411 B( 19-N , 38-H ) :   0.8525 B( 20-C , 21-O ) :   1.9740
B( 20-C , 22-C ) :   0.9760 B( 22-C , 23-O ) :   1.1721 B( 23-O , 24-C ) :   0.8376
B( 24-C , 39-H ) :   0.9522 B( 24-C , 40-H ) :   0.9636 B( 24-C , 41-H ) :   0.9520

Dispersion correction           -0.018354213
FINAL SINGLE POINT ENERGY     -1268.639687510645

DIPOLE MOMENT
-------------
                                X             Y             Z
Electronic contribution:      3.02367       7.45225       7.45185
Nuclear contribution   :     -1.46449     -11.01844      -9.49325
                        -----------------------------------------
Total Dipole Moment    :      1.55918      -3.56619      -2.04140
                        -----------------------------------------
Magnitude (a.u.)       :      4.39500
Magnitude (Debye)      :     11.17121

Rotational constants in cm-1:     0.012312     0.003677     0.003262
Rotational constants in MHz :   369.107603   110.219267    97.795930

                             ****ORCA TERMINATED NORMALLY****
TOTAL RUN TIME: 0 days 0 hours 1 minutes 25 seconds 288 msec
