   * xtb version 6.5.1 (579679a) compiled by 'ehlert@majestix' on 2022-07-11
          program call               : /lustre/hpc/kemi/ree/PhD/git/ReactivityQM/dep/xtb-6.5.1/bin/xtb --gfn 1 /lustre/hpc/kemi/ree/PhD/git/ReactivityQM/calculations/R02oxygendeprot/reac01prodN08/conf15/R02oxygendeprot_reac01prodN08_conf15_gfn1.xyz --opt --vfukui --chrg 0 --uhf 0 --alpb DMSO

   ID    Z sym.   atoms
    1    6 C      1, 3, 5, 7-10, 12, 14, 17, 18, 21, 23, 25
    2    8 O      2, 4, 13, 19, 22, 24
    3    7 N      6, 11, 15, 16, 20
    4    1 H      26-42

      * Solvation model:               ALPB
        Solvent                        DMSO
        Solvent mass                       7.8130E+01 g/mol
          :  Hamiltonian                  GFN1-xTB          :
 * total energy  :   -83.0004105 Eh     change       -0.9748646E-11 Eh
 * total energy  :   -83.0137268 Eh     change       -0.1331635E-01 Eh
 * total energy  :   -83.0180121 Eh     change       -0.4285264E-02 Eh
 * total energy  :   -83.0190821 Eh     change       -0.1070005E-02 Eh
 * total energy  :   -83.0199070 Eh     change       -0.8249427E-03 Eh
 * total energy  :   -83.0204167 Eh     change       -0.5096672E-03 Eh
 * total energy  :   -83.0208609 Eh     change       -0.4441513E-03 Eh
 * total energy  :   -83.0212481 Eh     change       -0.3872648E-03 Eh
 * total energy  :   -83.0214864 Eh     change       -0.2382772E-03 Eh
 * total energy  :   -83.0215792 Eh     change       -0.9284027E-04 Eh
 * total energy  :   -83.0219605 Eh     change       -0.9563569E-05 Eh
 * total energy  :   -83.0219707 Eh     change       -0.1017937E-04 Eh
 * total energy  :   -83.0219821 Eh     change       -0.1138696E-04 Eh
 * total energy  :   -83.0219927 Eh     change       -0.1061229E-04 Eh
 * total energy  :   -83.0220014 Eh     change       -0.8688358E-05 Eh
 * total energy  :   -83.0220093 Eh     change       -0.7942224E-05 Eh
 * total energy  :   -83.0220171 Eh     change       -0.7755627E-05 Eh
 * total energy  :   -83.0220233 Eh     change       -0.6222742E-05 Eh
 * total energy  :   -83.0220275 Eh     change       -0.4191183E-05 Eh
   *** GEOMETRY OPTIMIZATION CONVERGED AFTER 36 ITERATIONS ***

 final structure:
================
42
 xtb: 6.5.1 (579679a)
C           -4.38157329586088       -3.27139123882394       -1.09872816670456
O           -3.42963455638148       -2.22890624057582       -0.87554150549924
C           -3.75889994445643       -1.31147938435523        0.03902722903830
O           -4.79985492171988       -1.34410804230120        0.65392815871446
C           -2.69754200938180       -0.27207133712672        0.18503255462077
N           -1.59261517387492       -0.45586468670705       -0.60307356223083
C           -0.62770676596261        0.39979628901040       -0.55805779208029
C            0.57803202345011        0.20711199449728       -1.46428176484118
C            0.47345440422929       -1.15388004542083       -2.15463142033377
C            0.62950946843121        1.32632834739965       -2.51297187731523
N            1.81650371258746        0.18556366540993       -0.67117242673485
C            2.41305417447748        1.25168477169732       -0.10717183569605
O            1.95600250820201        2.38665697481146       -0.06619092326862
C            3.71735084033324        0.92190379917929        0.51324258099569
N            4.51227503368721        1.72300550372436        1.15212698894804
N            5.58594713828571        0.98268925399314        1.54276999390804
C            5.38193008091451       -0.22588198594991        1.11886958976734
C            6.25659564902012       -1.40592591379853        1.28817625569920
O            4.21599049934800       -0.33240816970215        0.45987722721631
N           -0.68320706011573        1.49260243141197        0.24575013548908
C           -1.72173235174508        1.78217839277100        1.10235188498621
O           -1.67387418927293        2.77915315533338        1.81070755402842
C           -2.81032961494682        0.80162827818384        1.04252235939567
O           -3.91204874430794        0.92115770857037        1.79415350425561
C           -4.11646945386208        1.99773106314492        2.70851615224459
H           -4.53099982826659       -3.84759797010247       -0.18215086192189
H           -5.33684512123369       -2.84754259913707       -1.41866387784713
H           -3.97013596029974       -3.90685617577354       -1.87998702070173
H            1.33711997122300       -1.31112402904716       -2.79717338199980
H            0.42554791952856       -1.94983885189967       -1.41319211200075
H           -0.43166148426909       -1.18893010352234       -2.75878642590556
H            0.66254522483939        2.30674400743756       -2.04297917558256
H            1.51438015722731        1.20027109210049       -3.13406109150168
H           -0.25773676153783        1.26671361582863       -3.14135773001157
H            2.31436393030059       -0.68993968418674       -0.65292104698008
H            7.16125245624095       -1.11854956541040        1.81879410247258
H            6.51717309439186       -1.81759270201860        0.31356227608487
H            5.73254345765165       -2.17914674143968        1.84974968782383
H            0.09959156692602        2.14636328780765        0.24565737196268
H           -3.34955600514271        2.00525267216813        3.48647434185444
H           -5.09317183958496        1.81510187322234        3.15870389197514
H           -4.12557222907027        2.95939528959516        2.19048815768313

          :  Hamiltonian                  GFN1-xTB          :
         :: total energy             -83.022027499811 Eh    ::
         :: gradient norm              0.000320330533 Eh/a0 ::
         :: HOMO-LUMO gap              2.775176388355 eV    ::
         :: SCC energy               -83.803679481162 Eh    ::
         :: -> Gsolv                  -0.055022411223 Eh    ::
         :: repulsion energy           0.806824525850 Eh    ::

    * Orbital Energies and Occupations

         #    Occupation            Energy/Eh            Energy/eV
      -------------------------------------------------------------
         1        2.0000           -0.8679871             -23.6191
       ...           ...                  ...                  ...
        55        2.0000           -0.5074468             -13.8083
        56        2.0000           -0.5028564             -13.6834
        57        2.0000           -0.4953544             -13.4793
        58        2.0000           -0.4825683             -13.1314
        59        2.0000           -0.4819213             -13.1137
        60        2.0000           -0.4814043             -13.0997
        61        2.0000           -0.4707202             -12.8089
        62        2.0000           -0.4670596             -12.7093
        63        2.0000           -0.4578216             -12.4580
        64        2.0000           -0.4547995             -12.3757
        65        2.0000           -0.4483728             -12.2008
        66        2.0000           -0.4443591             -12.0916
        67        2.0000           -0.4250209             -11.5654 (HOMO)
        68                         -0.3230351              -8.7902 (LUMO)
        69                         -0.3154637              -8.5842
        70                         -0.2834510              -7.7131
        71                         -0.2587357              -7.0406
        72                         -0.2382617              -6.4834
        73                         -0.2030387              -5.5250
        74                         -0.1591363              -4.3303
        75                         -0.1429339              -3.8894
        76                         -0.1370467              -3.7292
        77                         -0.1311659              -3.5692
        78                         -0.1292041              -3.5158
       ...                                ...                  ...
       134                          0.7343487              19.9826
      -------------------------------------------------------------
                  HL-Gap            0.1019859 Eh            2.7752 eV

Wiberg/Mayer (AO) data.
largest (>0.10) Wiberg bond orders for each atom

     #   Z sym  total        # sym  WBO       # sym  WBO       # sym  WBO
 ---------------------------------------------------------------------------
     1   6 C    3.874 --    28 H    0.986    27 H    0.979    26 H    0.979
                             2 O    0.900
     2   8 O    2.196 --     3 C    1.106     1 C    0.900     4 O    0.133
     3   6 C    3.851 --     4 O    1.659     2 O    1.106     5 C    1.004
     4   8 O    1.921 --     3 C    1.659     2 O    0.133
     5   6 C    3.962 --    23 C    1.478     6 N    1.189     3 C    1.004
     6   7 N    3.026 --     7 C    1.576     5 C    1.189
     7   6 C    3.932 --     6 N    1.576    20 N    1.189     8 C    0.970
     8   6 C    3.933 --     9 C    1.001    10 C    0.981     7 C    0.970
                            11 N    0.917
     9   6 C    3.990 --     8 C    1.001    29 H    0.985    30 H    0.983
                            31 H    0.982
    10   6 C    3.987 --    34 H    0.985    33 H    0.983     8 C    0.981
                            32 H    0.979
    11   7 N    3.353 --    12 C    1.273     8 C    0.917    35 H    0.891
                            13 O    0.175
    12   6 C    3.916 --    13 O    1.556    11 N    1.273    14 C    0.998
    13   8 O    1.914 --    12 C    1.556    11 N    0.175
    14   6 C    3.874 --    15 N    1.620    19 O    1.047    12 C    0.998
    15   7 N    3.002 --    14 C    1.620    16 N    1.201
    16   7 N    2.982 --    17 C    1.608    15 N    1.201
    17   6 C    3.867 --    16 N    1.608    19 O    1.072    18 C    1.032
    18   6 C    3.986 --    17 C    1.032    36 H    0.982    37 H    0.963
                            38 H    0.962
    19   8 O    2.316 --    17 C    1.072    14 C    1.047
    20   7 N    3.476 --     7 C    1.189    21 C    1.139    39 H    0.846
                            22 O    0.133
    21   6 C    3.912 --    22 O    1.569    20 N    1.139    23 C    1.067
    22   8 O    1.895 --    21 C    1.569    20 N    0.133
    23   6 C    3.918 --     5 C    1.478    24 O    1.099    21 C    1.067
    24   8 O    2.197 --    23 C    1.099    25 C    0.898
    25   6 C    3.873 --    41 H    0.984    40 H    0.979    42 H    0.979
                            24 O    0.898
    26   1 H    1.008 --     1 C    0.979
    27   1 H    1.008 --     1 C    0.979
    28   1 H    1.011 --     1 C    0.986
    29   1 H    0.998 --     9 C    0.985
    30   1 H    1.004 --     9 C    0.983
    31   1 H    1.009 --     9 C    0.982
    32   1 H    1.008 --    10 C    0.979
    33   1 H    0.999 --    10 C    0.983
    34   1 H    1.001 --    10 C    0.985
    35   1 H    0.935 --    11 N    0.891
    36   1 H    0.998 --    18 C    0.982
    37   1 H    0.996 --    18 C    0.963
    38   1 H    0.996 --    18 C    0.962
    39   1 H    0.932 --    20 N    0.846
    40   1 H    1.015 --    25 C    0.979
    41   1 H    1.012 --    25 C    0.984
    42   1 H    1.015 --    25 C    0.979
 ---------------------------------------------------------------------------

           -------------------------------------------------
          | TOTAL ENERGY              -83.022027499811 Eh   |
          | GRADIENT NORM               0.000320330533 Eh/α |
          | HOMO-LUMO GAP               2.775176388355 eV   |
           -------------------------------------------------

 * finished run on 2023/06/21 at 17:23:41.864
