   * xtb version 6.5.1 (579679a) compiled by 'ehlert@majestix' on 2022-07-11
          program call               : /lustre/hpc/kemi/ree/PhD/git/ReactivityQM/dep/xtb-6.5.1/bin/xtb --gfn 1 /lustre/hpc/kemi/ree/PhD/git/ReactivityQM/calculations/R02deprot/reac01prodE04/conf04/R02deprot_reac01prodE04_conf04_gfn1.xyz --opt --vfukui --chrg -2 --uhf 0 --alpb DMSO

   ID    Z sym.   atoms
    1    6 C      1, 3, 5, 6, 8-11, 13, 15, 18, 19, 22, 24
    2    8 O      2, 4, 14, 20, 23, 25
    3    7 N      7, 12, 16, 17, 21
    4    1 H      26-42

      * Solvation model:               ALPB
        Solvent                        DMSO
        Solvent mass                       7.8130E+01 g/mol
          :  Hamiltonian                  GFN1-xTB          :
 * total energy  :   -83.5704050 Eh     change       -0.1409433E-09 Eh
 * total energy  :   -83.5876132 Eh     change       -0.1720819E-01 Eh
 * total energy  :   -83.5942204 Eh     change       -0.6607201E-02 Eh
 * total energy  :   -83.5955799 Eh     change       -0.1359458E-02 Eh
 * total energy  :   -83.5962404 Eh     change       -0.6604835E-03 Eh
 * total energy  :   -83.5964495 Eh     change       -0.2090978E-03 Eh
 * total energy  :   -83.5965457 Eh     change       -0.9626868E-04 Eh
 * total energy  :   -83.5966158 Eh     change       -0.7004670E-04 Eh
 * total energy  :   -83.5966855 Eh     change       -0.6971024E-04 Eh
 * total energy  :   -83.5967702 Eh     change       -0.8465655E-04 Eh
 * total energy  :   -83.6021279 Eh     change       -0.7598290E-05 Eh
 * total energy  :   -83.6021350 Eh     change       -0.7130562E-05 Eh
 * total energy  :   -83.6021426 Eh     change       -0.7560733E-05 Eh
 * total energy  :   -83.6021506 Eh     change       -0.8004652E-05 Eh
 * total energy  :   -83.6021585 Eh     change       -0.7924762E-05 Eh
 * total energy  :   -83.6021660 Eh     change       -0.7437831E-05 Eh
 * total energy  :   -83.6021729 Eh     change       -0.6901359E-05 Eh
 * total energy  :   -83.6021794 Eh     change       -0.6519800E-05 Eh
 * total energy  :   -83.6021826 Eh     change       -0.3246169E-05 Eh
   *** GEOMETRY OPTIMIZATION CONVERGED AFTER 94 ITERATIONS ***

 final structure:
================
42
 xtb: 6.5.1 (579679a)
C           -5.89420806054733        1.14098655071567       -0.93151621224393
O           -5.06169740712895        0.44065695192259       -0.01774094980677
C           -3.77403862045155        0.23459365247025       -0.41052656633868
O           -3.38685030280319        0.60469010556610       -1.50844319981998
C           -2.89161992018029       -0.31439847847654        0.72354732954376
C           -3.67849799927406       -1.30354683599419        1.60665954019944
N           -1.73309691202710       -0.98327199380917        0.16175212282760
C           -0.59785309447235       -0.32373597040092        0.14782221268628
C            0.54012379784701       -1.08910009779546       -0.55498203470387
C            0.65663925848153       -2.49901729927119        0.04230877660429
C            0.22190146874862       -1.17116600357002       -2.05615499829832
N            1.77452338888768       -0.34488618735282       -0.33818196003673
C            2.99645849859002       -0.71637220571371       -0.76305687159868
O            3.23458170789748       -1.72110123701418       -1.44917718321086
C            4.03921175590859        0.21296698988900       -0.31309798337479
N            3.86752334527137        1.28762724983260        0.42535300174814
N            5.10668059836287        1.83251842649725        0.62022097150474
C            5.95230275404742        1.07336013842469        0.00211675931060
C            7.42236139517844        1.24406200207845       -0.07762047114100
O            5.35884179226609        0.03051317546312       -0.61225672662335
N           -0.27714983486534        0.86765706416266        0.62743109973606
C           -1.26590700994539        1.55103199467364        1.34966874618612
O           -1.00061069192508        2.64644164377844        1.94490960673911
C           -2.52080082559282        0.95257734962725        1.43034194938846
O           -3.52510208664444        1.58606136133422        2.19682363605516
H           -5.49005578160770        2.13587887469341       -1.14651565238093
H           -5.98694946203020        0.58809858659899       -1.87202427374966
H           -6.87444085853033        1.23459346516788       -0.46601720726592
H           -3.01610578802428       -1.69717233317456        2.37731067744546
H           -4.52156863747639       -0.80634616671013        2.08418939432351
H           -4.04689894473951       -2.13391987173656        1.00443664692078
H           -0.32076667270426       -2.98053881920192        0.00031325354555
H            0.97340399501206       -2.44010518029393        1.08393604905384
H            1.37489728456848       -3.10305703002542       -0.51108481743984
H           -0.76402480798677       -1.61985862632260       -2.18138736366179
H            0.95967639592133       -1.77838968999303       -2.57993013580717
H            0.21259370273413       -0.17203372471272       -2.49335448544826
H            1.66171482850054        0.51069929442310        0.21311089597879
H            7.73275004318383        1.37287264644599       -1.11433002573717
H            7.71955011833316        2.11699017275590        0.49805681678607
H            7.92641387772181        0.36183158965055        0.31631204596987
H           -3.10390328853315        2.39327346542283        2.54077358614331

          :  Hamiltonian                  GFN1-xTB          :
         :: total energy             -83.602182619706 Eh    ::
         :: gradient norm              0.000180273654 Eh/a0 ::
         :: HOMO-LUMO gap              0.094800535683 eV    ::
         :: SCC energy               -84.327318910305 Eh    ::
         :: -> Gsolv                  -0.280018384892 Eh    ::
         :: repulsion energy           0.751277084839 Eh    ::

    * Orbital Energies and Occupations

         #    Occupation            Energy/Eh            Energy/eV
      -------------------------------------------------------------
         1        2.0000           -0.8250031             -22.4495
       ...           ...                  ...                  ...
        56        2.0000           -0.4387537             -11.9391
        57        2.0000           -0.4315797             -11.7439
        58        2.0000           -0.4235148             -11.5244
        59        2.0000           -0.4230635             -11.5121
        60        2.0000           -0.4185061             -11.3881
        61        2.0000           -0.4080830             -11.1045
        62        2.0000           -0.4031902             -10.9714
        63        2.0000           -0.3927440             -10.6871
        64        2.0000           -0.3825430             -10.4095
        65        2.0000           -0.3487144              -9.4890
        66        2.0000           -0.3244359              -8.8284
        67        2.0000           -0.3223314              -8.7711
        68        1.7244           -0.2765629              -7.5257 (HOMO)
        69        0.2756           -0.2730791              -7.4309 (LUMO)
        70                         -0.2269398              -6.1753
        71                         -0.2122155              -5.7747
        72                         -0.1687436              -4.5917
        73                         -0.1545729              -4.2061
        74                         -0.1313308              -3.5737
        75                         -0.1199593              -3.2643
        76                         -0.0948280              -2.5804
        77                         -0.0894239              -2.4333
        78                         -0.0876802              -2.3859
        79                         -0.0791188              -2.1529
       ...                                ...                  ...
       134                          0.7100810              19.3223
      -------------------------------------------------------------
                  HL-Gap            0.0034839 Eh            0.0948 eV

Wiberg/Mayer (AO) data.
largest (>0.10) Wiberg bond orders for each atom

     #   Z sym  total        # sym  WBO       # sym  WBO       # sym  WBO
 ---------------------------------------------------------------------------
     1   6 C    3.901 --    28 H    0.987    27 H    0.981    26 H    0.981
                             2 O    0.924
     2   8 O    2.152 --     3 C    1.040     1 C    0.924     4 O    0.108
     3   6 C    3.769 --     4 O    1.612     2 O    1.040     5 C    0.912
                            24 C    0.101
     4   8 O    1.867 --     3 C    1.612     2 O    0.108
     5   6 C    3.973 --     7 N    0.995     6 C    0.974    24 C    0.965
                             3 C    0.912
     6   6 C    3.983 --    31 H    0.988    29 H    0.987    30 H    0.987
                             5 C    0.974
     7   7 N    2.863 --     8 C    1.492     5 C    0.995    21 N    0.175
     8   6 C    3.958 --     7 N    1.492    21 N    1.398     9 C    0.951
     9   6 C    3.925 --    10 C    0.988    11 C    0.984     8 C    0.951
                            12 N    0.928
    10   6 C    3.994 --     9 C    0.988    33 H    0.987    34 H    0.985
                            32 H    0.984
    11   6 C    3.994 --    37 H    0.987    35 H    0.985    36 H    0.985
                             9 C    0.984
    12   7 N    3.317 --    13 C    1.255     9 C    0.928    38 H    0.874
                            14 O    0.164
    13   6 C    3.855 --    14 O    1.488    12 N    1.255    15 C    1.040
    14   8 O    1.774 --    13 C    1.488    12 N    0.164
    15   6 C    3.752 --    16 N    1.517    13 C    1.040    20 O    1.016
    16   7 N    2.873 --    15 C    1.517    17 N    1.185
    17   7 N    2.980 --    18 C    1.625    16 N    1.185
    18   6 C    3.846 --    17 N    1.625    20 O    1.065    19 C    1.026
    19   6 C    3.992 --    18 C    1.026    40 H    0.985    41 H    0.969
                            39 H    0.968
    20   8 O    2.247 --    18 C    1.065    15 C    1.016
    21   7 N    2.900 --     8 C    1.398    22 C    1.082     7 N    0.175
    22   6 C    3.913 --    23 O    1.354    24 C    1.354    21 N    1.082
    23   8 O    1.651 --    22 C    1.354    24 C    0.106
    24   6 C    3.613 --    22 C    1.354     5 C    0.965    25 O    0.951
                            23 O    0.106     3 C    0.101
    25   8 O    1.896 --    24 C    0.951    42 H    0.854
    26   1 H    1.013 --     1 C    0.981
    27   1 H    1.015 --     1 C    0.981
    28   1 H    1.016 --     1 C    0.987
    29   1 H    1.018 --     6 C    0.987
    30   1 H    1.018 --     6 C    0.987
    31   1 H    1.013 --     6 C    0.988
    32   1 H    1.029 --    10 C    0.984
    33   1 H    1.009 --    10 C    0.987
    34   1 H    1.017 --    10 C    0.985
    35   1 H    1.023 --    11 C    0.985
    36   1 H    1.017 --    11 C    0.985
    37   1 H    1.010 --    11 C    0.987
    38   1 H    1.001 --    12 N    0.874
    39   1 H    1.000 --    19 C    0.968
    40   1 H    1.002 --    19 C    0.985
    41   1 H    1.000 --    19 C    0.969
    42   1 H    0.906 --    25 O    0.854
 ---------------------------------------------------------------------------

           -------------------------------------------------
          | TOTAL ENERGY              -83.602182619706 Eh   |
          | GRADIENT NORM               0.000180273654 Eh/α |
          | HOMO-LUMO GAP               0.094800535683 eV   |
           -------------------------------------------------

 * finished run on 2023/06/20 at 17:37:36.652
