   * xtb version 6.5.1 (579679a) compiled by 'ehlert@majestix' on 2022-07-11
          program call               : /lustre/hpc/kemi/ree/PhD/git/ReactivityQM/dep/xtb-6.5.1/bin/xtb --gfn 1 /lustre/hpc/kemi/ree/PhD/git/ReactivityQM/calculations/R02oxygendeprot/reac01prodE04/conf08/R02oxygendeprot_reac01prodE04_conf08_gfn1.xyz --opt --vfukui --chrg -2 --uhf 0 --alpb DMSO

   ID    Z sym.   atoms
    1    6 C      1, 3, 5, 6, 8-11, 13, 15, 18, 19, 22, 24
    2    8 O      2, 4, 14, 20, 23, 25
    3    7 N      7, 12, 16, 17, 21
    4    1 H      26-42

      * Solvation model:               ALPB
        Solvent                        DMSO
        Solvent mass                       7.8130E+01 g/mol
          :  Hamiltonian                  GFN1-xTB          :
 * total energy  :   -83.5772176 Eh     change       -0.7057110E-09 Eh
 * total energy  :   -83.5988921 Eh     change       -0.2167442E-01 Eh
 * total energy  :   -83.6060708 Eh     change       -0.7178728E-02 Eh
 * total energy  :   -83.6076167 Eh     change       -0.1545899E-02 Eh
 * total energy  :   -83.6085183 Eh     change       -0.9016400E-03 Eh
 * total energy  :   -83.6088757 Eh     change       -0.3573164E-03 Eh
 * total energy  :   -83.6091463 Eh     change       -0.2706563E-03 Eh
 * total energy  :   -83.6094946 Eh     change       -0.3482872E-03 Eh
 * total energy  :   -83.6098981 Eh     change       -0.4035033E-03 Eh
 * total energy  :   -83.6102862 Eh     change       -0.3881508E-03 Eh
 * total energy  :   -83.6151963 Eh     change       -0.9859469E-05 Eh
 * total energy  :   -83.6152070 Eh     change       -0.1069283E-04 Eh
 * total energy  :   -83.6152211 Eh     change       -0.1415280E-04 Eh
 * total energy  :   -83.6152382 Eh     change       -0.1712813E-04 Eh
 * total energy  :   -83.6152536 Eh     change       -0.1532094E-04 Eh
 * total energy  :   -83.6152634 Eh     change       -0.9839272E-05 Eh
 * total energy  :   -83.6152699 Eh     change       -0.6459546E-05 Eh
 * total energy  :   -83.6152751 Eh     change       -0.5198783E-05 Eh
 * total energy  :   -83.6152800 Eh     change       -0.4919344E-05 Eh
   *** GEOMETRY OPTIMIZATION CONVERGED AFTER 59 ITERATIONS ***

 final structure:
================
42
 xtb: 6.5.1 (579679a)
C           -6.12318607482991       -0.06634106711270       -0.16102387673848
O           -5.03690955073664        0.69619590289642        0.34601873447849
C           -3.79676953280327        0.32103409767877       -0.06502580119073
O           -3.63798154772431       -0.60571506203001       -0.84741012835538
C           -2.69229170981822        1.07448112408920        0.65543646638039
C           -3.07843449728096        2.52341141291292        0.96285507869353
N           -1.48510229106000        1.05969433264767       -0.15379469508869
C           -0.76090262720973        0.00156695223011       -0.11628563979752
C            0.40941970567814       -0.13995717890147       -1.07998325141124
C            0.01388905994852       -1.18076700917064       -2.13879443645465
C            0.71078203078014        1.21303142279366       -1.73804569322318
N            1.55697617966254       -0.61452956004382       -0.30030429178867
C            2.82171769214259       -0.72757217902970       -0.89666417218111
O            2.98898686818317       -0.90023122103147       -2.12150412741789
C            3.86364073327723       -0.67344775799344        0.08114829264838
N            3.70571802903761       -0.45739441558270        1.39038162823616
N            4.96018004248161       -0.44749709925521        1.93597470276637
C            5.80011329643655       -0.64778070161572        0.97421388397599
C            7.27928466583483       -0.70962283840872        1.07725173688162
O            5.20194816800693       -0.80192427995562       -0.23105609808752
N           -0.99358760125619       -1.05006952691021        0.71335962368614
C           -1.77440143145587       -0.91311875471728        1.90962750306658
O           -1.57804052686852       -1.77987025211311        2.81070659460156
C           -2.61713572651323        0.21999391032058        1.95493264913988
O           -3.34026504483529        0.56919525071908        2.94964956194101
H           -6.05716885134835       -1.10864798008986        0.16766029672808
H           -6.13391231152366       -0.04166332518461       -1.25504887543743
H           -7.03693497673644        0.38421353365774        0.22332725952567
H           -2.23450989124049        3.02993629793828        1.43136983690608
H           -3.33709069815198        3.05185017619772        0.04587783067879
H           -3.92834908744443        2.55181137044771        1.64399503640602
H           -0.11429564812058       -2.15719668506502       -1.67227884577596
H           -0.92793331807498       -0.88506443510672       -2.60166861511774
H            0.77767104134346       -1.25739093679646       -2.91024046001023
H            1.51483089965346        1.11203613055821       -2.46503670973722
H           -0.18267502588002        1.57817698261207       -2.24372715581003
H            1.00171888801569        1.94147654732640       -0.98158231712960
H            1.60894050491999       -0.20062963867691        0.62628519329721
H            7.57437415971730       -0.62670351343514        2.12039530471273
H            7.65033411769360       -1.64992612866640        0.67006840994033
H            7.73405269735865        0.10390572516260        0.51139094689309
H           -0.30670280926179       -1.78894962329369        0.74415461917801

          :  Hamiltonian                  GFN1-xTB          :
         :: total energy             -83.615279974674 Eh    ::
         :: gradient norm              0.000263674926 Eh/a0 ::
         :: HOMO-LUMO gap              0.038255606546 eV    ::
         :: SCC energy               -84.341979600295 Eh    ::
         :: -> Gsolv                  -0.272432378520 Eh    ::
         :: repulsion energy           0.753323035002 Eh    ::

    * Orbital Energies and Occupations

         #    Occupation            Energy/Eh            Energy/eV
      -------------------------------------------------------------
         1        2.0000           -0.8034337             -21.8625
       ...           ...                  ...                  ...
        56        2.0000           -0.4469454             -12.1620
        57        2.0000           -0.4428950             -12.0518
        58        2.0000           -0.4313939             -11.7388
        59        2.0000           -0.4246626             -11.5557
        60        2.0000           -0.4103436             -11.1660
        61        2.0000           -0.4068408             -11.0707
        62        2.0000           -0.4059415             -11.0462
        63        2.0000           -0.3996185             -10.8742
        64        2.0000           -0.3908624             -10.6359
        65        2.0000           -0.3798654             -10.3367
        66        2.0000           -0.3758284             -10.2268
        67        2.0000           -0.3460104              -9.4154
        68        1.3539           -0.2703092              -7.3555 (HOMO)
        69        0.6461           -0.2689033              -7.3172 (LUMO)
        70                         -0.2216722              -6.0320
        71                         -0.2117173              -5.7611
        72                         -0.2021283              -5.5002
        73                         -0.1426920              -3.8828
        74                         -0.1249362              -3.3997
        75                         -0.1227023              -3.3389
        76                         -0.1149525              -3.1280
        77                         -0.0955080              -2.5989
        78                         -0.0930064              -2.5308
        79                         -0.0890210              -2.4224
       ...                                ...                  ...
       134                          0.7124967              19.3880
      -------------------------------------------------------------
                  HL-Gap            0.0014059 Eh            0.0383 eV

Wiberg/Mayer (AO) data.
largest (>0.10) Wiberg bond orders for each atom

     #   Z sym  total        # sym  WBO       # sym  WBO       # sym  WBO
 ---------------------------------------------------------------------------
     1   6 C    3.897 --    28 H    0.987    27 H    0.981    26 H    0.981
                             2 O    0.921
     2   8 O    2.152 --     3 C    1.044     1 C    0.921     4 O    0.107
     3   6 C    3.777 --     4 O    1.595     2 O    1.044     5 C    0.945
     4   8 O    1.852 --     3 C    1.595     2 O    0.107
     5   6 C    3.959 --     6 C    0.992     7 N    0.981     3 C    0.945
                            24 C    0.875
     6   6 C    3.990 --     5 C    0.992    30 H    0.989    29 H    0.987
                            31 H    0.983
     7   7 N    2.941 --     8 C    1.655     5 C    0.981    21 N    0.147
     8   6 C    3.932 --     7 N    1.655    21 N    1.175     9 C    0.970
     9   6 C    3.949 --    11 C    0.992    10 C    0.985     8 C    0.970
                            12 N    0.939
    10   6 C    3.993 --    33 H    0.987    32 H    0.986     9 C    0.985
                            34 H    0.980
    11   6 C    3.993 --     9 C    0.992    37 H    0.986    36 H    0.985
                            35 H    0.984
    12   7 N    3.145 --    13 C    1.080     9 C    0.939    38 H    0.919
                            14 O    0.108
    13   6 C    3.750 --    14 O    1.456    15 C    1.148    12 N    1.080
    14   8 O    1.697 --    13 C    1.456    12 N    0.108
    15   6 C    3.698 --    16 N    1.399    13 C    1.148    20 O    0.980
    16   7 N    2.750 --    15 C    1.399    17 N    1.185
    17   7 N    2.980 --    18 C    1.628    16 N    1.185
    18   6 C    3.821 --    17 N    1.628    20 O    1.051    19 C    1.024
    19   6 C    3.994 --    18 C    1.024    39 H    0.986    40 H    0.972
                            41 H    0.970
    20   8 O    2.188 --    18 C    1.051    15 C    0.980
    21   7 N    3.324 --     8 C    1.175    22 C    0.960    42 H    0.912
                             7 N    0.147
    22   6 C    3.746 --    23 O    1.389    24 C    1.244    21 N    0.960
    23   8 O    1.602 --    22 C    1.389
    24   6 C    3.731 --    25 O    1.371    22 C    1.244     5 C    0.875
    25   8 O    1.575 --    24 C    1.371
    26   1 H    1.012 --     1 C    0.981
    27   1 H    1.014 --     1 C    0.981
    28   1 H    1.015 --     1 C    0.987
    29   1 H    1.013 --     6 C    0.987
    30   1 H    1.010 --     6 C    0.989
    31   1 H    1.027 --     6 C    0.983
    32   1 H    1.009 --    10 C    0.986
    33   1 H    1.009 --    10 C    0.987
    34   1 H    1.023 --    10 C    0.980
    35   1 H    1.014 --    11 C    0.984
    36   1 H    1.020 --    11 C    0.985
    37   1 H    1.011 --    11 C    0.986
    38   1 H    0.980 --    12 N    0.919
    39   1 H    1.004 --    19 C    0.986
    40   1 H    1.001 --    19 C    0.972
    41   1 H    1.001 --    19 C    0.970
    42   1 H    0.971 --    21 N    0.912
 ---------------------------------------------------------------------------

           -------------------------------------------------
          | TOTAL ENERGY              -83.615279974674 Eh   |
          | GRADIENT NORM               0.000263674926 Eh/α |
          | HOMO-LUMO GAP               0.038255606546 eV   |
           -------------------------------------------------

 * finished run on 2023/06/21 at 17:05:00.452
