   * xtb version 6.5.1 (579679a) compiled by 'ehlert@majestix' on 2022-07-11
          program call               : /lustre/hpc/kemi/ree/PhD/git/ReactivityQM/dep/xtb-6.5.1/bin/xtb --gfn 1 /lustre/hpc/kemi/ree/PhD/git/ReactivityQM/calculations/R02methylcation/reac01prodN15/conf15/R02methylcation_reac01prodN15_conf15_gfn1.xyz --opt --vfukui --chrg 0 --uhf 0 --alpb DMSO

   ID    Z sym.   atoms
    1    6 C      1, 3, 5, 7-10, 12, 14, 17, 18, 21, 23, 24
    2    8 O      2, 4, 13, 19, 22, 25
    3    7 N      6, 11, 15, 16, 20
    4    1 H      26-42

      * Solvation model:               ALPB
        Solvent                        DMSO
        Solvent mass                       7.8130E+01 g/mol
          :  Hamiltonian                  GFN1-xTB          :
 * total energy  :   -82.8961249 Eh     change       -0.1804779E-11 Eh
 * total energy  :   -82.9162411 Eh     change       -0.2011613E-01 Eh
 * total energy  :   -82.9349567 Eh     change       -0.1871564E-01 Eh
 * total energy  :   -82.9534425 Eh     change       -0.1848583E-01 Eh
 * total energy  :   -82.9772823 Eh     change       -0.2383974E-01 Eh
 * total energy  :   -82.8705061 Eh     change        0.1067761E+00 Eh
 * total energy  :   -82.9964048 Eh     change       -0.1258987E+00 Eh
 * total energy  :   -83.0005080 Eh     change       -0.4103161E-02 Eh
 * total energy  :   -83.0023529 Eh     change       -0.1844933E-02 Eh
 * total energy  :   -83.0034101 Eh     change       -0.1057177E-02 Eh
 * total energy  :   -83.0075182 Eh     change       -0.2749217E-04 Eh
 * total energy  :   -83.0075457 Eh     change       -0.2743398E-04 Eh
 * total energy  :   -83.0075601 Eh     change       -0.1442191E-04 Eh
 * total energy  :   -83.0075805 Eh     change       -0.2042885E-04 Eh
 * total energy  :   -83.0075970 Eh     change       -0.1652275E-04 Eh
 * total energy  :   -83.0076047 Eh     change       -0.7683570E-05 Eh
 * total energy  :   -83.0076130 Eh     change       -0.8259765E-05 Eh
 * total energy  :   -83.0076183 Eh     change       -0.5280771E-05 Eh
 * total energy  :   -83.0076228 Eh     change       -0.4537339E-05 Eh
   *** GEOMETRY OPTIMIZATION CONVERGED AFTER 45 ITERATIONS ***

 final structure:
================
42
 xtb: 6.5.1 (579679a)
C           -5.40215455647865       -1.57854268165355        2.36184666780963
O           -4.65127140695893       -0.99387482682992        1.28900257678301
C           -3.33409986049668       -1.08826121031097        1.35481710874819
O           -2.72834281614989       -1.61346390817498        2.25456395879790
C           -2.63309602234891       -0.43663691808247        0.17276525523621
N           -1.35980815584606       -1.00052578185327       -0.06927554514274
C           -0.54309582145592       -0.39000834661250       -0.83656179821631
C            0.77151196268977       -1.06614002779073       -1.20309958685355
C            0.84832479745639       -2.43245284608713       -0.51980441651307
C            0.87236023930735       -1.23285497676285       -2.72435234765647
N            1.90112146737531       -0.27738676820776       -0.68845482886227
C            2.37165875056779        0.87108362952535       -1.20846488754120
O            1.85537721510730        1.50679854454052       -2.11845059859338
C            3.60987680737715        1.33846398460186       -0.54270330644436
N            4.27955648240681        2.42162820580066       -0.78785334002797
N            5.33903578782955        2.43111299628254        0.06697248508373
C            5.25228150867643        1.35320885031039        0.78304803011643
C            6.16475308149281        0.89817828165697        1.85349062977448
O            4.17936913090111        0.61765100819304        0.44789660557254
N           -0.76557579109143        0.87019028513619       -1.33859852847220
C           -1.76671492823885        1.69394278110312       -0.89182394527789
O           -1.71483634230865        2.89967832689451       -1.02087310219293
C           -2.90862610195707        0.98491887180809       -0.22328470207258
C           -3.90639554108625        1.87377189382423        0.47955676588978
O           -3.40248371165065       -0.11649042985092       -0.94632675871921
H           -6.42375458571966       -1.22050478769046        2.25543673255634
H           -5.37024879535195       -2.66714221229222        2.28175046028483
H           -4.98495981198202       -1.26942549047412        3.32261620269947
H            0.02846555897476       -3.06172573094332       -0.86176849485477
H            0.77169426015021       -2.31914311157607        0.56045681435700
H            1.79280017744633       -2.91376815457991       -0.76421285056938
H            1.83848294383076       -1.66591562094174       -2.97665789349190
H            0.08353435530770       -1.90294458205443       -3.06305858360023
H            0.76784511965821       -0.27969568028045       -3.23801261612085
H            2.43110855457635       -0.70255163973885        0.05526254572068
H            6.58810030737882       -0.07112602543415        1.59192372910788
H            5.61400482186169        0.78301148954134        2.78680130792782
H            6.96464827160593        1.62223375247604        1.98679719225299
H            0.00908849562174        1.32560576234484       -1.82131155080190
H           -3.49318984655350        2.22405095060166        1.42355946721355
H           -4.82978298286154        1.33328995236480        0.66607337305712
H           -4.11656401906216        2.73830819122002       -0.14968822696208

          :  Hamiltonian                  GFN1-xTB          :
         :: total energy             -83.007622801820 Eh    ::
         :: gradient norm              0.000738820119 Eh/a0 ::
         :: HOMO-LUMO gap              3.517236713948 eV    ::
         :: SCC energy               -83.777132709294 Eh    ::
         :: -> Gsolv                  -0.052646148570 Eh    ::
         :: repulsion energy           0.795169640385 Eh    ::

    * Orbital Energies and Occupations

         #    Occupation            Energy/Eh            Energy/eV
      -------------------------------------------------------------
         1        2.0000           -0.8681361             -23.6232
       ...           ...                  ...                  ...
        55        2.0000           -0.5076743             -13.8145
        56        2.0000           -0.5049153             -13.7394
        57        2.0000           -0.5037659             -13.7082
        58        2.0000           -0.5024501             -13.6724
        59        2.0000           -0.4828926             -13.1402
        60        2.0000           -0.4795389             -13.0489
        61        2.0000           -0.4722379             -12.8502
        62        2.0000           -0.4677796             -12.7289
        63        2.0000           -0.4614412             -12.5565
        64        2.0000           -0.4600452             -12.5185
        65        2.0000           -0.4548788             -12.3779
        66        2.0000           -0.4520873             -12.3019
        67        2.0000           -0.4451406             -12.1129 (HOMO)
        68                         -0.3158845              -8.5957 (LUMO)
        69                         -0.3005554              -8.1785
        70                         -0.2867972              -7.8041
        71                         -0.2588575              -7.0439
        72                         -0.2558557              -6.9622
        73                         -0.2034482              -5.5361
        74                         -0.1428455              -3.8870
        75                         -0.1427167              -3.8835
        76                         -0.1323500              -3.6014
        77                         -0.1294701              -3.5231
        78                         -0.1269283              -3.4539
       ...                                ...                  ...
       134                          0.7160881              19.4857
      -------------------------------------------------------------
                  HL-Gap            0.1292561 Eh            3.5172 eV

Wiberg/Mayer (AO) data.
largest (>0.10) Wiberg bond orders for each atom

     #   Z sym  total        # sym  WBO       # sym  WBO       # sym  WBO
 ---------------------------------------------------------------------------
     1   6 C    3.860 --    26 H    0.985    28 H    0.980    27 H    0.979
                             2 O    0.884
     2   8 O    2.226 --     3 C    1.142     1 C    0.884     4 O    0.141
     3   6 C    3.850 --     4 O    1.687     2 O    1.142     5 C    0.937
     4   8 O    1.939 --     3 C    1.687     2 O    0.141
     5   6 C    3.870 --     6 N    1.028     3 C    0.937    25 O    0.907
                            23 C    0.834
     6   7 N    3.021 --     7 C    1.701     5 C    1.028
     7   6 C    3.930 --     6 N    1.701    20 N    1.128     8 C    0.966
     8   6 C    3.933 --     9 C    1.001    10 C    0.984     7 C    0.966
                            11 N    0.917
     9   6 C    3.990 --     8 C    1.001    31 H    0.985    29 H    0.982
                            30 H    0.982
    10   6 C    3.988 --    33 H    0.984     8 C    0.984    32 H    0.983
                            34 H    0.979
    11   7 N    3.354 --    12 C    1.272     8 C    0.917    35 H    0.891
                            13 O    0.174
    12   6 C    3.915 --    13 O    1.556    11 N    1.272    14 C    0.999
    13   8 O    1.916 --    12 C    1.556    11 N    0.174
    14   6 C    3.874 --    15 N    1.619    19 O    1.047    12 C    0.999
    15   7 N    3.001 --    14 C    1.619    16 N    1.202
    16   7 N    2.982 --    17 C    1.608    15 N    1.202
    17   6 C    3.867 --    16 N    1.608    19 O    1.072    18 C    1.032
    18   6 C    3.986 --    17 C    1.032    38 H    0.982    37 H    0.963
                            36 H    0.962
    19   8 O    2.317 --    17 C    1.072    14 C    1.047
    20   7 N    3.427 --    21 C    1.155     7 C    1.128    39 H    0.846
                            22 O    0.126
    21   6 C    3.896 --    22 O    1.647    20 N    1.155    23 C    0.978
    22   8 O    1.927 --    21 C    1.647    20 N    0.126
    23   6 C    3.860 --    24 C    1.002    21 C    0.978    25 O    0.893
                             5 C    0.834
    24   6 C    3.986 --    23 C    1.002    41 H    0.981    40 H    0.980
                            42 H    0.975
    25   8 O    1.965 --     5 C    0.907    23 C    0.893
    26   1 H    1.009 --     1 C    0.985
    27   1 H    1.004 --     1 C    0.979
    28   1 H    1.006 --     1 C    0.980
    29   1 H    1.006 --     9 C    0.982
    30   1 H    1.005 --     9 C    0.982
    31   1 H    0.998 --     9 C    0.985
    32   1 H    0.999 --    10 C    0.983
    33   1 H    1.000 --    10 C    0.984
    34   1 H    1.008 --    10 C    0.979
    35   1 H    0.935 --    11 N    0.891
    36   1 H    0.996 --    18 C    0.962
    37   1 H    0.996 --    18 C    0.963
    38   1 H    0.998 --    18 C    0.982
    39   1 H    0.932 --    20 N    0.846
    40   1 H    1.000 --    24 C    0.980
    41   1 H    1.008 --    24 C    0.981
    42   1 H    1.003 --    24 C    0.975
 ---------------------------------------------------------------------------

           -------------------------------------------------
          | TOTAL ENERGY              -83.007622801820 Eh   |
          | GRADIENT NORM               0.000738820119 Eh/α |
          | HOMO-LUMO GAP               3.517236713948 eV   |
           -------------------------------------------------

 * finished run on 2023/06/21 at 17:57:03.022
