   * xtb version 6.5.1 (579679a) compiled by 'ehlert@majestix' on 2022-07-11
          program call               : /lustre/hpc/kemi/ree/PhD/git/ReactivityQM/dep/xtb-6.5.1/bin/xtb --gfn 1 /lustre/hpc/kemi/ree/PhD/git/ReactivityQM/calculations/R03/reac02prodN14/conf10/R03_reac02prodN14_conf10_gfn1.xyz --opt --vfukui --chrg 1 --uhf 0 --alpb DMSO

   ID    Z sym.   atoms
    1    6 C      1, 3, 5, 6, 8, 9, 12-16, 18, 20, 23, 24
    2    8 O      2, 4, 7, 10, 19, 25
    3    7 N      11, 17, 21, 22, 26
    4    1 H      27-46

      * Solvation model:               ALPB
        Solvent                        DMSO
        Solvent mass                       7.8130E+01 g/mol
          :  Hamiltonian                  GFN1-xTB          :
 * total energy  :   -86.2048853 Eh     change       -0.1531973E-08 Eh
 * total energy  :   -86.2276642 Eh     change       -0.2277892E-01 Eh
 * total energy  :   -86.2411567 Eh     change       -0.1349255E-01 Eh
 * total energy  :   -86.2457377 Eh     change       -0.4580976E-02 Eh
 * total energy  :   -86.2493994 Eh     change       -0.3661690E-02 Eh
 * total energy  :   -86.2512974 Eh     change       -0.1898054E-02 Eh
 * total energy  :   -86.2524369 Eh     change       -0.1139477E-02 Eh
 * total energy  :   -86.2531143 Eh     change       -0.6773864E-03 Eh
 * total energy  :   -86.2535290 Eh     change       -0.4146958E-03 Eh
 * total energy  :   -86.2539294 Eh     change       -0.4004186E-03 Eh
 * total energy  :   -86.3026079 Eh     change       -0.1693831E-04 Eh
 * total energy  :   -86.3026312 Eh     change       -0.2331843E-04 Eh
 * total energy  :   -86.3026499 Eh     change       -0.1872959E-04 Eh
 * total energy  :   -86.3026684 Eh     change       -0.1852292E-04 Eh
 * total energy  :   -86.3026825 Eh     change       -0.1404043E-04 Eh
 * total energy  :   -86.3026975 Eh     change       -0.1502830E-04 Eh
 * total energy  :   -86.3027128 Eh     change       -0.1526974E-04 Eh
 * total energy  :   -86.3027179 Eh     change       -0.5178680E-05 Eh
 * total energy  :   -86.3027224 Eh     change       -0.4465719E-05 Eh
   *** GEOMETRY OPTIMIZATION CONVERGED AFTER 63 ITERATIONS ***

 final structure:
================
46
 xtb: 6.5.1 (579679a)
C           -1.76012415322843        4.20729034007935        0.49261370125660
O           -1.64524550979093        2.77141517883818        0.50103192656906
C           -2.37015444217860        2.11295318770823       -0.36428938450378
O           -3.11129476331547        2.59239986691918       -1.18475552122411
C           -2.19151515723817        0.61127955743839       -0.25537448885833
C           -3.22805222350199       -0.29810300046292       -0.83763207492263
O           -4.51044702806775        0.22395344034600       -0.84983294521383
C           -3.24795501958915       -1.59727874583648       -0.05087629240315
C           -2.76949841719402       -0.68555357449872       -2.27744798113446
O           -4.17805414875253       -2.33019862943054        0.05088489140343
N           -1.95548707406443       -2.00129463176808        0.47955273867253
C           -1.97930727727869       -3.35442236795334        1.04106002072644
C           -0.90598234608814       -1.19990778777610        0.41884249089040
C            0.52767750726715       -1.59339440496030        0.66127415793414
C            0.91548108137072       -2.91445683731912       -0.02020065991684
C            0.77496866022768       -1.61976706545558        2.18773958400982
N            1.34524862104555       -0.53107529405040        0.08551265094136
C            2.69790348366600       -0.47915181047565        0.20420148809802
O            3.38714334192032       -1.32220157434116        0.74302110442749
C            3.22533573932366        0.74760286370126       -0.43191007065057
N            2.51849195254790        1.68298470634605       -0.99452278561837
N            3.39537115367326        2.62241014814558       -1.43809741615978
C            4.58449292739639        2.20188311875793       -1.11829048818899
C            5.88051723983575        2.86124094252714       -1.38830842734924
O            4.53949153918674        1.02393771919718       -0.48064431421133
N           -1.10125105822159        0.13449874718146        0.22726162270912
H           -1.06504380903184        4.57157918752206        1.24543229779418
H           -1.50187841731458        4.58853042367428       -0.49659525395142
H           -2.78475337032093        4.48996436862902        0.73977556984043
H           -4.54124679895748        1.07642199802261       -1.31660090448452
H           -2.74154321892777        0.22067351656344       -2.87829233270786
H           -1.78641617517384       -1.14774059792697       -2.25634785809547
H           -3.50211603111654       -1.37619650479126       -2.68966026995601
H           -1.93462899082061       -4.07365703352247        0.22448106256968
H           -1.15425117079198       -3.49478954204270        1.72654412941963
H           -2.92280675204128       -3.47194234198258        1.57297945765221
H            2.00034733580476       -3.00573518462575       -0.00046942130340
H            0.49567721754836       -3.77220772796634        0.49484693844811
H            0.57677329515970       -2.90896142175069       -1.05414822672203
H            1.80612351929288       -1.92148173902819        2.36335488551891
H            0.11189540145952       -2.32378639811530        2.68177711275601
H            0.61140048979117       -0.62458049696313        2.59674654794521
H            0.87240550319486        0.24932146536650       -0.34986944415468
H            6.47388451424816        2.90368145229803       -0.47530085351982
H            5.70864558996162        3.86632704466018       -1.76638168587559
H            6.43977923907809        2.28753543912980       -2.12859427845507

          :  Hamiltonian                  GFN1-xTB          :
         :: total energy             -86.302722405551 Eh    ::
         :: gradient norm              0.000595351669 Eh/a0 ::
         :: HOMO-LUMO gap              0.877145090687 eV    ::
         :: SCC energy               -87.131192105690 Eh    ::
         :: -> Gsolv                  -0.105973407435 Eh    ::
         :: repulsion energy           0.858308113500 Eh    ::

    * Orbital Energies and Occupations

         #    Occupation            Energy/Eh            Energy/eV
      -------------------------------------------------------------
         1        2.0000           -0.8997911             -24.4846
       ...           ...                  ...                  ...
        58        2.0000           -0.5362628             -14.5925
        59        2.0000           -0.5353594             -14.5679
        60        2.0000           -0.5328886             -14.5006
        61        2.0000           -0.5288448             -14.3906
        62        2.0000           -0.5260245             -14.3139
        63        2.0000           -0.5161017             -14.0438
        64        2.0000           -0.5091774             -13.8554
        65        2.0000           -0.4942609             -13.4495
        66        2.0000           -0.4932562             -13.4222
        67        2.0000           -0.4810899             -13.0911
        68        2.0000           -0.4783117             -13.0155
        69        2.0000           -0.4634662             -12.6116
        70        2.0000           -0.4619551             -12.5704 (HOMO)
        71                         -0.4297206             -11.6933 (LUMO)
        72                         -0.3583761              -9.7519
        73                         -0.3257145              -8.8631
        74                         -0.3166238              -8.6158
        75                         -0.2713828              -7.3847
        76                         -0.2656902              -7.2298
        77                         -0.2126641              -5.7869
        78                         -0.1785065              -4.8574
        79                         -0.1585970              -4.3156
        80                         -0.1555751              -4.2334
        81                         -0.1515551              -4.1240
       ...                                ...                  ...
       144                          0.7142404              19.4355
      -------------------------------------------------------------
                  HL-Gap            0.0322345 Eh            0.8771 eV

Wiberg/Mayer (AO) data.
largest (>0.10) Wiberg bond orders for each atom

     #   Z sym  total        # sym  WBO       # sym  WBO       # sym  WBO
 ---------------------------------------------------------------------------
     1   6 C    3.837 --    27 H    0.984    28 H    0.976    29 H    0.975
                             2 O    0.866
     2   8 O    2.252 --     3 C    1.185     1 C    0.866     4 O    0.156
     3   6 C    3.864 --     4 O    1.671     2 O    1.185     5 C    0.941
     4   8 O    1.978 --     3 C    1.671     2 O    0.156
     5   6 C    3.907 --    26 N    1.666     6 C    0.994     3 C    0.941
     6   6 C    3.941 --     7 O    1.003     5 C    0.994     8 C    0.941
                             9 C    0.879
     7   8 O    1.918 --     6 C    1.003    30 H    0.812
     8   6 C    3.851 --    10 O    1.818    11 N    0.952     6 C    0.941
     9   6 C    3.965 --    32 H    0.985    31 H    0.975    33 H    0.974
                             6 C    0.879
    10   8 O    2.061 --     8 C    1.818
    11   7 N    3.556 --    13 C    1.426     8 C    0.952    12 C    0.906
    12   6 C    3.882 --    35 H    0.974    36 H    0.963    34 H    0.961
                            11 N    0.906
    13   6 C    3.886 --    11 N    1.426    26 N    1.205    14 C    1.010
    14   6 C    3.933 --    13 C    1.010    15 C    0.968    17 N    0.947
                            16 C    0.930
    15   6 C    3.977 --    39 H    0.984    38 H    0.979    37 H    0.970
                            14 C    0.968
    16   6 C    3.969 --    42 H    0.983    41 H    0.978    40 H    0.967
                            14 C    0.930
    17   7 N    3.321 --    18 C    1.213    14 C    0.947    43 H    0.875
                            19 O    0.166
    18   6 C    3.910 --    19 O    1.611    17 N    1.213    20 C    0.999
    19   8 O    1.929 --    18 C    1.611    17 N    0.166
    20   6 C    3.880 --    21 N    1.600    25 O    1.067    18 C    0.999
    21   7 N    3.021 --    20 C    1.600    22 N    1.210
    22   7 N    2.981 --    23 C    1.593    21 N    1.210
    23   6 C    3.866 --    22 N    1.593    25 O    1.086    24 C    1.033
    24   6 C    3.984 --    23 C    1.033    45 H    0.981    44 H    0.966
                            46 H    0.958
    25   8 O    2.336 --    23 C    1.086    20 C    1.067
    26   7 N    3.126 --     5 C    1.666    13 C    1.205
    27   1 H    1.005 --     1 C    0.984
    28   1 H    1.000 --     1 C    0.976
    29   1 H    0.999 --     1 C    0.975
    30   1 H    0.850 --     7 O    0.812
    31   1 H    0.995 --     9 C    0.975
    32   1 H    0.995 --     9 C    0.985
    33   1 H    0.993 --     9 C    0.974
    34   1 H    0.991 --    12 C    0.961
    35   1 H    1.001 --    12 C    0.974
    36   1 H    0.995 --    12 C    0.963
    37   1 H    1.001 --    15 C    0.970
    38   1 H    0.998 --    15 C    0.979
    39   1 H    0.997 --    15 C    0.984
    40   1 H    1.001 --    16 C    0.967
    41   1 H    0.998 --    16 C    0.978
    42   1 H    0.997 --    16 C    0.983
    43   1 H    0.955 --    17 N    0.875
    44   1 H    0.996 --    24 C    0.966
    45   1 H    0.997 --    24 C    0.981
    46   1 H    0.995 --    24 C    0.958
 ---------------------------------------------------------------------------

           -------------------------------------------------
          | TOTAL ENERGY              -86.302722405551 Eh   |
          | GRADIENT NORM               0.000595351669 Eh/α |
          | HOMO-LUMO GAP               0.877145090687 eV   |
           -------------------------------------------------

 * finished run on 2023/06/20 at 15:50:36.721
