   * xtb version 6.5.1 (579679a) compiled by 'ehlert@majestix' on 2022-07-11
          program call               : /lustre/hpc/kemi/ree/PhD/git/ReactivityQM/dep/xtb-6.5.1/bin/xtb --gfn 1 /lustre/hpc/kemi/ree/PhD/git/ReactivityQM/calculations/R02deprot/reac01prodN08/conf09/R02deprot_reac01prodN08_conf09_gfn1.xyz --opt --vfukui --chrg 0 --uhf 0 --alpb DMSO

   ID    Z sym.   atoms
    1    6 C      1, 3, 5, 7-10, 12, 14, 17-19, 22, 24
    2    8 O      2, 4, 13, 20, 23, 25
    3    7 N      6, 11, 15, 16, 21
    4    1 H      26-42

      * Solvation model:               ALPB
        Solvent                        DMSO
        Solvent mass                       7.8130E+01 g/mol
          :  Hamiltonian                  GFN1-xTB          :
 * total energy  :   -82.9484026 Eh     change       -0.4908145E-09 Eh
 * total energy  :   -82.9657900 Eh     change       -0.1738739E-01 Eh
 * total energy  :   -82.9717692 Eh     change       -0.5979241E-02 Eh
 * total energy  :   -82.9726478 Eh     change       -0.8785438E-03 Eh
 * total energy  :   -82.9732402 Eh     change       -0.5924110E-03 Eh
 * total energy  :   -82.9734763 Eh     change       -0.2361398E-03 Eh
 * total energy  :   -82.9737403 Eh     change       -0.2639655E-03 Eh
 * total energy  :   -82.9740174 Eh     change       -0.2770977E-03 Eh
 * total energy  :   -82.9742878 Eh     change       -0.2704726E-03 Eh
 * total energy  :   -82.9745544 Eh     change       -0.2665689E-03 Eh
 * total energy  :   -82.9767838 Eh     change       -0.1345488E-04 Eh
 * total energy  :   -82.9767953 Eh     change       -0.1148394E-04 Eh
 * total energy  :   -82.9768040 Eh     change       -0.8645300E-05 Eh
 * total energy  :   -82.9768119 Eh     change       -0.7899585E-05 Eh
 * total energy  :   -82.9768204 Eh     change       -0.8576620E-05 Eh
 * total energy  :   -82.9768299 Eh     change       -0.9415855E-05 Eh
 * total energy  :   -82.9768382 Eh     change       -0.8320475E-05 Eh
 * total energy  :   -82.9768437 Eh     change       -0.5556616E-05 Eh
 * total energy  :   -82.9768473 Eh     change       -0.3608081E-05 Eh
   *** GEOMETRY OPTIMIZATION CONVERGED AFTER 61 ITERATIONS ***

 final structure:
================
42
 xtb: 6.5.1 (579679a)
C            7.11584471378453        0.29879146035786        1.28603181692886
O            5.76760174031364        0.72102272419042        1.09498435254927
C            4.92353828993966       -0.19399129181156        0.59157312208047
O            5.28981703242909       -1.31817923498182        0.30814770744258
C            3.53708120776019        0.29964266565931        0.42965424095584
N            2.65970338054518       -0.63390828195295       -0.06409030886816
C            1.41031336199632       -0.27018538834220       -0.21467600768633
C            0.47295202484925       -1.34119456659763       -0.76087349651110
C            0.55067267145976       -2.59671806621778        0.11493040878463
C            0.84979017850110       -1.65648991699229       -2.21383655385164
N           -0.87869488747210       -0.77442420754264       -0.70883346991497
C           -1.98401070611850       -1.41571731272566       -1.05410144780076
O           -2.08648815219491       -2.54944047230927       -1.49085209907018
C           -3.22640602365095       -0.58367040485768       -0.83873220405133
N           -4.45675319512125       -0.96285388609216       -1.01834874517940
N           -5.20227463872585        0.10378101299439       -0.67390086738596
C           -6.64630059423226        0.03487023260557       -0.73359094690634
C           -4.42431002911804        1.09618414845212       -0.29621069599002
C           -4.80591028706895        2.44225008361424        0.16005719806513
O           -3.17572650913292        0.68799307077661       -0.39149881400925
N            0.86693271371794        0.91976226934936        0.04584658665418
C            1.67022847507149        1.90092269214598        0.52563306063704
O            1.28570453183717        3.05205005747299        0.80158908099295
C            3.08252207273893        1.55731867374854        0.72727618235217
O            3.84114026502567        2.56325398550836        1.21278825205555
H            7.66929884624307        1.16341104661514        1.64787401292254
H            7.54313964393068       -0.05283219868311        0.34289957890760
H            7.16083279599510       -0.50923230638571        2.02162931487907
H            0.17227213767296       -2.37867472549017        1.11264107104395
H            1.59372048187796       -2.90381640906975        0.19057004664334
H           -0.03316134329984       -3.40779007498047       -0.31679293463303
H            0.22266122312167       -2.45403861444329       -2.60900627931543
H            0.72605356189642       -0.76730640172614       -2.83059867302377
H            1.89342990127532       -1.96870203341918       -2.24569782772463
H           -0.90726606083279        0.18818537027948       -0.36853296790662
H           -6.91706735066531       -0.89435801345816       -1.22808066867499
H           -7.01850082956528        0.89082386168782       -1.29239282943295
H           -7.04366145014847        0.05604576109926        0.28013042505762
H           -5.37034336708126        2.37004153373314        1.09103293647567
H           -5.44889692859755        2.91714441448023       -0.58164773267844
H           -3.91335280450848        3.04424179306416        0.31870027404652
H            3.23387690555817        3.32578595024895        1.32023190113451

          :  Hamiltonian                  GFN1-xTB          :
         :: total energy             -82.976847343780 Eh    ::
         :: gradient norm              0.000317956617 Eh/a0 ::
         :: HOMO-LUMO gap              0.828809722689 eV    ::
         :: SCC energy               -83.758056353975 Eh    ::
         :: -> Gsolv                  -0.096201373718 Eh    ::
         :: repulsion energy           0.805945636667 Eh    ::

    * Orbital Energies and Occupations

         #    Occupation            Energy/Eh            Energy/eV
      -------------------------------------------------------------
         1        2.0000           -0.9316339             -25.3510
       ...           ...                  ...                  ...
        55        2.0000           -0.4956839             -13.4882
        56        2.0000           -0.4947535             -13.4629
        57        2.0000           -0.4878099             -13.2740
        58        2.0000           -0.4812920             -13.0966
        59        2.0000           -0.4802066             -13.0671
        60        2.0000           -0.4694138             -12.7734
        61        2.0000           -0.4548886             -12.3781
        62        2.0000           -0.4541588             -12.3583
        63        2.0000           -0.4458746             -12.1329
        64        2.0000           -0.4269150             -11.6169
        65        2.0000           -0.4096310             -11.1466
        66        2.0000           -0.3831512             -10.4261
        67        2.0000           -0.3781446             -10.2898 (HOMO)
        68        0.0000           -0.3476864              -9.4610 (LUMO)
        69                         -0.3381392              -9.2012
        70                         -0.2814474              -7.6586
        71                         -0.2355882              -6.4107
        72                         -0.2268210              -6.1721
        73                         -0.1957763              -5.3273
        74                         -0.1826445              -4.9700
        75                         -0.1694878              -4.6120
        76                         -0.1290729              -3.5123
        77                         -0.1228064              -3.3417
        78                         -0.1167946              -3.1781
       ...                                ...                  ...
       134                          0.7397802              20.1304
      -------------------------------------------------------------
                  HL-Gap            0.0304582 Eh            0.8288 eV

Wiberg/Mayer (AO) data.
largest (>0.10) Wiberg bond orders for each atom

     #   Z sym  total        # sym  WBO       # sym  WBO       # sym  WBO
 ---------------------------------------------------------------------------
     1   6 C    3.886 --    26 H    0.987    28 H    0.980    27 H    0.980
                             2 O    0.911
     2   8 O    2.185 --     3 C    1.086     1 C    0.911     4 O    0.124
     3   6 C    3.839 --     4 O    1.634     2 O    1.086     5 C    1.026
     4   8 O    1.896 --     3 C    1.634     2 O    0.124
     5   6 C    3.963 --    24 C    1.485     6 N    1.193     3 C    1.026
     6   7 N    2.999 --     7 C    1.482     5 C    1.193
     7   6 C    3.959 --     6 N    1.482    21 N    1.352     8 C    0.969
     8   6 C    3.915 --     9 C    0.985    10 C    0.981     7 C    0.969
                            11 N    0.908
     9   6 C    3.991 --    29 H    0.986     8 C    0.985    31 H    0.984
                            30 H    0.982
    10   6 C    3.991 --    33 H    0.986    34 H    0.984    32 H    0.984
                             8 C    0.981
    11   7 N    3.424 --    12 C    1.344     8 C    0.908    35 H    0.856
                            13 O    0.209
    12   6 C    3.932 --    13 O    1.567    11 N    1.344    14 C    0.948
    13   8 O    1.902 --    12 C    1.567    11 N    0.209
    14   6 C    3.829 --    15 N    1.612    20 O    1.053    12 C    0.948
    15   7 N    2.977 --    14 C    1.612    16 N    1.147
    16   7 N    3.631 --    18 C    1.426    15 N    1.147    17 C    0.913
    17   6 C    3.889 --    36 H    0.979    37 H    0.972    38 H    0.968
                            16 N    0.913
    18   6 C    3.844 --    16 N    1.426    20 O    1.150    19 C    1.040
    19   6 C    3.963 --    18 C    1.040    41 H    0.973    40 H    0.949
                            39 H    0.944
    20   8 O    2.377 --    18 C    1.150    14 C    1.053
    21   7 N    3.021 --     7 C    1.352    22 C    1.242    23 O    0.126
    22   6 C    3.928 --    23 O    1.480    21 N    1.242    24 C    1.069
    23   8 O    1.815 --    22 C    1.480    21 N    0.126
    24   6 C    3.907 --     5 C    1.485    25 O    1.076    22 C    1.069
    25   8 O    2.052 --    24 C    1.076    42 H    0.813
    26   1 H    1.013 --     1 C    0.987
    27   1 H    1.011 --     1 C    0.980
    28   1 H    1.010 --     1 C    0.980
    29   1 H    1.004 --     9 C    0.986
    30   1 H    1.015 --     9 C    0.982
    31   1 H    1.009 --     9 C    0.984
    32   1 H    1.008 --    10 C    0.984
    33   1 H    1.004 --    10 C    0.986
    34   1 H    1.010 --    10 C    0.984
    35   1 H    0.965 --    11 N    0.856
    36   1 H    0.993 --    17 C    0.979
    37   1 H    0.990 --    17 C    0.972
    38   1 H    0.990 --    17 C    0.968
    39   1 H    0.986 --    19 C    0.944
    40   1 H    0.987 --    19 C    0.949
    41   1 H    0.986 --    19 C    0.973
    42   1 H    0.873 --    25 O    0.813
 ---------------------------------------------------------------------------

           -------------------------------------------------
          | TOTAL ENERGY              -82.976847343780 Eh   |
          | GRADIENT NORM               0.000317956617 Eh/α |
          | HOMO-LUMO GAP               0.828809722689 eV   |
           -------------------------------------------------

 * finished run on 2023/06/20 at 18:15:29.074
