                         Program Version 5.0.1 -  RELEASE  -
|  1> # ORCA input file
|  2> ! SP r2SCAN-3c CPCM
|  3>
|  4> %maxcore 1875.0
|  5> %pal nprocs 4 end
|  6> %cpcm smd true SMDsolvent "DMSO" end
|  7>
|  8> *xyz -1 1
|  9> C      -2.497031    1.763833   -0.193384
| 10> O      -2.074884    0.567863    0.414461
| 11> C      -1.378988   -0.385913   -0.532163
| 12> C      -1.396103   -1.721796    0.270514
| 13> O      -1.870380   -0.427959   -1.719338
| 14> C       0.109802    0.142258   -0.520341
| 15> N       0.534225    1.309879   -0.890830
| 16> N       1.912931    1.287324   -0.804295
| 17> C       2.228912    0.105365   -0.395081
| 18> C       3.587813   -0.431806   -0.140767
| 19> O       1.144380   -0.670441   -0.196417
| 20> H      -3.201823    2.256922    0.482864
| 21> H      -1.653017    2.449437   -0.379330
| 22> H      -3.005257    1.575283   -1.151826
| 23> H      -2.426535   -2.065964    0.336620
| 24> H      -0.993631   -1.581529    1.271670
| 25> H      -0.804114   -2.463230   -0.261897
| 26> H       4.328111    0.334672   -0.355182
| 27> H       3.774372   -1.300896   -0.770647
| 28> H       3.681216   -0.743299    0.899071
| 29> **                         ****END OF INPUT****

CARTESIAN COORDINATES (ANGSTROEM)
---------------------------------
  C     -2.497031    1.763833   -0.193384
  O     -2.074884    0.567863    0.414461
  C     -1.378988   -0.385913   -0.532163
  C     -1.396103   -1.721796    0.270514
  O     -1.870380   -0.427959   -1.719338
  C      0.109802    0.142258   -0.520341
  N      0.534225    1.309879   -0.890830
  N      1.912931    1.287324   -0.804295
  C      2.228912    0.105365   -0.395081
  C      3.587813   -0.431806   -0.140767
  O      1.144380   -0.670441   -0.196417
  H     -3.201823    2.256922    0.482864
  H     -1.653017    2.449437   -0.379330
  H     -3.005257    1.575283   -1.151826
  H     -2.426535   -2.065964    0.336620
  H     -0.993631   -1.581529    1.271670
  H     -0.804114   -2.463230   -0.261897
  H      4.328111    0.334672   -0.355182
  H      3.774372   -1.300896   -0.770647
  H      3.681216   -0.743299    0.899071

 Total Charge           Charge          ....   -1
 Multiplicity           Mult            ....    1
 Number of Electrons    NEL             ....   84
 Basis Dimension        Dim             ....  279

ORBITAL ENERGIES
----------------

  NO   OCC          E(Eh)            E(eV)
   0   2.0000     -19.028912      -517.8030
   1   2.0000     -18.907210      -514.4913
   2   2.0000     -18.829137      -512.3669
   3   2.0000     -14.169560      -385.5733
   4   2.0000     -14.159809      -385.3080
   5   2.0000     -10.114707      -275.2352
   6   2.0000     -10.096442      -274.7382
   7   2.0000     -10.094466      -274.6844
   8   2.0000     -10.034375      -273.0492
   9   2.0000     -10.033946      -273.0375
  10   2.0000      -9.990401      -271.8526
  11   2.0000      -1.115243       -30.3473
  12   2.0000      -0.954955       -25.9857
  13   2.0000      -0.934358       -25.4252
  14   2.0000      -0.873271       -23.7629
  15   2.0000      -0.795616       -21.6498
  16   2.0000      -0.691365       -18.8130
  17   2.0000      -0.675671       -18.3859
  18   2.0000      -0.604402       -16.4466
  19   2.0000      -0.603564       -16.4238
  20   2.0000      -0.559039       -15.2122
  21   2.0000      -0.506710       -13.7883
  22   2.0000      -0.460223       -12.5233
  23   2.0000      -0.451029       -12.2731
  24   2.0000      -0.414495       -11.2790
  25   2.0000      -0.394659       -10.7392
  26   2.0000      -0.380420       -10.3517
  27   2.0000      -0.378024       -10.2866
  28   2.0000      -0.369859       -10.0644
  29   2.0000      -0.368908       -10.0385
  30   2.0000      -0.359687        -9.7876
  31   2.0000      -0.335117        -9.1190
  32   2.0000      -0.317104        -8.6288
  33   2.0000      -0.309201        -8.4138
  34   2.0000      -0.308695        -8.4000
  35   2.0000      -0.281907        -7.6711
  36   2.0000      -0.265715        -7.2305
  37   2.0000      -0.240233        -6.5371
  38   2.0000      -0.232406        -6.3241
  39   2.0000      -0.189901        -5.1675
  40   2.0000      -0.166077        -4.5192
  41   2.0000      -0.147940        -4.0257
  42   0.0000      -0.011738        -0.3194
  43   0.0000       0.018332         0.4988
  44   0.0000       0.073929         2.0117
  45   0.0000       0.106820         2.9067
  46   0.0000       0.123815         3.3692

MULLIKEN ATOMIC CHARGES
-----------------------
   0 C :   -0.416144
   1 O :   -0.272276
   2 C :    0.000031
   3 C :   -0.589446
   4 O :   -0.514327
   5 C :    0.205185
   6 N :   -0.200078
   7 N :   -0.356995
   8 C :    0.371180
   9 C :   -0.649809
  10 O :   -0.059682
  11 H :    0.137065
  12 H :    0.137091
  13 H :    0.155895
  14 H :    0.165302
  15 H :    0.156384
  16 H :    0.157169
  17 H :    0.195717
  18 H :    0.189019
  19 H :    0.188718
Sum of atomic charges:   -1.0000000

LOEWDIN ATOMIC CHARGES
----------------------
   0 C :   -0.107385
   1 O :   -0.751355
   2 C :    0.261871
   3 C :   -0.384388
   4 O :   -0.713179
   5 C :    0.403469
   6 N :   -0.404508
   7 N :   -0.412461
   8 C :    0.338952
   9 C :   -0.328783
  10 O :   -0.412565
  11 H :    0.160148
  12 H :    0.154089
  13 H :    0.165049
  14 H :    0.160818
  15 H :    0.159228
  16 H :    0.160890
  17 H :    0.184512
  18 H :    0.182851
  19 H :    0.182749

  Mayer bond orders larger than 0.100000
B(  0-C ,  1-O ) :   0.9339 B(  0-C , 11-H ) :   0.9700 B(  0-C , 12-H ) :   0.9652
B(  0-C , 13-H ) :   0.9733 B(  1-O ,  2-C ) :   0.7693 B(  2-C ,  3-C ) :   0.8623
B(  2-C ,  4-O ) :   1.6931 B(  2-C ,  5-C ) :   0.7982 B(  3-C , 14-H ) :   0.9807
B(  3-C , 15-H ) :   0.9833 B(  3-C , 16-H ) :   0.9760 B(  5-C ,  6-N ) :   1.7746
B(  5-C ,  8-C ) :   0.1103 B(  5-C , 10-O ) :   1.1391 B(  6-N ,  7-N ) :   1.2267
B(  7-N ,  8-C ) :   1.7213 B(  8-C ,  9-C ) :   0.8067 B(  8-C , 10-O ) :   1.0407
B(  9-C , 17-H ) :   0.9983 B(  9-C , 18-H ) :   0.9521 B(  9-C , 19-H ) :   0.9506

Dispersion correction           -0.006465314
FINAL SINGLE POINT ENERGY      -569.206705708832

DIPOLE MOMENT
-------------
                                X             Y             Z
Electronic contribution:      3.18027       1.40866      -1.92866
Nuclear contribution   :     -0.14903      -2.51854       3.59629
                        -----------------------------------------
Total Dipole Moment    :      3.03124      -1.10988       1.66762
                        -----------------------------------------
Magnitude (a.u.)       :      3.63335
Magnitude (Debye)      :      9.23524

Rotational constants in cm-1:     0.075319     0.025155     0.021556
Rotational constants in MHz :  2258.011182   754.114780   646.218618

                             ****ORCA TERMINATED NORMALLY****
TOTAL RUN TIME: 0 days 0 hours 0 minutes 37 seconds 696 msec
