   * xtb version 6.5.1 (579679a) compiled by 'ehlert@majestix' on 2022-07-11
          program call               : /lustre/hpc/kemi/ree/PhD/git/ReactivityQM/dep/xtb-6.5.1/bin/xtb --gfn 1 /lustre/hpc/kemi/ree/PhD/git/ReactivityQM/calculations/R01/reac01prodE01/conf15/R01_reac01prodE01_conf15_gfn1.xyz --opt --vfukui --chrg -1 --uhf 0 --alpb DMSO

   ID    Z sym.   atoms
    1    6 C      1, 3, 4, 6, 9, 10
    2    8 O      2, 5, 11
    3    7 N      7, 8
    4    1 H      12-20

      * Solvation model:               ALPB
        Solvent                        DMSO
        Solvent mass                       7.8130E+01 g/mol
          :  Hamiltonian                  GFN1-xTB          :
 * total energy  :   -38.3317100 Eh     change       -0.2664535E-11 Eh
 * total energy  :   -38.3389917 Eh     change       -0.7281762E-02 Eh
 * total energy  :   -38.3420598 Eh     change       -0.3068084E-02 Eh
 * total energy  :   -38.3428669 Eh     change       -0.8071338E-03 Eh
 * total energy  :   -38.3432866 Eh     change       -0.4196351E-03 Eh
 * total energy  :   -38.3434571 Eh     change       -0.1705320E-03 Eh
 * total energy  :   -38.3435806 Eh     change       -0.1234595E-03 Eh
 * total energy  :   -38.3436373 Eh     change       -0.5674845E-04 Eh
 * total energy  :   -38.3436663 Eh     change       -0.2896990E-04 Eh
 * total energy  :   -38.3436946 Eh     change       -0.2830879E-04 Eh
 * total energy  :   -38.3444870 Eh     change       -0.2838256E-04 Eh
 * total energy  :   -38.3445072 Eh     change       -0.2019327E-04 Eh
 * total energy  :   -38.3445220 Eh     change       -0.1483328E-04 Eh
 * total energy  :   -38.3445282 Eh     change       -0.6125563E-05 Eh
 * total energy  :   -38.3445336 Eh     change       -0.5459083E-05 Eh
 * total energy  :   -38.3445390 Eh     change       -0.5420983E-05 Eh
 * total energy  :   -38.3445447 Eh     change       -0.5638775E-05 Eh
 * total energy  :   -38.3445489 Eh     change       -0.4189388E-05 Eh
 * total energy  :   -38.3445513 Eh     change       -0.2460420E-05 Eh
   *** GEOMETRY OPTIMIZATION CONVERGED AFTER 39 ITERATIONS ***

 final structure:
================
20
 xtb: 6.5.1 (579679a)
C           -2.49703136940505        1.76383310392370       -0.19338414342260
O           -2.07488428337463        0.56786258743732        0.41446099324214
C           -1.37898847073574       -0.38591348708854       -0.53216291442001
C           -1.39610277818399       -1.72179596997396        0.27051390936382
O           -1.87038004837025       -0.42795853911489       -1.71933824443364
C            0.10980239887233        0.14225770661971       -0.52034069250707
N            0.53422485745606        1.30987854363087       -0.89082993845034
N            1.91293083067419        1.28732367359847       -0.80429500675639
C            2.22891232623936        0.10536531923324       -0.39508144183720
C            3.58781289337845       -0.43180614164889       -0.14076698307165
O            1.14438049026031       -0.67044089282093       -0.19641693484914
H           -3.20182265541887        2.25692244730940        0.48286401754371
H           -1.65301660845013        2.44943726531062       -0.37932986001937
H           -3.00525713353305        1.57528250048198       -1.15182593599127
H           -2.42653464173156       -2.06596434811680        0.33661966609875
H           -0.99363102494018       -1.58152937155498        1.27166982450916
H           -0.80411425945663       -2.46322989463002       -0.26189682131553
H            4.32811105773919        0.33467238316992       -0.35518205415250
H            3.77437238161917       -1.30089617593858       -0.77064660518073
H            3.68121603736247       -0.74329870982827        0.89907116564984

          :  Hamiltonian                  GFN1-xTB          :
         :: total energy             -38.344551333494 Eh    ::
         :: gradient norm              0.000716365464 Eh/a0 ::
         :: HOMO-LUMO gap              3.292776064184 eV    ::
         :: SCC energy               -38.654249948494 Eh    ::
         :: -> Gsolv                  -0.104339397527 Eh    ::
         :: repulsion energy           0.318227901198 Eh    ::

    * Orbital Energies and Occupations

         #    Occupation            Energy/Eh            Energy/eV
      -------------------------------------------------------------
         1        2.0000           -0.8219814             -22.3673
       ...           ...                  ...                  ...
        19        2.0000           -0.5107630             -13.8986
        20        2.0000           -0.5003252             -13.6145
        21        2.0000           -0.4792321             -13.0406
        22        2.0000           -0.4713304             -12.8256
        23        2.0000           -0.4630711             -12.6008
        24        2.0000           -0.4621804             -12.5766
        25        2.0000           -0.4467351             -12.1563
        26        2.0000           -0.4399544             -11.9718
        27        2.0000           -0.4169748             -11.3465
        28        2.0000           -0.4138649             -11.2618
        29        2.0000           -0.4048608             -11.0168
        30        2.0000           -0.3681670             -10.0183
        31        2.0000           -0.3498322              -9.5194 (HOMO)
        32                         -0.2288249              -6.2266 (LUMO)
        33                         -0.2130897              -5.7985
        34                         -0.1305787              -3.5532
        35                         -0.1003996              -2.7320
        36                         -0.0829151              -2.2562
        37                         -0.0633389              -1.7235
        38                         -0.0625232              -1.7013
        39                         -0.0376322              -1.0240
        40                         -0.0300741              -0.8184
        41                         -0.0284893              -0.7752
        42                         -0.0262186              -0.7134
       ...                                ...                  ...
        62                          0.6109026              16.6235
      -------------------------------------------------------------
                  HL-Gap            0.1210073 Eh            3.2928 eV

Wiberg/Mayer (AO) data.
largest (>0.10) Wiberg bond orders for each atom

     #   Z sym  total        # sym  WBO       # sym  WBO       # sym  WBO
 ---------------------------------------------------------------------------
     1   6 C    3.933 --    12 H    0.984    13 H    0.978    14 H    0.975
                             2 O    0.972
     2   8 O    1.944 --     1 C    0.972     3 C    0.785
     3   6 C    3.899 --     5 O    1.256     4 C    0.943     6 C    0.866
                             2 O    0.785
     4   6 C    3.994 --    16 H    0.990    17 H    0.987    15 H    0.987
                             3 C    0.943
     5   8 O    1.550 --     3 C    1.256
     6   6 C    3.803 --     7 N    1.659    11 O    1.045     3 C    0.866
     7   7 N    2.980 --     6 C    1.659     8 N    1.149
     8   7 N    2.976 --     9 C    1.656     7 N    1.149
     9   6 C    3.887 --     8 N    1.656    11 O    1.061    10 C    1.024
    10   6 C    3.993 --     9 C    1.024    18 H    0.985    19 H    0.970
                            20 H    0.970
    11   8 O    2.291 --     9 C    1.061     6 C    1.045
    12   1 H    1.023 --     1 C    0.984
    13   1 H    1.033 --     1 C    0.978
    14   1 H    1.033 --     1 C    0.975
    15   1 H    1.017 --     4 C    0.987
    16   1 H    1.013 --     4 C    0.990
    17   1 H    1.016 --     4 C    0.987
    18   1 H    1.002 --    10 C    0.985
    19   1 H    1.002 --    10 C    0.970
    20   1 H    1.002 --    10 C    0.970
 ---------------------------------------------------------------------------

           -------------------------------------------------
          | TOTAL ENERGY              -38.344551333494 Eh   |
          | GRADIENT NORM               0.000716365464 Eh/α |
          | HOMO-LUMO GAP               3.292776064184 eV   |
           -------------------------------------------------

 * finished run on 2023/06/20 at 14:52:36.335
