   * xtb version 6.5.1 (579679a) compiled by 'ehlert@majestix' on 2022-07-11
          program call               : /lustre/hpc/kemi/ree/PhD/git/ReactivityQM/dep/xtb-6.5.1/bin/xtb --gfn 1 /lustre/hpc/kemi/ree/PhD/git/ReactivityQM/calculations/RaltegravirCLI/reac02prodN12/conf11/RaltegravirCLI_reac02prodN12_conf11_gfn1.xyz --opt --vfukui --chrg 1 --uhf 0 --alpb DMSO

   ID    Z sym.   atoms
    1    6 C      1, 3, 5, 6, 8, 9, 12-16, 18, 19, 21-24
    2    7 N      2, 11, 20, 25
    3    8 O      4, 7, 10
    4    9 F      17
    5    1 H      26-47

      * Solvation model:               ALPB
        Solvent                        DMSO
        Solvent mass                       7.8130E+01 g/mol
          :  Hamiltonian                  GFN1-xTB          :
 * total energy  :   -79.4717233 Eh     change       -0.1688960E-09 Eh
 * total energy  :   -79.4825311 Eh     change       -0.1080779E-01 Eh
 * total energy  :   -79.4868540 Eh     change       -0.4322913E-02 Eh
 * total energy  :   -79.4876580 Eh     change       -0.8039283E-03 Eh
 * total energy  :   -79.4882893 Eh     change       -0.6312994E-03 Eh
 * total energy  :   -79.4886613 Eh     change       -0.3720027E-03 Eh
 * total energy  :   -79.4891572 Eh     change       -0.4958987E-03 Eh
 * total energy  :   -79.4895754 Eh     change       -0.4182853E-03 Eh
 * total energy  :   -79.4898377 Eh     change       -0.2622576E-03 Eh
 * total energy  :   -79.4899780 Eh     change       -0.1403389E-03 Eh
 * total energy  :   -79.4928019 Eh     change       -0.4172708E-04 Eh
 * total energy  :   -79.4928205 Eh     change       -0.1859490E-04 Eh
 * total energy  :   -79.4928357 Eh     change       -0.1521420E-04 Eh
 * total energy  :   -79.4928476 Eh     change       -0.1188705E-04 Eh
 * total energy  :   -79.4928562 Eh     change       -0.8578513E-05 Eh
 * total energy  :   -79.4928639 Eh     change       -0.7751380E-05 Eh
 * total energy  :   -79.4928717 Eh     change       -0.7737250E-05 Eh
 * total energy  :   -79.4928749 Eh     change       -0.3243274E-05 Eh
 * total energy  :   -79.4928795 Eh     change       -0.4578420E-05 Eh
   *** GEOMETRY OPTIMIZATION CONVERGED AFTER 62 ITERATIONS ***

 final structure:
================
47
 xtb: 6.5.1 (579679a)
C           -4.04018510754208       -2.15495947916529        0.26493908199047
N           -2.76411685280375       -1.44225389101642        0.15731462468799
C           -1.61594962895209       -2.23125911426033        0.43089532226151
O           -1.70830990355857       -3.38533951673251        0.72982986521526
C           -0.27989582466941       -1.54102678729279        0.17247561293736
C           -0.06293520316604       -1.61037003162822       -1.36725750540368
O            0.73793082636147       -2.21501024772889        0.83870494802089
C           -0.39390049857095       -0.10581286175903        0.57445953951551
C            0.67745669271778        0.78743336024135        1.17403192563412
O            0.43832799836423        1.96874305965514        1.35240518877352
N            1.84331403892308        0.19482680133350        1.45641871091421
C            2.96132550484857        0.94682187275713        2.00874689242550
C            4.18247903544780        0.84261941435223        1.12378979738213
C            5.44865168923464        0.98669367763904        1.68875748111840
C            6.58606328728594        0.91952836101698        0.89735239906229
C            6.42964306933043        0.70271117322853       -0.46025653406760
F            7.52403961174086        0.63247302307540       -1.23144716249829
C            5.18826290691750        0.55257931848807       -1.05199003845629
C            4.06069353010458        0.62764037674734       -0.24666736805853
N           -1.50897570572598        0.49122603962059        0.31350781565844
C           -2.63196548005105       -0.13833865669936       -0.08632825754067
C           -3.68625777439572        0.76510535364263       -0.65400196656881
C           -4.47327049579024        1.34545844624870        0.53846685252374
C           -2.99853418037142        1.90427785138877       -1.43234785502322
N           -4.59186192820720        0.03555526604451       -1.51557025455258
H           -4.79286921979066       -1.62565153082102       -0.31510110628043
H           -3.89664440585810       -3.16563457653370       -0.11334303014440
H           -4.32416690163816       -2.19082414764424        1.31647215294903
H           -0.09899846744775       -2.65094620018249       -1.68153759095505
H            0.92066787347853       -1.20049051118131       -1.58589538784880
H           -0.82764502080713       -1.03802236066321       -1.88584749661402
H            0.57483419037733       -3.17123187670604        0.84077710310569
H            1.97141022713659       -0.79467451007840        1.31437673923528
H            3.18352922621624        0.55798755900866        3.00767506290478
H            2.64540117643681        1.99160022608320        2.10584158923933
H            5.54821547326517        1.15101814980570        2.75530742151672
H            7.57494792551366        1.02786932398168        1.32463357107740
H            5.10527756792663        0.38050144253622       -2.11690973282642
H            3.07883229463403        0.50779295658760       -0.68943726867336
H           -5.18346333946748        2.07886725645782        0.16118994930902
H           -3.79394018682773        1.82824367219538        1.23911906199909
H           -5.01628544883593        0.55178880089255        1.04788979529943
H           -2.35743694580119        2.48898619652316       -0.77429931507901
H           -2.39917389829212        1.48860479160427       -2.24010647500336
H           -3.76560677678034        2.54973482909172       -1.85463781948616
H           -4.11123579574523       -0.27836931761780       -2.34580597147067
H           -5.35767915516870        0.63352701746603       -1.79204036820745

          :  Hamiltonian                  GFN1-xTB          :
         :: total energy             -79.492879475802 Eh    ::
         :: gradient norm              0.000960730264 Eh/a0 ::
         :: HOMO-LUMO gap              0.773921047575 eV    ::
         :: SCC energy               -80.384839545737 Eh    ::
         :: -> Gsolv                  -0.107953503900 Eh    ::
         :: repulsion energy           0.923031482900 Eh    ::

    * Orbital Energies and Occupations

         #    Occupation            Energy/Eh            Energy/eV
      -------------------------------------------------------------
         1        2.0000           -0.8848342             -24.0776
       ...           ...                  ...                  ...
        55        2.0000           -0.5266707             -14.3314
        56        2.0000           -0.5214629             -14.1897
        57        2.0000           -0.5163291             -14.0500
        58        2.0000           -0.5106083             -13.8944
        59        2.0000           -0.5068540             -13.7922
        60        2.0000           -0.5050505             -13.7431
        61        2.0000           -0.4951333             -13.4733
        62        2.0000           -0.4826409             -13.1333
        63        2.0000           -0.4771173             -12.9830
        64        2.0000           -0.4676788             -12.7262
        65        2.0000           -0.4591836             -12.4950
        66        2.0000           -0.4428739             -12.0512
        67        2.0000           -0.4424502             -12.0397 (HOMO)
        68        0.0000           -0.4140092             -11.2658 (LUMO)
        69                         -0.3405967              -9.2681
        70                         -0.3005504              -8.1784
        71                         -0.2811134              -7.6495
        72                         -0.2737537              -7.4492
        73                         -0.2400882              -6.5331
        74                         -0.1591504              -4.3307
        75                         -0.1567612              -4.2657
        76                         -0.1524715              -4.1490
        77                         -0.1450904              -3.9481
        78                         -0.1386698              -3.7734
       ...                                ...                  ...
       144                          0.6899568              18.7747
      -------------------------------------------------------------
                  HL-Gap            0.0284411 Eh            0.7739 eV

Wiberg/Mayer (AO) data.
largest (>0.10) Wiberg bond orders for each atom

     #   Z sym  total        # sym  WBO       # sym  WBO       # sym  WBO
 ---------------------------------------------------------------------------
     1   6 C    3.881 --    27 H    0.974    28 H    0.965    26 H    0.956
                             2 N    0.902
     2   7 N    3.548 --    21 C    1.353     3 C    1.018     1 C    0.902
     3   6 C    3.861 --     4 O    1.770     2 N    1.018     5 C    0.927
     4   8 O    2.035 --     3 C    1.770
     5   6 C    3.933 --     8 C    1.002     7 O    0.988     3 C    0.927
                             6 C    0.895
     6   6 C    3.970 --    31 H    0.984    29 H    0.978    30 H    0.977
                             5 C    0.895
     7   8 O    1.931 --     5 C    0.988    32 H    0.808
     8   6 C    3.900 --    20 N    1.630     5 C    1.002     9 C    0.959
     9   6 C    3.922 --    10 O    1.588    11 N    1.297     8 C    0.959
    10   8 O    1.910 --     9 C    1.588    11 N    0.203
    11   7 N    3.419 --     9 C    1.297    12 C    0.940    33 H    0.872
                            10 O    0.203
    12   6 C    3.930 --    13 C    0.996    34 H    0.962    35 H    0.958
                            11 N    0.940
    13   6 C    3.984 --    19 C    1.417    14 C    1.412    12 C    0.996
    14   6 C    3.992 --    15 C    1.447    13 C    1.412    36 H    0.971
                            18 C    0.111
    15   6 C    3.991 --    14 C    1.447    16 C    1.397    37 H    0.968
                            19 C    0.109
    16   6 C    3.861 --    18 C    1.400    15 C    1.397    17 F    0.930
    17   9 F    1.059 --    16 C    0.930
    18   6 C    3.991 --    19 C    1.443    16 C    1.400    38 H    0.968
                            14 C    0.111
    19   6 C    3.994 --    18 C    1.443    13 C    1.417    39 H    0.970
                            15 C    0.109
    20   7 N    3.137 --     8 C    1.630    21 C    1.257
    21   6 C    3.877 --     2 N    1.353    20 N    1.257    22 C    1.009
    22   6 C    3.957 --    21 C    1.009    25 N    0.999    24 C    0.961
                            23 C    0.937
    23   6 C    3.978 --    41 H    0.984    42 H    0.984    40 H    0.975
                            22 C    0.937
    24   6 C    3.984 --    44 H    0.984    45 H    0.981    43 H    0.980
                            22 C    0.961
    25   7 N    3.019 --    22 C    0.999    46 H    0.930    47 H    0.925
    26   1 H    1.018 --     1 C    0.956
    27   1 H    0.997 --     1 C    0.974
    28   1 H    0.993 --     1 C    0.965
    29   1 H    0.993 --     6 C    0.978
    30   1 H    0.997 --     6 C    0.977
    31   1 H    0.997 --     6 C    0.984
    32   1 H    0.834 --     7 O    0.808
    33   1 H    0.935 --    11 N    0.872
    34   1 H    0.997 --    12 C    0.962
    35   1 H    1.008 --    12 C    0.958
    36   1 H    0.997 --    14 C    0.971
    37   1 H    0.997 --    15 C    0.968
    38   1 H    0.997 --    18 C    0.968
    39   1 H    1.003 --    19 C    0.970
    40   1 H    0.994 --    23 C    0.975
    41   1 H    1.000 --    23 C    0.984
    42   1 H    0.999 --    23 C    0.984
    43   1 H    1.006 --    24 C    0.980
    44   1 H    0.999 --    24 C    0.984
    45   1 H    0.998 --    24 C    0.981
    46   1 H    0.944 --    25 N    0.930
    47   1 H    0.940 --    25 N    0.925
 ---------------------------------------------------------------------------

           -------------------------------------------------
          | TOTAL ENERGY              -79.492879475802 Eh   |
          | GRADIENT NORM               0.000960730264 Eh/α |
          | HOMO-LUMO GAP               0.773921047575 eV   |
           -------------------------------------------------

 * finished run on 2023/06/20 at 15:33:16.460
