   * xtb version 6.5.1 (579679a) compiled by 'ehlert@majestix' on 2022-07-11
          program call               : /lustre/hpc/kemi/ree/PhD/git/ReactivityQM/dep/xtb-6.5.1/bin/xtb --gfn 1 /lustre/hpc/kemi/ree/PhD/git/ReactivityQM/calculations/RaltegravirCLI/reac02prodE08/conf15/RaltegravirCLI_reac02prodE08_conf15_gfn1.xyz --opt --vfukui --chrg -1 --uhf 0 --alpb DMSO

   ID    Z sym.   atoms
    1    6 C      1-5, 7, 9, 11-14, 17, 18, 20, 22-24
    2    7 N      6, 10, 15, 16
    3    8 O      8, 19, 21
    4    9 F      25
    5    1 H      26-47

      * Solvation model:               ALPB
        Solvent                        DMSO
        Solvent mass                       7.8130E+01 g/mol
          :  Hamiltonian                  GFN1-xTB          :
 * total energy  :   -80.1727216 Eh     change       -0.2795844E-09 Eh
 * total energy  :   -80.1820192 Eh     change       -0.9297615E-02 Eh
 * total energy  :   -80.1844694 Eh     change       -0.2450225E-02 Eh
 * total energy  :   -80.1849428 Eh     change       -0.4733757E-03 Eh
 * total energy  :   -80.1853768 Eh     change       -0.4340129E-03 Eh
 * total energy  :   -80.1855944 Eh     change       -0.2176391E-03 Eh
 * total energy  :   -80.1857633 Eh     change       -0.1688591E-03 Eh
 * total energy  :   -80.1858617 Eh     change       -0.9837570E-04 Eh
 * total energy  :   -80.1859308 Eh     change       -0.6915435E-04 Eh
 * total energy  :   -80.1859900 Eh     change       -0.5920284E-04 Eh
 * total energy  :   -80.1865167 Eh     change       -0.8773077E-05 Eh
 * total energy  :   -80.1865256 Eh     change       -0.8866933E-05 Eh
 * total energy  :   -80.1865341 Eh     change       -0.8539434E-05 Eh
 * total energy  :   -80.1865422 Eh     change       -0.8070797E-05 Eh
 * total energy  :   -80.1865506 Eh     change       -0.8413848E-05 Eh
 * total energy  :   -80.1865594 Eh     change       -0.8826919E-05 Eh
 * total energy  :   -80.1865688 Eh     change       -0.9357883E-05 Eh
 * total energy  :   -80.1865780 Eh     change       -0.9224419E-05 Eh
 * total energy  :   -80.1865818 Eh     change       -0.3752318E-05 Eh
   *** GEOMETRY OPTIMIZATION CONVERGED AFTER 44 ITERATIONS ***

 final structure:
================
47
 xtb: 6.5.1 (579679a)
C            6.84514865619887        1.66171704724429       -1.15655856365129
C            5.77170298717749        1.17536857061944       -0.13840540971267
C            4.38417300409896        1.22345290684335       -0.74120762018614
C            3.68428709702767        0.09898760940499       -1.08288806945507
C            2.34327644382262        0.23545178549379       -1.77246149947030
N            1.26294525392758       -0.12816842199412       -0.85314452515748
C            0.02509965532441        0.39079678935243       -0.98151489989279
O           -0.24361593424996        1.25911163808427       -1.81652522900789
C           -1.00784582360822       -0.13931405861643       -0.04726661245016
N           -2.29661954178152        0.17086893168663       -0.39694765714158
C           -3.31345282509774       -0.21967401806943        0.29935879817582
C           -4.68298831249472        0.21024338220401       -0.21649936416177
C           -5.13821171718666        1.46476971286741        0.54422472931543
C           -4.57358783380378        0.54265613698107       -1.71468685749101
N           -5.66722603234246       -0.85292335702421       -0.02392927258732
N           -3.16636960791759       -0.93973919156122        1.46656174906984
C           -4.28636170837356       -1.39836345973471        2.28389600925270
C           -1.89767999304315       -1.31113986252398        1.91125843261362
O           -1.73245295764338       -1.97298799497615        2.94668396521286
C           -0.79951093815861       -0.87509988001566        1.09993984793276
O            0.43298592467853       -1.23013034188166        1.56104888798950
C            4.13457607546955       -1.20098633929195       -0.77395777538921
C            5.33347575991011       -1.32953197280518       -0.03005740349848
C            6.04734342004385       -0.23212109598978        0.29490685678533
F            7.18334786597654       -0.36913761845380        1.06661520850592
H            6.83281661184058        1.02677956973982       -2.04266693805654
H            7.83734510731603        1.62162047570594       -0.70600528966621
H            6.63504042523843        2.68770949109911       -1.45855895586458
H            5.84016555303420        1.85641219775885        0.73038194743309
H            3.99259762353274        2.21247437647697       -0.95982994153026
H            2.16707945533861        1.26188048111244       -2.11431868781782
H            2.30328720882627       -0.42570699455346       -2.65047779457033
H            1.43131759619637       -0.91786640475163       -0.24956225931585
H           -4.38926355233788        2.25025837988050        0.44635385706513
H           -6.07953079339519        1.82281351359012        0.12991507324378
H           -5.28645234800890        1.25290513708895        1.60155983153594
H           -5.55830658102152        0.80177181275574       -2.09919324637473
H           -3.89622677444971        1.38185083820039       -1.87230244855157
H           -4.19637068015458       -0.31950294380794       -2.26327978381073
H           -5.52370638340348       -1.58076991225565       -0.71214841949426
H           -6.59337025014276       -0.47859903753362       -0.16958720557067
H           -4.75258534947612       -2.26919146309112        1.82380351074903
H           -3.90141598011551       -1.66965561798606        3.26748034823909
H           -5.02902192047549       -0.61327034066844        2.38957112971684
H            0.29728234539720       -1.75194249320121        2.37327966556945
H            3.56358913451932       -2.07681966316490       -1.05248157587089
H            5.66329563378620       -2.30725830023738        0.30673745734011

          :  Hamiltonian                  GFN1-xTB          :
         :: total energy             -80.186581770109 Eh    ::
         :: gradient norm              0.000312509872 Eh/a0 ::
         :: HOMO-LUMO gap              0.099257944325 eV    ::
         :: SCC energy               -81.044199311661 Eh    ::
         :: -> Gsolv                  -0.103751793968 Eh    ::
         :: repulsion energy           0.886758176499 Eh    ::

    * Orbital Energies and Occupations

         #    Occupation            Energy/Eh            Energy/eV
      -------------------------------------------------------------
         1        2.0000           -0.8036508             -21.8685
       ...           ...                  ...                  ...
        56        2.0000           -0.4540846             -12.3563
        57        2.0000           -0.4447782             -12.1030
        58        2.0000           -0.4421189             -12.0307
        59        2.0000           -0.4368555             -11.8874
        60        2.0000           -0.4295114             -11.6876
        61        2.0000           -0.4248759             -11.5615
        62        2.0000           -0.4200484             -11.4301
        63        2.0000           -0.4130487             -11.2396
        64        2.0000           -0.4068589             -11.0712
        65        2.0000           -0.4045163             -11.0074
        66        2.0000           -0.3970619             -10.8046
        67        2.0000           -0.3846602             -10.4671
        68        1.7442           -0.2944912              -8.0135 (HOMO)
        69        0.2558           -0.2908435              -7.9143 (LUMO)
        70                         -0.2525818              -6.8731
        71                         -0.2028991              -5.5212
        72                         -0.2003672              -5.4523
        73                         -0.1314371              -3.5766
        74                         -0.1284495              -3.4953
        75                         -0.1236801              -3.3655
        76                         -0.1166431              -3.1740
        77                         -0.1105251              -3.0075
        78                         -0.0950806              -2.5873
        79                         -0.0935087              -2.5445
       ...                                ...                  ...
       144                          0.7090142              19.2933
      -------------------------------------------------------------
                  HL-Gap            0.0036477 Eh            0.0993 eV

Wiberg/Mayer (AO) data.
largest (>0.10) Wiberg bond orders for each atom

     #   Z sym  total        # sym  WBO       # sym  WBO       # sym  WBO
 ---------------------------------------------------------------------------
     1   6 C    3.972 --    26 H    0.989    28 H    0.988    27 H    0.987
                             2 C    0.963
     2   6 C    3.992 --    24 C    1.007     3 C    1.005     1 C    0.963
                            29 H    0.962
     3   6 C    3.815 --     4 C    1.590     2 C    1.005    30 H    0.974
     4   6 C    3.984 --     3 C    1.590    22 C    1.310     5 C    0.992
     5   6 C    3.942 --     4 C    0.992    31 H    0.976    32 H    0.969
                             6 N    0.932
     6   7 N    3.322 --     7 C    1.258     5 C    0.932    33 H    0.900
                             8 O    0.164
     7   6 C    3.881 --     8 O    1.531     6 N    1.258     9 C    1.017
     8   8 O    1.808 --     7 C    1.531     6 N    0.164
     9   6 C    3.868 --    20 C    1.428    10 N    1.187     7 C    1.017
    10   7 N    3.028 --    11 C    1.578     9 C    1.187
    11   6 C    3.894 --    10 N    1.578    16 N    1.146    12 C    0.976
    12   6 C    3.966 --    14 C    0.990    13 C    0.984    15 N    0.982
                            11 C    0.976
    13   6 C    3.993 --    34 H    0.986    12 C    0.984    35 H    0.984
                            36 H    0.980
    14   6 C    3.995 --    12 C    0.990    37 H    0.987    39 H    0.985
                            38 H    0.983
    15   7 N    2.976 --    12 C    0.982    40 H    0.943    41 H    0.942
    16   7 N    3.424 --    11 C    1.146    18 C    1.094    17 C    0.937
                            19 O    0.116
    17   6 C    3.934 --    44 H    0.979    42 H    0.977    43 H    0.976
                            16 N    0.937
    18   6 C    3.873 --    19 O    1.490    20 C    1.151    16 N    1.094
    19   8 O    1.824 --    18 C    1.490    16 N    0.116
    20   6 C    3.831 --     9 C    1.428    18 C    1.151    21 O    1.041
    21   8 O    2.022 --    20 C    1.041    45 H    0.816
    22   6 C    3.767 --     4 C    1.310    23 C    1.270    46 H    0.976
    23   6 C    3.990 --    24 C    1.628    22 C    1.270    47 H    0.971
    24   6 C    3.697 --    23 C    1.628     2 C    1.007    25 F    0.859
    25   9 F    0.965 --    24 C    0.859
    26   1 H    1.017 --     1 C    0.989
    27   1 H    1.010 --     1 C    0.987
    28   1 H    1.011 --     1 C    0.988
    29   1 H    1.008 --     2 C    0.962
    30   1 H    1.002 --     3 C    0.974
    31   1 H    1.019 --     5 C    0.976
    32   1 H    1.011 --     5 C    0.969
    33   1 H    0.965 --     6 N    0.900
    34   1 H    1.005 --    13 C    0.986
    35   1 H    1.001 --    13 C    0.984
    36   1 H    1.006 --    13 C    0.980
    37   1 H    1.005 --    14 C    0.987
    38   1 H    1.017 --    14 C    0.983
    39   1 H    1.009 --    14 C    0.985
    40   1 H    0.959 --    15 N    0.943
    41   1 H    0.957 --    15 N    0.942
    42   1 H    1.019 --    17 C    0.977
    43   1 H    1.013 --    17 C    0.976
    44   1 H    1.022 --    17 C    0.979
    45   1 H    0.862 --    21 O    0.816
    46   1 H    1.001 --    22 C    0.976
    47   1 H    1.006 --    23 C    0.971
 ---------------------------------------------------------------------------

           -------------------------------------------------
          | TOTAL ENERGY              -80.186581770109 Eh   |
          | GRADIENT NORM               0.000312509872 Eh/α |
          | HOMO-LUMO GAP               0.099257944325 eV   |
           -------------------------------------------------

 * finished run on 2023/06/20 at 15:07:00.415
