   * xtb version 6.5.1 (579679a) compiled by 'ehlert@majestix' on 2022-07-11
          program call               : /lustre/hpc/kemi/ree/PhD/git/ReactivityQM/dep/xtb-6.5.1/bin/xtb --gfn 1 /lustre/hpc/kemi/ree/PhD/git/ReactivityQM/calculations/R02methylcation/reac01prodN02/conf13/R02methylcation_reac01prodN02_conf13_gfn1.xyz --opt --vfukui --chrg 0 --uhf 0 --alpb DMSO

   ID    Z sym.   atoms
    1    6 C      1, 3, 5, 7-10, 12, 14, 15, 18, 19, 22, 24
    2    8 O      2, 4, 13, 20, 23, 25
    3    7 N      6, 11, 16, 17, 21
    4    1 H      26-42

      * Solvation model:               ALPB
        Solvent                        DMSO
        Solvent mass                       7.8130E+01 g/mol
          :  Hamiltonian                  GFN1-xTB          :
 * total energy  :   -82.9413803 Eh     change       -0.9292478E-10 Eh
 * total energy  :   -82.9600022 Eh     change       -0.1862188E-01 Eh
 * total energy  :   -82.9682673 Eh     change       -0.8265129E-02 Eh
 * total energy  :   -82.9699133 Eh     change       -0.1645986E-02 Eh
 * total energy  :   -82.9711567 Eh     change       -0.1243381E-02 Eh
 * total energy  :   -82.9717545 Eh     change       -0.5978194E-03 Eh
 * total energy  :   -82.9722688 Eh     change       -0.5142629E-03 Eh
 * total energy  :   -82.9726172 Eh     change       -0.3484670E-03 Eh
 * total energy  :   -82.9728117 Eh     change       -0.1945022E-03 Eh
 * total energy  :   -82.9729384 Eh     change       -0.1266545E-03 Eh
 * total energy  :   -82.9756481 Eh     change       -0.6348346E-04 Eh
 * total energy  :   -82.9756967 Eh     change       -0.4859969E-04 Eh
 * total energy  :   -82.9757133 Eh     change       -0.1666037E-04 Eh
 * total energy  :   -82.9757351 Eh     change       -0.2180907E-04 Eh
 * total energy  :   -82.9757464 Eh     change       -0.1128990E-04 Eh
 * total energy  :   -82.9757549 Eh     change       -0.8486959E-05 Eh
 * total energy  :   -82.9757603 Eh     change       -0.5426034E-05 Eh
 * total energy  :   -82.9757716 Eh     change       -0.1121149E-04 Eh
 * total energy  :   -82.9757756 Eh     change       -0.4053198E-05 Eh
   *** GEOMETRY OPTIMIZATION CONVERGED AFTER 47 ITERATIONS ***

 final structure:
================
42
 xtb: 6.5.1 (579679a)
C            6.32746653565981        1.54495432477915        0.83908093492594
O            5.18535237787058        0.75236862781101        1.14050952872257
C            4.20635773649696        0.74756971106086        0.20863601572884
O            4.31882427045405        1.38982918726809       -0.82714578654563
C            3.04660250149475       -0.07101787640091        0.54834152004781
N            2.07445364652179       -0.04803609169627       -0.42944111083002
C            0.99351329579528       -0.71741629239995       -0.29042353083182
C           -0.04358076027927       -0.73649276542436       -1.39016441977811
C            0.22634559529021        0.37690224608437       -2.40332462038367
C           -0.07571663789883       -2.10737852176597       -2.07013685627072
N           -1.38169855078155       -0.52796535561126       -0.79150500140450
C           -1.70611880972678        0.44738306633442        0.02268216829894
O           -0.79775282726737        1.32505784386808        0.34220127870329
C           -1.07067381758852        2.43005547438469        1.21585238989631
C           -3.05480470054089        0.47595819558844        0.52884704265426
N           -3.62306038354342        1.31318555385419        1.35509515592539
N           -4.89429269174823        0.89978119796233        1.51939004502851
C           -5.04715883637358       -0.16968284568743        0.78774061235631
C           -6.25815697152303       -0.99729353256963        0.63482374168116
O           -3.91914343380961       -0.48577643500676        0.13920672238046
N            0.73323064273388       -1.47793159542142        0.83141746237290
C            1.60115719184525       -1.57660063273828        1.89419156654735
O            1.29366122073518       -2.25279408617875        2.86843780828199
C            2.90206565527601       -0.81324594006010        1.75283903103047
O            3.72757088477489       -0.87902981617399        2.67710470356687
H            6.81370892504107        1.18951596188341       -0.07459638568869
H            6.04335474541402        2.59280269757318        0.70289802612977
H            7.01081302449249        1.45308318860560        1.68253357627027
H            0.24682021535296        1.34487270625939       -1.90645529811739
H           -0.54718206764407        0.37939452349206       -3.16749770266312
H            1.19655599577976        0.20132838478525       -2.86647427047151
H           -0.83234256142806       -2.12247498774100       -2.85193182244333
H            0.89693748274033       -2.31257813568800       -2.51526978483265
H           -0.30191544292791       -2.88447201363706       -1.34222712430392
H           -2.11221228852326       -1.17823750612368       -1.03921527779433
H           -1.86796687281209        3.04568968459000        0.79777720221809
H           -0.14213471849292        2.99552310964461        1.27647014897578
H           -1.36847931963873        2.06708340435875        2.20095277015385
H           -6.06677129531773       -2.00137349400620        1.01570250253280
H           -6.51467263038684       -1.08520022383876       -0.42067032942261
H           -7.08383454400759       -0.54893455408036        1.18241604667625
H           -0.13512278149810       -1.97840338792399        0.90026032067177

          :  Hamiltonian                  GFN1-xTB          :
         :: total energy             -82.975775609186 Eh    ::
         :: gradient norm              0.000918865149 Eh/a0 ::
         :: HOMO-LUMO gap              0.293348934971 eV    ::
         :: SCC energy               -83.752221564365 Eh    ::
         :: -> Gsolv                  -0.105202924450 Eh    ::
         :: repulsion energy           0.802716679586 Eh    ::

    * Orbital Energies and Occupations

         #    Occupation            Energy/Eh            Energy/eV
      -------------------------------------------------------------
         1        2.0000           -0.8966928             -24.4003
       ...           ...                  ...                  ...
        55        2.0000           -0.5065123             -13.7829
        56        2.0000           -0.5012649             -13.6401
        57        2.0000           -0.5005380             -13.6203
        58        2.0000           -0.4937878             -13.4367
        59        2.0000           -0.4826738             -13.1342
        60        2.0000           -0.4795946             -13.0504
        61        2.0000           -0.4717904             -12.8381
        62        2.0000           -0.4693828             -12.7726
        63        2.0000           -0.4538819             -12.3508
        64        2.0000           -0.4459199             -12.1341
        65        2.0000           -0.4316622             -11.7461
        66        2.0000           -0.3912967             -10.6477
        67        1.9932           -0.3789134             -10.3108 (HOMO)
        68        0.0068           -0.3681330             -10.0174 (LUMO)
        69                         -0.2832020              -7.7063
        70                         -0.2811406              -7.6502
        71                         -0.2553193              -6.9476
        72                         -0.2480710              -6.7504
        73                         -0.2076999              -5.6518
        74                         -0.1591097              -4.3296
        75                         -0.1515975              -4.1252
        76                         -0.1438633              -3.9147
        77                         -0.1311385              -3.5685
        78                         -0.1253030              -3.4097
       ...                                ...                  ...
       134                          0.7512828              20.4434
      -------------------------------------------------------------
                  HL-Gap            0.0107804 Eh            0.2933 eV

Wiberg/Mayer (AO) data.
largest (>0.10) Wiberg bond orders for each atom

     #   Z sym  total        # sym  WBO       # sym  WBO       # sym  WBO
 ---------------------------------------------------------------------------
     1   6 C    3.894 --    28 H    0.987    27 H    0.980    26 H    0.980
                             2 O    0.920
     2   8 O    2.168 --     3 C    1.061     1 C    0.920     4 O    0.114
     3   6 C    3.850 --     4 O    1.585     5 C    1.098     2 O    1.061
     4   8 O    1.855 --     3 C    1.585     2 O    0.114
     5   6 C    3.902 --    24 C    1.258     6 N    1.168     3 C    1.098
                            25 O    0.123
     6   7 N    3.034 --     7 C    1.624     5 C    1.168
     7   6 C    3.927 --     6 N    1.624    21 N    1.093     8 C    0.970
     8   6 C    3.896 --    10 C    0.989     9 C    0.986     7 C    0.970
                            11 N    0.881
     9   6 C    3.983 --     8 C    0.986    30 H    0.986    29 H    0.982
                            31 H    0.980
    10   6 C    3.986 --     8 C    0.989    34 H    0.983    32 H    0.982
                            33 H    0.981
    11   7 N    3.473 --    12 C    1.440     8 C    0.881    35 H    0.875
                            13 O    0.106
    12   6 C    3.889 --    11 N    1.440    13 O    1.187    15 C    1.094
    13   8 O    2.268 --    12 C    1.187    14 C    0.867    11 N    0.106
    14   6 C    3.835 --    37 H    0.981    36 H    0.975    38 H    0.974
                            13 O    0.867
    15   6 C    3.882 --    16 N    1.540    12 C    1.094    20 O    1.045
    16   7 N    3.007 --    15 C    1.540    17 N    1.246
    17   7 N    2.985 --    18 C    1.555    16 N    1.246
    18   6 C    3.845 --    17 N    1.555    20 O    1.085    19 C    1.039
    19   6 C    3.980 --    18 C    1.039    41 H    0.980    40 H    0.958
                            39 H    0.953
    20   8 O    2.326 --    18 C    1.085    15 C    1.045
    21   7 N    3.415 --    22 C    1.147     7 C    1.093    42 H    0.897
                            23 O    0.134
    22   6 C    3.874 --    23 O    1.596    21 N    1.147    24 C    0.962
    23   8 O    1.873 --    22 C    1.596    21 N    0.134
    24   6 C    3.938 --    25 O    1.537     5 C    1.258    22 C    0.962
    25   8 O    1.829 --    24 C    1.537     5 C    0.123
    26   1 H    1.012 --     1 C    0.980
    27   1 H    1.013 --     1 C    0.980
    28   1 H    1.015 --     1 C    0.987
    29   1 H    1.009 --     9 C    0.982
    30   1 H    0.999 --     9 C    0.986
    31   1 H    1.008 --     9 C    0.980
    32   1 H    0.995 --    10 C    0.982
    33   1 H    0.999 --    10 C    0.981
    34   1 H    0.997 --    10 C    0.983
    35   1 H    0.919 --    11 N    0.875
    36   1 H    1.009 --    14 C    0.975
    37   1 H    1.003 --    14 C    0.981
    38   1 H    1.009 --    14 C    0.974
    39   1 H    0.992 --    19 C    0.953
    40   1 H    0.992 --    19 C    0.958
    41   1 H    0.995 --    19 C    0.980
    42   1 H    0.943 --    21 N    0.897
 ---------------------------------------------------------------------------

           -------------------------------------------------
          | TOTAL ENERGY              -82.975775609186 Eh   |
          | GRADIENT NORM               0.000918865149 Eh/α |
          | HOMO-LUMO GAP               0.293348934971 eV   |
           -------------------------------------------------

 * finished run on 2023/06/21 at 17:31:08.998
