   * xtb version 6.5.1 (579679a) compiled by 'ehlert@majestix' on 2022-07-11
          program call               : /lustre/hpc/kemi/ree/PhD/git/ReactivityQM/dep/xtb-6.5.1/bin/xtb --gfn 1 /lustre/hpc/kemi/ree/PhD/git/ReactivityQM/calculations/R02deprot/reac01prodN19/conf02/R02deprot_reac01prodN19_conf02_gfn1.xyz --opt --vfukui --chrg 0 --uhf 0 --alpb DMSO

   ID    Z sym.   atoms
    1    6 C      1, 3, 5, 7-10, 12, 14, 17, 18, 21, 23, 24
    2    8 O      2, 4, 13, 19, 22, 25
    3    7 N      6, 11, 15, 16, 20
    4    1 H      26-42

      * Solvation model:               ALPB
        Solvent                        DMSO
        Solvent mass                       7.8130E+01 g/mol
          :  Hamiltonian                  GFN1-xTB          :
 * total energy  :   -82.9889737 Eh     change       -0.7005951E-11 Eh
 * total energy  :   -83.0029527 Eh     change       -0.1397894E-01 Eh
 * total energy  :   -83.0087373 Eh     change       -0.5784616E-02 Eh
 * total energy  :   -83.0097636 Eh     change       -0.1026299E-02 Eh
 * total energy  :   -83.0103190 Eh     change       -0.5553576E-03 Eh
 * total energy  :   -83.0104902 Eh     change       -0.1712659E-03 Eh
 * total energy  :   -83.0105905 Eh     change       -0.1002702E-03 Eh
 * total energy  :   -83.0106506 Eh     change       -0.6012609E-04 Eh
 * total energy  :   -83.0107038 Eh     change       -0.5320687E-04 Eh
 * total energy  :   -83.0107617 Eh     change       -0.5786619E-04 Eh
 * total energy  :   -83.0117608 Eh     change       -0.2945665E-04 Eh
 * total energy  :   -83.0117852 Eh     change       -0.2441430E-04 Eh
 * total energy  :   -83.0118010 Eh     change       -0.1579044E-04 Eh
 * total energy  :   -83.0118185 Eh     change       -0.1742341E-04 Eh
 * total energy  :   -83.0118295 Eh     change       -0.1108150E-04 Eh
 * total energy  :   -83.0118457 Eh     change       -0.1616627E-04 Eh
 * total energy  :   -83.0118598 Eh     change       -0.1413903E-04 Eh
 * total energy  :   -83.0118677 Eh     change       -0.7891554E-05 Eh
 * total energy  :   -83.0118712 Eh     change       -0.3475866E-05 Eh
   *** GEOMETRY OPTIMIZATION CONVERGED AFTER 44 ITERATIONS ***

 final structure:
================
42
 xtb: 6.5.1 (579679a)
C           -4.14799547707166        2.12554880230998        3.02167465536761
O           -3.85336503569959        1.38833733325374        1.82515317203513
C           -2.56192885344751        1.10482731536152        1.61263712767029
O           -1.68300298648071        1.44148038708671        2.36809290233013
C           -2.32932098211984        0.33284954983590        0.35793580993374
N           -1.02993993608967        0.03495906283271        0.13428873136219
C           -0.70434566294080       -0.65177145872313       -0.93308967580565
C            0.74708965186860       -1.01166418169512       -1.17224055449267
C            0.90803332381897       -2.52981724264986       -0.99824537926103
C            1.15724382266018       -0.57849459044403       -2.58618826242270
N            1.54391630464720       -0.30330006929817       -0.17654310511819
C            2.88197378677033       -0.37942436994238       -0.09105972370365
O            3.60511334321659       -1.05216038549174       -0.80847967398542
C            3.39667292884586        0.48323399007369        1.00712096678726
N            2.68471743433786        1.21419142727475        1.81026058361572
N            3.55822516455424        1.84685643563226        2.64462747086110
C            4.74744140330602        1.46197003475681        2.29519308445123
C            6.04057653667094        1.86921735451783        2.88790862297739
O            4.71232676570763        0.60014561413712        1.26771507346985
N           -1.58006847366446       -1.09663151077839       -1.85005720496428
C           -2.85342821013191       -0.81853246500897       -1.67026246901206
O           -3.75582890519546       -1.23133291213179       -2.56141469023688
C           -3.26907091388872       -1.95326195487086       -3.69090826162176
C           -3.30526592257941       -0.07972717244389       -0.53772241281553
O           -4.62205377615069        0.14872965134843       -0.43808008654354
H           -5.22464579828913        2.27314946818556        3.03900226171607
H           -3.82652839274999        1.55570258605236        3.89606040176490
H           -3.63099918304168        3.08730708709296        3.00097170611660
H            0.23487130820178       -3.03937400118218       -1.68559508486863
H            1.93275955491071       -2.82701506132469       -1.21418086345056
H            0.65855675579206       -2.81629131280804        0.02243276640701
H            1.09808657648404        0.50519212766803       -2.67606469979615
H            2.17473364171831       -0.90083693292930       -2.79970991693915
H            0.47951606821071       -1.03213473833633       -3.30738023868921
H            1.03304790054117        0.27664769818086        0.48159622028317
H            6.58186477943334        0.99215483903072        3.24165681806290
H            6.65510571720888        2.36340710343072        2.13550140875120
H            5.86504301247963        2.54955676881516        3.71745140637290
H           -2.76057513705816       -2.86554356281057       -3.36779901196236
H           -4.13823841896215       -2.19943113611954       -4.29846589794868
H           -2.56921377745012       -1.33675288347014       -4.26143852237374
H           -4.85109793838053        0.65901930559075        0.35764854568219

          :  Hamiltonian                  GFN1-xTB          :
         :: total energy             -83.011871214842 Eh    ::
         :: gradient norm              0.000316099985 Eh/a0 ::
         :: HOMO-LUMO gap              2.925988917414 eV    ::
         :: SCC energy               -83.788247899135 Eh    ::
         :: -> Gsolv                  -0.049896147875 Eh    ::
         :: repulsion energy           0.801355300314 Eh    ::

    * Orbital Energies and Occupations

         #    Occupation            Energy/Eh            Energy/eV
      -------------------------------------------------------------
         1        2.0000           -0.8611514             -23.4331
       ...           ...                  ...                  ...
        55        2.0000           -0.5019128             -13.6577
        56        2.0000           -0.5012463             -13.6396
        57        2.0000           -0.4976361             -13.5414
        58        2.0000           -0.4835842             -13.1590
        59        2.0000           -0.4798869             -13.0584
        60        2.0000           -0.4754538             -12.9378
        61        2.0000           -0.4709015             -12.8139
        62        2.0000           -0.4594712             -12.5028
        63        2.0000           -0.4572769             -12.4431
        64        2.0000           -0.4484717             -12.2035
        65        2.0000           -0.4436881             -12.0734
        66        2.0000           -0.4349996             -11.8369
        67        2.0000           -0.4325459             -11.7702 (HOMO)
        68                         -0.3250178              -8.8442 (LUMO)
        69                         -0.3059790              -8.3261
        70                         -0.2837202              -7.7204
        71                         -0.2547779              -6.9329
        72                         -0.2409199              -6.5558
        73                         -0.1941587              -5.2833
        74                         -0.1572980              -4.2803
        75                         -0.1419295              -3.8621
        76                         -0.1409258              -3.8348
        77                         -0.1390937              -3.7849
        78                         -0.1202046              -3.2709
       ...                                ...                  ...
       134                          0.7257438              19.7485
      -------------------------------------------------------------
                  HL-Gap            0.1075281 Eh            2.9260 eV

Wiberg/Mayer (AO) data.
largest (>0.10) Wiberg bond orders for each atom

     #   Z sym  total        # sym  WBO       # sym  WBO       # sym  WBO
 ---------------------------------------------------------------------------
     1   6 C    3.860 --    26 H    0.986    28 H    0.980    27 H    0.980
                             2 O    0.884
     2   8 O    2.206 --     3 C    1.092     1 C    0.884     4 O    0.131
     3   6 C    3.845 --     4 O    1.675     2 O    1.092     5 C    0.999
     4   8 O    1.937 --     3 C    1.675     2 O    0.131
     5   6 C    3.966 --    24 C    1.405     6 N    1.276     3 C    0.999
     6   7 N    3.052 --     7 C    1.478     5 C    1.276
     7   6 C    3.944 --     6 N    1.478    20 N    1.300     8 C    0.985
     8   6 C    3.937 --     7 C    0.985    10 C    0.982     9 C    0.975
                            11 N    0.931
     9   6 C    3.990 --    31 H    0.986    29 H    0.985    30 H    0.981
                             8 C    0.975
    10   6 C    3.990 --    32 H    0.986    34 H    0.984     8 C    0.982
                            33 H    0.981
    11   7 N    3.363 --    12 C    1.274     8 C    0.931    35 H    0.879
                            13 O    0.182
    12   6 C    3.920 --    13 O    1.580    11 N    1.274    14 C    0.986
    13   8 O    1.899 --    12 C    1.580    11 N    0.182
    14   6 C    3.873 --    15 N    1.615    19 O    1.062    12 C    0.986
    15   7 N    3.013 --    14 C    1.615    16 N    1.196
    16   7 N    2.980 --    17 C    1.609    15 N    1.196
    17   6 C    3.872 --    16 N    1.609    19 O    1.082    18 C    1.031
    18   6 C    3.987 --    17 C    1.031    38 H    0.983    36 H    0.964
                            37 H    0.963
    19   8 O    2.327 --    17 C    1.082    14 C    1.062
    20   7 N    3.027 --    21 C    1.416     7 C    1.300
    21   6 C    3.909 --    20 N    1.416    24 C    1.195    22 O    1.096
    22   8 O    2.191 --    21 C    1.096    23 C    0.903
    23   6 C    3.876 --    40 H    0.985    39 H    0.979    41 H    0.979
                            22 O    0.903
    24   6 C    3.924 --     5 C    1.405    21 C    1.195    25 O    1.096
    25   8 O    2.071 --    24 C    1.096    42 H    0.802
    26   1 H    1.008 --     1 C    0.986
    27   1 H    1.006 --     1 C    0.980
    28   1 H    1.006 --     1 C    0.980
    29   1 H    1.007 --     9 C    0.985
    30   1 H    1.009 --     9 C    0.981
    31   1 H    1.003 --     9 C    0.986
    32   1 H    1.003 --    10 C    0.986
    33   1 H    1.009 --    10 C    0.981
    34   1 H    1.011 --    10 C    0.984
    35   1 H    0.971 --    11 N    0.879
    36   1 H    0.997 --    18 C    0.964
    37   1 H    0.997 --    18 C    0.963
    38   1 H    0.999 --    18 C    0.983
    39   1 H    1.010 --    23 C    0.979
    40   1 H    1.010 --    23 C    0.985
    41   1 H    1.010 --    23 C    0.979
    42   1 H    0.853 --    25 O    0.802
 ---------------------------------------------------------------------------

           -------------------------------------------------
          | TOTAL ENERGY              -83.011871214842 Eh   |
          | GRADIENT NORM               0.000316099985 Eh/α |
          | HOMO-LUMO GAP               2.925988917414 eV   |
           -------------------------------------------------

 * finished run on 2023/06/20 at 18:31:12.296
