   * xtb version 6.5.1 (579679a) compiled by 'ehlert@majestix' on 2022-07-11
          program call               : /lustre/hpc/kemi/ree/PhD/git/ReactivityQM/dep/xtb-6.5.1/bin/xtb --gfn 1 /lustre/hpc/kemi/ree/PhD/git/ReactivityQM/calculations/R02deprot/reac01prodN15/conf17/R02deprot_reac01prodN15_conf17_gfn1.xyz --opt --vfukui --chrg 0 --uhf 0 --alpb DMSO

   ID    Z sym.   atoms
    1    6 C      1, 3, 5, 6, 8, 9, 12-15, 17, 19, 22, 23
    2    8 O      2, 4, 7, 10, 18, 24
    3    7 N      11, 16, 20, 21, 25
    4    1 H      26-42

      * Solvation model:               ALPB
        Solvent                        DMSO
        Solvent mass                       7.8130E+01 g/mol
          :  Hamiltonian                  GFN1-xTB          :
 * total energy  :   -82.8570346 Eh     change       -0.1348326E-09 Eh
 * total energy  :   -82.8758034 Eh     change       -0.1876883E-01 Eh
 * total energy  :   -82.8921842 Eh     change       -0.1638079E-01 Eh
 * total energy  :   -82.9025073 Eh     change       -0.1032312E-01 Eh
 * total energy  :   -82.9342163 Eh     change       -0.3170895E-01 Eh
 * total energy  :   -82.8953820 Eh     change        0.3883429E-01 Eh
 * total energy  :   -82.9517324 Eh     change       -0.5635038E-01 Eh
 * total energy  :   -82.9300927 Eh     change        0.2163966E-01 Eh
 * total energy  :   -82.9529091 Eh     change       -0.2281639E-01 Eh
 * total energy  :   -82.9521237 Eh     change        0.7854374E-03 Eh
 * total energy  :   -82.9839815 Eh     change       -0.3122211E-04 Eh
 * total energy  :   -82.9839937 Eh     change       -0.1219587E-04 Eh
 * total energy  :   -82.9840086 Eh     change       -0.1488031E-04 Eh
 * total energy  :   -82.9840203 Eh     change       -0.1168852E-04 Eh
 * total energy  :   -82.9840301 Eh     change       -0.9867991E-05 Eh
 * total energy  :   -82.9840416 Eh     change       -0.1147986E-04 Eh
 * total energy  :   -82.9840507 Eh     change       -0.9115239E-05 Eh
 * total energy  :   -82.9840564 Eh     change       -0.5643940E-05 Eh
 * total energy  :   -82.9840610 Eh     change       -0.4590841E-05 Eh
   *** GEOMETRY OPTIMIZATION CONVERGED AFTER 91 ITERATIONS ***

 final structure:
================
42
 xtb: 6.5.1 (579679a)
C           -3.44813398917990        4.10485372001665        0.04921896842434
O           -3.39330962509468        2.71046033832126        0.36056142090625
C           -2.21455194167657        2.10576462088734        0.17649119417049
O           -1.23746494197851        2.68937702228760       -0.24225062395691
C           -2.21992375484247        0.66412003437302        0.51427546112786
C           -3.23491168298172        0.01736031044784        1.14764293856983
O           -4.38511282468476        0.59276561019715        1.47449192685869
C           -2.89935029487872       -2.16066423115150        0.45451821561527
C           -4.00207583819421       -3.11569744309283        0.17764031213955
O           -3.14142175238060       -1.29533059086241        1.53180686775416
N           -1.82228086994539       -2.13337704847200       -0.19532731584239
C           -0.82211662171935       -1.18319277986292        0.02108518637297
C            0.57818837719996       -1.72058791013691       -0.21143738483218
C            0.67136240816142       -2.31359477462759       -1.62445698259534
C            0.88861482303998       -2.78492558855543        0.85106624434541
N            1.49547474785732       -0.59529681472573       -0.07885033852041
C            2.82833898210172       -0.68296129960049       -0.20960208405210
O            3.45728132327083       -1.70186855928268       -0.44773570705141
C            3.46592831030641        0.65026354691992       -0.03001759901978
N            2.84958763387599        1.76818977380936        0.20723421042771
N            3.80674420283459        2.73555053700982        0.29098247362803
C            4.94612688390264        2.14493825776563        0.09857229212052
C            6.29221502677810        2.75925426521885        0.09103712538951
O            4.79814732493727        0.82771784078403       -0.10951206168775
N           -0.98596530465297        0.05625635529071        0.26211907090687
H           -3.19291498966055        4.26846374550350       -1.00092034594258
H           -2.75105893593656        4.66117185141880        0.68140139976165
H           -4.46978213502585        4.42601487220303        0.24270813930297
H           -4.92584062963103        0.01233944781848        2.02502264000938
H           -4.89985799161779       -2.56381493644300       -0.09961183467160
H           -3.72038392034357       -3.78942720422369       -0.62731692477045
H           -4.22761150590590       -3.68335723351040        1.07968071089932
H            0.48309593846830       -1.53959128203972       -2.36729965030065
H           -0.07349179882180       -3.09962219398032       -1.73324122859457
H            1.66204853485912       -2.73411579125400       -1.78809447576272
H            0.13440261708008       -3.56826819358386        0.80574503931270
H            0.87604044991312       -2.33495679595523        1.84269931273120
H            1.86835779143657       -3.22281465979328        0.66944641897271
H            1.07057688197866        0.30549399079530        0.12575754102721
H            6.20831766847918        3.82637423970394        0.28069169587758
H            6.91634236062680        2.30027929901923        0.85739156799971
H            6.77036806204020        2.59645565136164       -0.87457881704987

          :  Hamiltonian                  GFN1-xTB          :
         :: total energy             -82.984060955945 Eh    ::
         :: gradient norm              0.000611620772 Eh/a0 ::
         :: HOMO-LUMO gap              2.737079485376 eV    ::
         :: SCC energy               -83.769373926885 Eh    ::
         :: -> Gsolv                  -0.057275329136 Eh    ::
         :: repulsion energy           0.810600087317 Eh    ::

    * Orbital Energies and Occupations

         #    Occupation            Energy/Eh            Energy/eV
      -------------------------------------------------------------
         1        2.0000           -0.8615979             -23.4453
       ...           ...                  ...                  ...
        55        2.0000           -0.5033343             -13.6964
        56        2.0000           -0.4972592             -13.5311
        57        2.0000           -0.4944271             -13.4540
        58        2.0000           -0.4881568             -13.2834
        59        2.0000           -0.4806168             -13.0782
        60        2.0000           -0.4790598             -13.0359
        61        2.0000           -0.4705587             -12.8046
        62        2.0000           -0.4599017             -12.5146
        63        2.0000           -0.4577612             -12.4563
        64        2.0000           -0.4489353             -12.2162
        65        2.0000           -0.4432961             -12.0627
        66        2.0000           -0.4379582             -11.9174
        67        2.0000           -0.4177387             -11.3672 (HOMO)
        68                         -0.3171528              -8.6302 (LUMO)
        69                         -0.3062649              -8.3339
        70                         -0.2916457              -7.9361
        71                         -0.2552243              -6.9450
        72                         -0.2452810              -6.6744
        73                         -0.1944644              -5.2916
        74                         -0.1834692              -4.9925
        75                         -0.1435478              -3.9061
        76                         -0.1424449              -3.8761
        77                         -0.1376202              -3.7448
        78                         -0.1202240              -3.2715
       ...                                ...                  ...
       134                          0.7244987              19.7146
      -------------------------------------------------------------
                  HL-Gap            0.1005858 Eh            2.7371 eV

Wiberg/Mayer (AO) data.
largest (>0.10) Wiberg bond orders for each atom

     #   Z sym  total        # sym  WBO       # sym  WBO       # sym  WBO
 ---------------------------------------------------------------------------
     1   6 C    3.875 --    28 H    0.986    27 H    0.980    26 H    0.980
                             2 O    0.900
     2   8 O    2.186 --     3 C    1.096     1 C    0.900     4 O    0.127
     3   6 C    3.856 --     4 O    1.638     2 O    1.096     5 C    1.033
     4   8 O    1.910 --     3 C    1.638     2 O    0.127
     5   6 C    3.934 --     6 C    1.542    25 N    1.077     3 C    1.033
     6   6 C    3.844 --     5 C    1.542     7 O    1.116    10 O    0.971
     7   8 O    2.097 --     6 C    1.116    29 H    0.802
     8   6 C    3.875 --    11 N    1.779     9 C    1.029    10 O    0.905
     9   6 C    3.987 --     8 C    1.029    31 H    0.981    32 H    0.959
                            30 H    0.957
    10   8 O    2.101 --     6 C    0.971     8 C    0.905
    11   7 N    3.108 --     8 C    1.779    12 C    1.064
    12   6 C    3.940 --    25 N    1.713    11 N    1.064    13 C    0.978
    13   6 C    3.937 --    15 C    0.978    14 C    0.978    12 C    0.978
                            16 N    0.932
    14   6 C    3.988 --    33 H    0.986    34 H    0.984    35 H    0.981
                            13 C    0.978
    15   6 C    3.990 --    37 H    0.986    36 H    0.985    38 H    0.981
                            13 C    0.978
    16   7 N    3.365 --    17 C    1.275    13 C    0.932    39 H    0.877
                            18 O    0.182
    17   6 C    3.920 --    18 O    1.579    16 N    1.275    19 C    0.985
    18   8 O    1.898 --    17 C    1.579    16 N    0.182
    19   6 C    3.873 --    20 N    1.615    24 O    1.062    17 C    0.985
    20   7 N    3.014 --    19 C    1.615    21 N    1.196
    21   7 N    2.981 --    22 C    1.609    20 N    1.196
    22   6 C    3.872 --    21 N    1.609    24 O    1.081    23 C    1.031
    23   6 C    3.987 --    22 C    1.031    40 H    0.983    41 H    0.964
                            42 H    0.964
    24   8 O    2.327 --    22 C    1.081    19 C    1.062
    25   7 N    3.084 --    12 C    1.713     5 C    1.077
    26   1 H    1.009 --     1 C    0.980
    27   1 H    1.008 --     1 C    0.980
    28   1 H    1.011 --     1 C    0.986
    29   1 H    0.829 --     7 O    0.802
    30   1 H    0.997 --     9 C    0.957
    31   1 H    1.000 --     9 C    0.981
    32   1 H    0.997 --     9 C    0.959
    33   1 H    1.003 --    14 C    0.986
    34   1 H    1.011 --    14 C    0.984
    35   1 H    1.009 --    14 C    0.981
    36   1 H    1.004 --    15 C    0.985
    37   1 H    1.003 --    15 C    0.986
    38   1 H    1.009 --    15 C    0.981
    39   1 H    0.973 --    16 N    0.877
    40   1 H    0.999 --    23 C    0.983
    41   1 H    0.997 --    23 C    0.964
    42   1 H    0.997 --    23 C    0.964
 ---------------------------------------------------------------------------

           -------------------------------------------------
          | TOTAL ENERGY              -82.984060955945 Eh   |
          | GRADIENT NORM               0.000611620772 Eh/α |
          | HOMO-LUMO GAP               2.737079485376 eV   |
           -------------------------------------------------

 * finished run on 2023/06/20 at 18:24:07.297
