   * xtb version 6.5.1 (579679a) compiled by 'ehlert@majestix' on 2022-07-11
          program call               : /lustre/hpc/kemi/ree/PhD/git/ReactivityQM/dep/xtb-6.5.1/bin/xtb --gfn 1 /lustre/hpc/kemi/ree/PhD/git/ReactivityQM/calculations/R03/reac02prodE10/conf08/R03_reac02prodE10_conf08_gfn1.xyz --opt --vfukui --chrg -1 --uhf 0 --alpb DMSO

   ID    Z sym.   atoms
    1    6 C      1, 3, 5, 7-10, 12, 14, 17-19, 22, 23, 25
    2    8 O      2, 4, 13, 20, 24, 26
    3    7 N      6, 11, 15, 16, 21
    4    1 H      27-46

      * Solvation model:               ALPB
        Solvent                        DMSO
        Solvent mass                       7.8130E+01 g/mol
          :  Hamiltonian                  GFN1-xTB          :
 * total energy  :   -86.9870019 Eh     change       -0.5684342E-13 Eh
 * total energy  :   -86.9999278 Eh     change       -0.1292596E-01 Eh
 * total energy  :   -87.0047691 Eh     change       -0.4841301E-02 Eh
 * total energy  :   -87.0054270 Eh     change       -0.6579273E-03 Eh
 * total energy  :   -87.0058779 Eh     change       -0.4508891E-03 Eh
 * total energy  :   -87.0060066 Eh     change       -0.1286428E-03 Eh
 * total energy  :   -87.0061341 Eh     change       -0.1274797E-03 Eh
 * total energy  :   -87.0062163 Eh     change       -0.8224777E-04 Eh
 * total energy  :   -87.0062819 Eh     change       -0.6556449E-04 Eh
 * total energy  :   -87.0063348 Eh     change       -0.5294075E-04 Eh
 * total energy  :   -87.0064735 Eh     change       -0.2480288E-04 Eh
 * total energy  :   -87.0064959 Eh     change       -0.2245699E-04 Eh
 * total energy  :   -87.0065157 Eh     change       -0.1974667E-04 Eh
 * total energy  :   -87.0065315 Eh     change       -0.1582934E-04 Eh
 * total energy  :   -87.0065416 Eh     change       -0.1007295E-04 Eh
 * total energy  :   -87.0065502 Eh     change       -0.8569138E-05 Eh
 * total energy  :   -87.0065554 Eh     change       -0.5192090E-05 Eh
 * total energy  :   -87.0065601 Eh     change       -0.4796697E-05 Eh
 * total energy  :   -87.0065629 Eh     change       -0.2780454E-05 Eh
   *** GEOMETRY OPTIMIZATION CONVERGED AFTER 22 ITERATIONS ***

 final structure:
================
46
 xtb: 6.5.1 (579679a)
C           -6.58530753453530        1.37599029480028        2.33686239917923
O           -5.60154454884981        1.34734834913690        1.31447502471509
C           -4.50975078213596        0.55892692669816        1.56858263460255
O           -4.42110013223349       -0.06631010385279        2.62723068316800
C           -3.53352430190453        0.53782487401614        0.50331532580472
N           -2.44375861464434       -0.27702716995492        0.73489127893202
C           -1.49773553150969       -0.42883241988432       -0.12843266498181
C           -0.39024065664396       -1.40911996636269        0.26696307364103
C           -0.73086935390678       -2.77488452453168       -0.35691785731756
C           -0.36904584560291       -1.53734550482008        1.80225163389065
N            0.89575263904950       -0.90438404904197       -0.21414063506838
C            2.09452260492300       -1.61753095319704        0.10181259984132
O            2.09210020641837       -2.83636059246418        0.42141786782749
C            3.24578228278263       -0.84849570142411       -0.05479548462726
N            4.55822031726633       -1.22008363719487        0.15024187947698
N            5.24789827900524       -0.10804483570562       -0.08986521530263
C            6.68691006419017       -0.12586147896093        0.03189844055201
C            4.49289364185268        0.91621034595865       -0.41958408812566
C            4.91714560961507        2.29529747590628       -0.75356006591900
O            3.19609640975408        0.53456429135376       -0.42654399676341
N           -1.52322829014106        0.19284685945197       -1.36334257948010
C           -0.50423536087741        0.03061191674518       -2.39507419268612
C           -2.55972068970986        1.09282930241842       -1.67984599065759
O           -2.57036360288202        1.70367601061320       -2.76909291600699
C           -3.57846187618978        1.24098806947243       -0.70682077353629
O           -4.58673619621280        2.10764501123897       -1.03369269743301
H           -6.97941453607841        0.37190292475770        2.52777358388981
H           -7.38896938115693        2.02479607506433        1.98974426723905
H           -6.16833858477294        1.77255327557810        3.26881701705351
H           -0.08249171667597       -3.55160232550215        0.04464876718213
H           -0.61079077066586       -2.74940783179186       -1.43854013195384
H           -1.76587206692044       -3.02689853900482       -0.12552772425110
H           -0.16428039394769       -0.56712108551494        2.25384365391391
H           -1.33319469836686       -1.89491485995861        2.16221377505613
H            0.40510660747842       -2.24127675117862        2.10353793763202
H            1.00317831217961        0.08406779494819       -0.01865982270804
H            6.98933629295061       -1.13476053173108        0.30232007662500
H            6.99735315317790        0.57705470682530        0.80373102673423
H            7.13734253320013        0.15872381755368       -0.91754990411744
H            5.65732434968726        2.65085187622923       -0.03726464793266
H            4.05037326358071        2.95258911874091       -0.73397587456665
H            5.36587706771453        2.33639273816289       -1.74822952923209
H           -0.13659882474138       -0.99170717462479       -2.41675791080255
H            0.33137452852195        0.70930443601287       -2.21600948834511
H           -0.95462454680089        0.27201544702109       -3.35901861300342
H           -4.37438932523892        2.46695909799314       -1.91332914213884

          :  Hamiltonian                  GFN1-xTB          :
         :: total energy             -87.006562929144 Eh    ::
         :: gradient norm              0.000386273625 Eh/a0 ::
         :: HOMO-LUMO gap              0.039987039780 eV    ::
         :: SCC energy               -87.797000858981 Eh    ::
         :: -> Gsolv                  -0.128142026112 Eh    ::
         :: repulsion energy           0.818896719619 Eh    ::

    * Orbital Energies and Occupations

         #    Occupation            Energy/Eh            Energy/eV
      -------------------------------------------------------------
         1        2.0000           -0.8379917             -22.8029
       ...           ...                  ...                  ...
        59        2.0000           -0.4703844             -12.7998
        60        2.0000           -0.4627138             -12.5911
        61        2.0000           -0.4613583             -12.5542
        62        2.0000           -0.4458438             -12.1320
        63        2.0000           -0.4367395             -11.8843
        64        2.0000           -0.4272646             -11.6265
        65        2.0000           -0.4177323             -11.3671
        66        2.0000           -0.4159267             -11.3179
        67        2.0000           -0.4035633             -10.9815
        68        2.0000           -0.4031083             -10.9691
        69        2.0000           -0.3874438             -10.5429
        70        2.0000           -0.3831491             -10.4260
        71        1.3685           -0.2893711              -7.8742 (HOMO)
        72        0.6315           -0.2879016              -7.8342 (LUMO)
        73                         -0.2593439              -7.0571
        74                         -0.2376843              -6.4677
        75                         -0.1947478              -5.2994
        76                         -0.1527903              -4.1576
        77                         -0.1458048              -3.9676
        78                         -0.1377891              -3.7494
        79                         -0.1210038              -3.2927
        80                         -0.1134238              -3.0864
        81                         -0.1106898              -3.0120
        82                         -0.1021995              -2.7810
       ...                                ...                  ...
       144                          0.6964248              18.9507
      -------------------------------------------------------------
                  HL-Gap            0.0014695 Eh            0.0400 eV

Wiberg/Mayer (AO) data.
largest (>0.10) Wiberg bond orders for each atom

     #   Z sym  total        # sym  WBO       # sym  WBO       # sym  WBO
 ---------------------------------------------------------------------------
     1   6 C    3.901 --    28 H    0.987    29 H    0.980    27 H    0.980
                             2 O    0.930
     2   8 O    2.109 --     3 C    1.014     1 C    0.930     4 O    0.102
     3   6 C    3.743 --     4 O    1.534     5 C    1.128     2 O    1.014
     4   8 O    1.757 --     3 C    1.534     2 O    0.102
     5   6 C    3.811 --    25 C    1.314     6 N    1.149     3 C    1.128
     6   7 N    3.011 --     7 C    1.602     5 C    1.149
     7   6 C    3.900 --     6 N    1.602    21 N    1.134     8 C    0.973
     8   6 C    3.957 --    10 C    0.988     9 C    0.982     7 C    0.973
                            11 N    0.957
     9   6 C    3.991 --    32 H    0.988     8 C    0.982    31 H    0.981
                            30 H    0.977
    10   6 C    3.992 --     8 C    0.988    33 H    0.987    34 H    0.985
                            35 H    0.983
    11   7 N    3.101 --    12 C    1.007     8 C    0.957    36 H    0.926
    12   6 C    3.808 --    13 O    1.389    14 C    1.309    11 N    1.007
    13   8 O    1.653 --    12 C    1.389
    14   6 C    3.565 --    12 C    1.309    15 N    1.196    20 O    0.878
    15   7 N    2.693 --    14 C    1.196    16 N    1.173    18 C    0.205
    16   7 N    3.638 --    18 C    1.395    15 N    1.173    17 C    0.940
    17   6 C    3.937 --    37 H    0.983    39 H    0.979    38 H    0.978
                            16 N    0.940
    18   6 C    3.771 --    16 N    1.395    20 O    1.063    19 C    1.029
                            15 N    0.205
    19   6 C    3.987 --    18 C    1.029    41 H    0.979    40 H    0.972
                            42 H    0.962
    20   8 O    2.110 --    18 C    1.063    14 C    0.878
    21   7 N    3.358 --     7 C    1.134    23 C    1.049    22 C    0.944
    22   6 C    3.941 --    43 H    0.979    44 H    0.979    45 H    0.977
                            21 N    0.944
    23   6 C    3.835 --    24 O    1.449    25 C    1.213    21 N    1.049
    24   8 O    1.761 --    23 C    1.449
    25   6 C    3.736 --     5 C    1.314    23 C    1.213    26 O    1.032
    26   8 O    1.981 --    25 C    1.032    46 H    0.831
    27   1 H    1.014 --     1 C    0.980
    28   1 H    1.016 --     1 C    0.987
    29   1 H    1.014 --     1 C    0.980
    30   1 H    1.025 --     9 C    0.977
    31   1 H    1.009 --     9 C    0.981
    32   1 H    1.008 --     9 C    0.988
    33   1 H    1.010 --    10 C    0.987
    34   1 H    1.021 --    10 C    0.985
    35   1 H    1.016 --    10 C    0.983
    36   1 H    0.967 --    11 N    0.926
    37   1 H    1.007 --    17 C    0.983
    38   1 H    0.999 --    17 C    0.978
    39   1 H    0.999 --    17 C    0.979
    40   1 H    0.997 --    19 C    0.972
    41   1 H    0.997 --    19 C    0.979
    42   1 H    0.995 --    19 C    0.962
    43   1 H    1.023 --    22 C    0.979
    44   1 H    1.011 --    22 C    0.979
    45   1 H    1.016 --    22 C    0.977
    46   1 H    0.877 --    26 O    0.831
 ---------------------------------------------------------------------------

           -------------------------------------------------
          | TOTAL ENERGY              -87.006562929144 Eh   |
          | GRADIENT NORM               0.000386273625 Eh/α |
          | HOMO-LUMO GAP               0.039987039780 eV   |
           -------------------------------------------------

 * finished run on 2023/06/20 at 15:29:58.432
