   * xtb version 6.5.1 (579679a) compiled by 'ehlert@majestix' on 2022-07-11
          program call               : /lustre/hpc/kemi/ree/PhD/git/ReactivityQM/dep/xtb-6.5.1/bin/xtb --gfn 1 /lustre/hpc/kemi/ree/PhD/git/ReactivityQM/calculations/R02methylcation/reac01prodE05/conf01/R02methylcation_reac01prodE05_conf01_gfn1.xyz --opt --vfukui --chrg -2 --uhf 0 --alpb DMSO

   ID    Z sym.   atoms
    1    6 C      1, 3, 5, 6, 8, 11-14, 16, 18, 21, 22, 25
    2    8 O      2, 4, 7, 9, 17, 23
    3    7 N      10, 15, 19, 20, 24
    4    1 H      26-42

      * Solvation model:               ALPB
        Solvent                        DMSO
        Solvent mass                       7.8130E+01 g/mol
          :  Hamiltonian                  GFN1-xTB          :
 * total energy  :   -83.5570481 Eh     change       -0.1015806E-08 Eh
 * total energy  :   -83.5704717 Eh     change       -0.1342363E-01 Eh
 * total energy  :   -83.5761346 Eh     change       -0.5662882E-02 Eh
 * total energy  :   -83.5776279 Eh     change       -0.1493264E-02 Eh
 * total energy  :   -83.5785376 Eh     change       -0.9097051E-03 Eh
 * total energy  :   -83.5788982 Eh     change       -0.3606805E-03 Eh
 * total energy  :   -83.5791485 Eh     change       -0.2502940E-03 Eh
 * total energy  :   -83.5793362 Eh     change       -0.1876793E-03 Eh
 * total energy  :   -83.5795016 Eh     change       -0.1653363E-03 Eh
 * total energy  :   -83.5796637 Eh     change       -0.1621631E-03 Eh
 * total energy  :   -83.5887330 Eh     change       -0.3214860E-04 Eh
 * total energy  :   -83.5887479 Eh     change       -0.1484263E-04 Eh
 * total energy  :   -83.5887639 Eh     change       -0.1599746E-04 Eh
 * total energy  :   -83.5887831 Eh     change       -0.1918551E-04 Eh
 * total energy  :   -83.5887922 Eh     change       -0.9079167E-05 Eh
 * total energy  :   -83.5888054 Eh     change       -0.1322802E-04 Eh
 * total energy  :   -83.5888119 Eh     change       -0.6568030E-05 Eh
 * total energy  :   -83.5888176 Eh     change       -0.5634477E-05 Eh
 * total energy  :   -83.5888219 Eh     change       -0.4298670E-05 Eh
   *** GEOMETRY OPTIMIZATION CONVERGED AFTER 123 ITERATIONS ***

 final structure:
================
42
 xtb: 6.5.1 (579679a)
C           -2.28779705575658        3.37176748573797       -1.61694763879047
O           -2.67740900063211        2.05768127255630       -1.27347826087619
C           -1.90570485970365        1.44645671262003       -0.29773420032382
O           -0.95654315311756        2.07589734005543        0.19349074840391
C           -2.29572715226815        0.12571622024887        0.04741063853456
C           -3.30518191234899       -0.65105105278023       -0.56304454593397
O           -4.07224864743429       -0.28664450422859       -1.48799652342636
C           -3.37593299628291       -2.09564419361400       -0.08430600757675
O           -4.40303078465608       -2.80405457776168       -0.17457388473561
N           -2.21664936676770       -2.61175758622216        0.37347840765285
C           -1.12089296260145       -1.83889547667391        0.91425794891486
C            0.14572381005016       -1.93667326318462        0.03309710094077
C            0.87608664355088       -3.24298485571315        0.39562803487006
C           -0.11418197570542       -1.90287134387604       -1.49108103866669
N            0.98493679068873       -0.79277279420491        0.40156848612028
C            2.22301499520659       -0.54580296891784       -0.03554392644253
O            2.88026758235033       -1.26027178112562       -0.79959583817306
C            2.76112908265857        0.71673939439510        0.52573400597091
N            2.15879375555535        1.52087644904661        1.35973615697430
N            3.02174347252339        2.55070317129479        1.60974884954958
C            4.09126045409575        2.31494122092831        0.92065294052207
C            5.31968072962041        3.14036641128765        0.85702146339653
O            4.00133654161140        1.17480237299734        0.21179699062904
N           -1.51878779312251       -0.45771698687632        1.13374836834931
C           -2.21716946503563       -0.32510599917217        2.42420212622534
H           -2.36701212138277        4.04841445766582       -0.75694546693908
H           -2.95840008023246        3.71534162261196       -2.40587005066653
H           -1.25413252803624        3.39981102283616       -1.98365596600160
H           -2.25287412950699       -3.58301457239819        0.64158278160449
H            0.22733951371276       -4.08925998280098        0.17233072162495
H            1.80579518551609       -3.35931520922506       -0.16113258575529
H            1.09548682704871       -3.24851990245349        1.46336238781762
H           -0.79281908849648       -2.71324546486170       -1.75684084281520
H            0.81642569272054       -2.03223630968354       -2.04392401032862
H           -0.56745551750418       -0.95261886031374       -1.77620964969260
H            0.51669504227202       -0.09094950572078        0.98148347774127
H            6.17284534793205        2.57480412175197        1.23040399968760
H            5.18876541941337        4.03427040594173        1.46118185197468
H            5.53020391484076        3.42544054585339       -0.17328401515639
H           -3.21071104385957       -0.79792419605917        2.41163127135760
H           -2.33654116505839        0.73303849882669        2.67170148495729
H           -1.61032900183663       -0.80773633879529        3.19274120847107

          :  Hamiltonian                  GFN1-xTB          :
         :: total energy             -83.588821880487 Eh    ::
         :: gradient norm              0.000671509779 Eh/a0 ::
         :: HOMO-LUMO gap              0.133000822887 eV    ::
         :: SCC energy               -84.308278182970 Eh    ::
         :: -> Gsolv                  -0.279774555621 Eh    ::
         :: repulsion energy           0.747759756665 Eh    ::

    * Orbital Energies and Occupations

         #    Occupation            Energy/Eh            Energy/eV
      -------------------------------------------------------------
         1        2.0000           -0.8327937             -22.6615
       ...           ...                  ...                  ...
        56        2.0000           -0.4381453             -11.9225
        57        2.0000           -0.4331763             -11.7873
        58        2.0000           -0.4291618             -11.6781
        59        2.0000           -0.4257689             -11.5858
        60        2.0000           -0.4132155             -11.2442
        61        2.0000           -0.4106956             -11.1756
        62        2.0000           -0.4029880             -10.9659
        63        2.0000           -0.3997102             -10.8767
        64        2.0000           -0.3794986             -10.3267
        65        2.0000           -0.3542337              -9.6392
        66        2.0000           -0.3354706              -9.1286
        67        2.0000           -0.3221488              -8.7661
        68        1.8581           -0.2798551              -7.6152 (HOMO)
        69        0.1419           -0.2749674              -7.4822 (LUMO)
        70                         -0.2316360              -6.3031
        71                         -0.2252797              -6.1302
        72                         -0.1613310              -4.3900
        73                         -0.1599612              -4.3528
        74                         -0.1333589              -3.6289
        75                         -0.1102538              -3.0002
        76                         -0.0998874              -2.7181
        77                         -0.0915854              -2.4922
        78                         -0.0843965              -2.2965
        79                         -0.0788382              -2.1453
       ...                                ...                  ...
       134                          0.7467566              20.3203
      -------------------------------------------------------------
                  HL-Gap            0.0048877 Eh            0.1330 eV

Wiberg/Mayer (AO) data.
largest (>0.10) Wiberg bond orders for each atom

     #   Z sym  total        # sym  WBO       # sym  WBO       # sym  WBO
 ---------------------------------------------------------------------------
     1   6 C    3.917 --    27 H    0.987    26 H    0.980    28 H    0.980
                             2 O    0.946
     2   8 O    2.109 --     3 C    0.979     1 C    0.946
     3   6 C    3.853 --     4 O    1.496     5 C    1.248     2 O    0.979
     4   8 O    1.809 --     3 C    1.496
     5   6 C    3.890 --     6 C    1.309     3 C    1.248    24 N    0.965
                             7 O    0.126
     6   6 C    3.932 --     7 O    1.481     5 C    1.309     8 C    0.952
     7   8 O    1.779 --     6 C    1.481     5 C    0.126
     8   6 C    3.888 --     9 O    1.472    10 N    1.273     6 C    0.952
     9   8 O    1.752 --     8 C    1.472    10 N    0.155
    10   7 N    3.376 --     8 C    1.273    11 C    0.940    29 H    0.919
                             9 O    0.155
    11   6 C    3.211 --    24 N    0.965    12 C    0.955    10 N    0.940
    12   6 C    3.900 --    13 C    0.988    14 C    0.976    11 C    0.955
                            15 N    0.912
    13   6 C    3.992 --    12 C    0.988    32 H    0.987    30 H    0.987
                            31 H    0.984
    14   6 C    3.988 --    33 H    0.986    34 H    0.985    35 H    0.985
                            12 C    0.976
    15   7 N    3.370 --    16 C    1.303    12 C    0.912    36 H    0.878
                            17 O    0.180
    16   6 C    3.891 --    17 O    1.507    15 N    1.303    18 C    1.006
    17   8 O    1.813 --    16 C    1.507    15 N    0.180
    18   6 C    3.801 --    19 N    1.572    23 O    1.032    16 C    1.006
    19   7 N    2.939 --    18 C    1.572    20 N    1.185
    20   7 N    2.981 --    21 C    1.624    19 N    1.185
    21   6 C    3.860 --    20 N    1.624    23 O    1.071    22 C    1.027
    22   6 C    3.991 --    21 C    1.027    38 H    0.984    39 H    0.969
                            37 H    0.967
    23   8 O    2.277 --    21 C    1.071    18 C    1.032
    24   7 N    3.089 --    25 C    0.974     5 C    0.965    11 C    0.965
    25   6 C    3.986 --    42 H    0.989    41 H    0.989    40 H    0.981
                            24 N    0.974
    26   1 H    1.020 --     1 C    0.980
    27   1 H    1.019 --     1 C    0.987
    28   1 H    1.020 --     1 C    0.980
    29   1 H    0.985 --    10 N    0.919
    30   1 H    1.011 --    13 C    0.987
    31   1 H    1.017 --    13 C    0.984
    32   1 H    1.024 --    13 C    0.987
    33   1 H    1.015 --    14 C    0.986
    34   1 H    1.015 --    14 C    0.985
    35   1 H    1.019 --    14 C    0.985
    36   1 H    1.001 --    15 N    0.878
    37   1 H    0.999 --    22 C    0.967
    38   1 H    1.002 --    22 C    0.984
    39   1 H    0.999 --    22 C    0.969
    40   1 H    1.013 --    25 C    0.981
    41   1 H    1.023 --    25 C    0.989
    42   1 H    1.038 --    25 C    0.989
 ---------------------------------------------------------------------------

           -------------------------------------------------
          | TOTAL ENERGY              -83.588821880487 Eh   |
          | GRADIENT NORM               0.000671509779 Eh/α |
          | HOMO-LUMO GAP               0.133000822887 eV   |
           -------------------------------------------------

 * finished run on 2023/06/21 at 17:12:54.782
