   * xtb version 6.5.1 (579679a) compiled by 'ehlert@majestix' on 2022-07-11
          program call               : /lustre/hpc/kemi/ree/PhD/git/ReactivityQM/dep/xtb-6.5.1/bin/xtb --gfn 1 /lustre/hpc/kemi/ree/PhD/git/ReactivityQM/calculations/R02deprot/reac01prodN17/conf17/R02deprot_reac01prodN17_conf17_gfn1.xyz --opt --vfukui --chrg 0 --uhf 0 --alpb DMSO

   ID    Z sym.   atoms
    1    6 C      1, 2, 5, 6, 9-12, 14, 15, 18-20, 22
    2    7 N      3, 4, 8, 13, 24
    3    8 O      7, 16, 17, 21, 23, 25
    4    1 H      26-42

      * Solvation model:               ALPB
        Solvent                        DMSO
        Solvent mass                       7.8130E+01 g/mol
          :  Hamiltonian                  GFN1-xTB          :
 * total energy  :   -82.9113880 Eh     change       -0.2386003E-10 Eh
 * total energy  :   -82.9244018 Eh     change       -0.1301376E-01 Eh
 * total energy  :   -82.9289965 Eh     change       -0.4594734E-02 Eh
 * total energy  :   -82.9298920 Eh     change       -0.8955378E-03 Eh
 * total energy  :   -82.9308670 Eh     change       -0.9749791E-03 Eh
 * total energy  :   -82.9315383 Eh     change       -0.6712994E-03 Eh
 * total energy  :   -82.9321536 Eh     change       -0.6152404E-03 Eh
 * total energy  :   -82.9327204 Eh     change       -0.5667881E-03 Eh
 * total energy  :   -82.9331372 Eh     change       -0.4168391E-03 Eh
 * total energy  :   -82.9334297 Eh     change       -0.2925150E-03 Eh
 * total energy  :   -82.9344814 Eh     change       -0.2303674E-04 Eh
 * total energy  :   -82.9344899 Eh     change       -0.8438263E-05 Eh
 * total energy  :   -82.9345052 Eh     change       -0.1534612E-04 Eh
 * total energy  :   -82.9345158 Eh     change       -0.1062155E-04 Eh
 * total energy  :   -82.9345321 Eh     change       -0.1628746E-04 Eh
 * total energy  :   -82.9345430 Eh     change       -0.1088519E-04 Eh
 * total energy  :   -82.9345498 Eh     change       -0.6814132E-05 Eh
 * total energy  :   -82.9345550 Eh     change       -0.5209108E-05 Eh
 * total energy  :   -82.9345588 Eh     change       -0.3787930E-05 Eh
   *** GEOMETRY OPTIMIZATION CONVERGED AFTER 43 ITERATIONS ***

 final structure:
================
42
 xtb: 6.5.1 (579679a)
C           -6.23270309445974        0.01083077716713        2.26724128317838
C           -5.71622895144241        0.05392717617772        0.88113410437162
N           -6.39964963693301        0.09508719658858       -0.21947471458251
N           -5.49472325179754        0.13220345259470       -1.24134610314531
C           -4.31671628870861        0.11098767354879       -0.69946262390927
C           -2.99715637763017        0.13416132797454       -1.39154247438462
O           -2.91746605744135        0.20320031927488       -2.61127407712235
N           -1.96573585093831        0.07408990104083       -0.54148415034486
C           -0.56418958423628        0.06985175767956       -0.94510567581301
C           -0.27396014218768       -1.15960343661167       -1.81715521572500
C           -0.22497317017209        1.36413865377908       -1.69695271686741
C            0.27824649751612       -0.00692138922077        0.32092101282892
N            1.58338923878180        0.02656371492718        0.13195640411080
C            2.36614546855900       -0.04318342099018        1.25409403106522
C            3.77627981554369        0.03477127837224        1.13312097215936
O            4.64403388689582        0.02581625806449        1.95285108760907
O            4.25730996408665        0.24142623458896       -0.31093573653872
C            5.62030316487469        0.73611268279686       -0.35315886958547
C            4.01997465055532       -0.88798091895456       -1.19431871299679
C            1.80017512508823       -0.15079334020978        2.52241630106246
O            2.49822198217904       -0.22885797662357        3.64995308941359
C            0.31995307162222       -0.17350804968789        2.65140416622635
O           -0.22967052609287       -0.25935179249477        3.74846667780002
N           -0.36132060142479       -0.09467671639241        1.47747575771926
O           -4.39330747617186        0.06084210746127        0.64838024402363
H           -7.31758529313326       -0.05859021345620        2.25028576109874
H           -5.81908354926865       -0.84911086209781        2.79339081223074
H           -5.93386029189247        0.91182915287129        2.80406769492475
H           -2.12658155639651        0.00521564288044        0.46008821545524
H           -0.55187475488433       -2.06942709227884       -1.28650051768533
H            0.79088911361358       -1.19238277462638       -2.03906091417616
H           -0.82958703406602       -1.10427769151359       -2.75209772255470
H            0.84755792641998        1.39407007761063       -1.88060811861229
H           -0.75229295701090        1.40266211253239       -2.64892419202727
H           -0.50505506172152        2.22874834143939       -1.09615406161113
H            5.82839784503806        0.99376875491581       -1.38808658331337
H            6.30401715564436       -0.03187256363995        0.00835815431202
H            5.65565729985491        1.61819914148926        0.28223152613635
H            4.61066703249433       -1.74338745697266       -0.86740018572188
H            4.30948851529579       -0.57134228537830       -2.19363658014242
H            2.95147785483222       -1.09387432026707       -1.15190717830825
H            3.46153689911579       -0.20936243435607        3.51504082944832

          :  Hamiltonian                  GFN1-xTB          :
         :: total energy             -82.934558827573 Eh    ::
         :: gradient norm              0.000985338420 Eh/a0 ::
         :: HOMO-LUMO gap              1.611993614821 eV    ::
         :: SCC energy               -83.712900733732 Eh    ::
         :: -> Gsolv                  -0.077435559865 Eh    ::
         :: repulsion energy           0.804423683293 Eh    ::

    * Orbital Energies and Occupations

         #    Occupation            Energy/Eh            Energy/eV
      -------------------------------------------------------------
         1        2.0000           -0.9046800             -24.6176
       ...           ...                  ...                  ...
        55        2.0000           -0.4997558             -13.5990
        56        2.0000           -0.4911687             -13.3654
        57        2.0000           -0.4891864             -13.3114
        58        2.0000           -0.4745516             -12.9132
        59        2.0000           -0.4631478             -12.6029
        60        2.0000           -0.4579328             -12.4610
        61        2.0000           -0.4567712             -12.4294
        62        2.0000           -0.4526143             -12.3163
        63        2.0000           -0.4453524             -12.1187
        64        2.0000           -0.4356420             -11.8544
        65        2.0000           -0.4308857             -11.7250
        66        2.0000           -0.4021594             -10.9433
        67        2.0000           -0.4018334             -10.9344 (HOMO)
        68                         -0.3425937              -9.3224 (LUMO)
        69                         -0.3016908              -8.2094
        70                         -0.2578072              -7.0153
        71                         -0.2526936              -6.8761
        72                         -0.2332576              -6.3473
        73                         -0.1900246              -5.1708
        74                         -0.1685907              -4.5876
        75                         -0.1591729              -4.3313
        76                         -0.1416605              -3.8548
        77                         -0.1410123              -3.8371
        78                         -0.1293101              -3.5187
       ...                                ...                  ...
       134                          0.7479683              20.3533
      -------------------------------------------------------------
                  HL-Gap            0.0592397 Eh            1.6120 eV

Wiberg/Mayer (AO) data.
largest (>0.10) Wiberg bond orders for each atom

     #   Z sym  total        # sym  WBO       # sym  WBO       # sym  WBO
 ---------------------------------------------------------------------------
     1   6 C    3.987 --     2 C    1.030    26 H    0.983    27 H    0.966
                            28 H    0.962
     2   6 C    3.871 --     3 N    1.616    25 O    1.073     1 C    1.030
     3   7 N    2.980 --     2 C    1.616     4 N    1.192
     4   7 N    2.996 --     5 C    1.627     3 N    1.192
     5   6 C    3.869 --     4 N    1.627    25 O    1.049     6 C    0.985
     6   6 C    3.923 --     7 O    1.561     8 N    1.296     5 C    0.985
     7   8 O    1.882 --     6 C    1.561     8 N    0.185
     8   7 N    3.381 --     6 C    1.296     9 C    0.930    29 H    0.871
                             7 O    0.185
     9   6 C    3.936 --    11 C    0.982    10 C    0.981    12 C    0.975
                             8 N    0.930
    10   6 C    3.991 --    30 H    0.986    31 H    0.982    32 H    0.981
                             9 C    0.981
    11   6 C    3.991 --    35 H    0.986    33 H    0.985     9 C    0.982
                            34 H    0.982
    12   6 C    3.952 --    13 N    1.442    24 N    1.380     9 C    0.975
    13   7 N    3.010 --    12 C    1.442    14 C    1.175
    14   6 C    3.957 --    20 C    1.353    15 C    1.185    13 N    1.175
    15   6 C    3.796 --    16 O    1.729    14 C    1.185    17 O    0.700
    16   8 O    2.065 --    15 C    1.729
    17   8 O    2.480 --    18 C    0.834    19 C    0.823    15 C    0.700
    18   6 C    3.806 --    37 H    0.980    36 H    0.978    38 H    0.976
                            17 O    0.834
    19   6 C    3.797 --    39 H    0.982    40 H    0.978    41 H    0.962
                            17 O    0.823
    20   6 C    3.887 --    14 C    1.353    21 O    1.144    22 C    1.026
    21   8 O    2.128 --    20 C    1.144    42 H    0.800
    22   6 C    3.929 --    23 O    1.548    24 N    1.224    20 C    1.026
    23   8 O    1.847 --    22 C    1.548    24 N    0.132
    24   7 N    3.023 --    12 C    1.380    22 C    1.224    23 O    0.132
    25   8 O    2.316 --     2 C    1.073     5 C    1.049
    26   1 H    0.999 --     1 C    0.983
    27   1 H    0.997 --     1 C    0.966
    28   1 H    0.997 --     1 C    0.962
    29   1 H    0.964 --     8 N    0.871
    30   1 H    1.003 --    10 C    0.986
    31   1 H    1.011 --    10 C    0.982
    32   1 H    1.010 --    10 C    0.981
    33   1 H    1.012 --    11 C    0.985
    34   1 H    1.011 --    11 C    0.982
    35   1 H    1.004 --    11 C    0.986
    36   1 H    0.997 --    18 C    0.978
    37   1 H    0.999 --    18 C    0.980
    38   1 H    0.999 --    18 C    0.976
    39   1 H    0.994 --    19 C    0.982
    40   1 H    0.997 --    19 C    0.978
    41   1 H    1.031 --    19 C    0.962
    42   1 H    0.849 --    21 O    0.800
 ---------------------------------------------------------------------------

           -------------------------------------------------
          | TOTAL ENERGY              -82.934558827573 Eh   |
          | GRADIENT NORM               0.000985338420 Eh/α |
          | HOMO-LUMO GAP               1.611993614821 eV   |
           -------------------------------------------------

 * finished run on 2023/06/20 at 18:28:27.243
