   * xtb version 6.5.1 (579679a) compiled by 'ehlert@majestix' on 2022-07-11
          program call               : /lustre/hpc/kemi/ree/PhD/git/ReactivityQM/dep/xtb-6.5.1/bin/xtb --gfn 1 /lustre/hpc/kemi/ree/PhD/git/ReactivityQM/calculations/R01/reac02prodE06/conf07/R01_reac02prodE06_conf07_gfn1.xyz --opt --vfukui --chrg -1 --uhf 0 --alpb DMSO

   ID    Z sym.   atoms
    1    6 C      1, 3, 5, 6, 8, 9, 12-15
    2    8 O      2, 4, 7, 10
    3    7 N      11, 16, 17
    4    1 H      18-33

      * Solvation model:               ALPB
        Solvent                        DMSO
        Solvent mass                       7.8130E+01 g/mol
          :  Hamiltonian                  GFN1-xTB          :
 * total energy  :   -58.5361648 Eh     change       -0.9748646E-11 Eh
 * total energy  :   -58.5436558 Eh     change       -0.7491041E-02 Eh
 * total energy  :   -58.5463172 Eh     change       -0.2661362E-02 Eh
 * total energy  :   -58.5467475 Eh     change       -0.4303124E-03 Eh
 * total energy  :   -58.5469605 Eh     change       -0.2129932E-03 Eh
 * total energy  :   -58.5470359 Eh     change       -0.7546973E-04 Eh
 * total energy  :   -58.5471052 Eh     change       -0.6922520E-04 Eh
 * total energy  :   -58.5471505 Eh     change       -0.4531333E-04 Eh
 * total energy  :   -58.5471986 Eh     change       -0.4807387E-04 Eh
 * total energy  :   -58.5472487 Eh     change       -0.5013707E-04 Eh
 * total energy  :   -58.5476944 Eh     change       -0.3153213E-04 Eh
 * total energy  :   -58.5477098 Eh     change       -0.1542156E-04 Eh
 * total energy  :   -58.5477202 Eh     change       -0.1040280E-04 Eh
 * total energy  :   -58.5477373 Eh     change       -0.1709552E-04 Eh
 * total energy  :   -58.5477457 Eh     change       -0.8447690E-05 Eh
 * total energy  :   -58.5477601 Eh     change       -0.1440949E-04 Eh
 * total energy  :   -58.5477691 Eh     change       -0.8943590E-05 Eh
 * total energy  :   -58.5477745 Eh     change       -0.5369481E-05 Eh
 * total energy  :   -58.5477789 Eh     change       -0.4462023E-05 Eh
   *** GEOMETRY OPTIMIZATION CONVERGED AFTER 28 ITERATIONS ***

 final structure:
================
33
 xtb: 6.5.1 (579679a)
C            4.21406902602291       -1.92631207286495        0.05632820099274
O            2.89188796263818       -1.41233932190773       -0.05151324397994
C            2.77522029374763       -0.06664915442203       -0.02812757492739
O            3.77240760650485        0.64842055867709        0.08108163399993
C            1.41412269843302        0.42562022080083       -0.14093177157084
C            1.14741829335791        1.76547422868707       -0.15473326847025
O            2.10574954828211        2.70145943651134       -0.06002646321479
C           -0.28114345525258        2.32253193542999       -0.43391369964383
C           -0.57203059590196        3.45277228016787        0.60819970374953
O           -0.47938654874241        2.63786463874754       -1.67210109138095
N           -1.19576507586457        1.15210458472977        0.03238818270636
C           -0.82819281799925       -0.13227182048208       -0.18224990444141
C           -1.93682017272428       -1.17872086093149       -0.23760787804947
C           -1.34178683032311       -2.55656379682999       -0.53972255340947
C           -2.67333847278857       -1.20734258368390        1.11447552071495
N           -2.86764287213649       -0.83568459845224       -1.31708696684775
N            0.39511382250223       -0.54092195375634       -0.24328945136216
H            4.82917057964468       -1.58521126018339       -0.78168905030017
H            4.67776322868496       -1.60071623512791        0.99197917803325
H            4.13537385256607       -3.01221433610542        0.03978206483947
H            2.99079087373307        2.27731843540014        0.02856859198233
H            0.11795044484745        4.27741417469768        0.43629635822078
H           -0.45660721357905        3.08342622288375        1.62556317915069
H           -1.59056077868451        3.80716484509866        0.46388705101415
H           -2.17086392471444        1.36468017877239       -0.11468153982052
H           -2.12542604307619       -3.31316065101030       -0.54017250329438
H           -0.85759583224344       -2.54862005345688       -1.51710484357051
H           -0.59948562215263       -2.81733861082226        0.21474090170031
H           -1.98379729994595       -1.47813922341591        1.91441724495457
H           -3.48113531096875       -1.93703782542204        1.08380776572902
H           -3.09854297004612       -0.22897230303840        1.33391391849895
H           -3.35489677447190        0.02022358830587       -1.07924434163830
H           -3.57201961934790       -1.55825966699628       -1.37041235036472

          :  Hamiltonian                  GFN1-xTB          :
         :: total energy             -58.547778922269 Eh    ::
         :: gradient norm              0.000333097146 Eh/a0 ::
         :: HOMO-LUMO gap              2.246774074978 eV    ::
         :: SCC energy               -59.085336413701 Eh    ::
         :: -> Gsolv                  -0.115390116358 Eh    ::
         :: repulsion energy           0.556158865433 Eh    ::

    * Orbital Energies and Occupations

         #    Occupation            Energy/Eh            Energy/eV
      -------------------------------------------------------------
         1        2.0000           -0.8086616             -22.0048
       ...           ...                  ...                  ...
        36        2.0000           -0.4749904             -12.9251
        37        2.0000           -0.4736556             -12.8888
        38        2.0000           -0.4696036             -12.7786
        39        2.0000           -0.4623006             -12.5798
        40        2.0000           -0.4564408             -12.4204
        41        2.0000           -0.4484442             -12.2028
        42        2.0000           -0.4375908             -11.9075
        43        2.0000           -0.4160997             -11.3227
        44        2.0000           -0.3932294             -10.7003
        45        2.0000           -0.3860130             -10.5039
        46        2.0000           -0.3628601              -9.8739
        47        2.0000           -0.3488634              -9.4931
        48        2.0000           -0.3458272              -9.4104 (HOMO)
        49                         -0.2632598              -7.1637 (LUMO)
        50                         -0.2145329              -5.8377
        51                         -0.1320993              -3.5946
        52                         -0.1264858              -3.4419
        53                         -0.1080882              -2.9412
        54                         -0.1058204              -2.8795
        55                         -0.0883692              -2.4046
        56                         -0.0877656              -2.3882
        57                         -0.0719592              -1.9581
        58                         -0.0638531              -1.7375
        59                         -0.0629549              -1.7131
       ...                                ...                  ...
       100                          0.6982899              19.0014
      -------------------------------------------------------------
                  HL-Gap            0.0825674 Eh            2.2468 eV

Wiberg/Mayer (AO) data.
largest (>0.10) Wiberg bond orders for each atom

     #   Z sym  total        # sym  WBO       # sym  WBO       # sym  WBO
 ---------------------------------------------------------------------------
     1   6 C    3.892 --    20 H    0.987    18 H    0.980    19 H    0.980
                             2 O    0.918
     2   8 O    2.170 --     3 C    1.067     1 C    0.918     4 O    0.106
     3   6 C    3.839 --     4 O    1.543     5 C    1.106     2 O    1.067
     4   8 O    1.897 --     3 C    1.543     2 O    0.106
     5   6 C    3.946 --     6 C    1.537     3 C    1.106    17 N    1.071
     6   6 C    3.863 --     5 C    1.537     7 O    1.106     8 C    0.900
     7   8 O    2.079 --     6 C    1.106    21 H    0.791
     8   6 C    3.924 --    10 O    1.239     9 C    0.938     6 C    0.900
                            11 N    0.779
     9   6 C    3.992 --    23 H    0.991    24 H    0.987    22 H    0.986
                             8 C    0.938
    10   8 O    1.541 --     8 C    1.239
    11   7 N    3.266 --    12 C    1.232    25 H    0.922     8 C    0.779
                            17 N    0.157
    12   6 C    3.947 --    17 N    1.593    11 N    1.232    13 C    0.968
    13   6 C    3.966 --    14 C    1.002    15 C    0.981    16 N    0.977
                            12 C    0.968
    14   6 C    3.997 --    13 C    1.002    26 H    0.987    27 H    0.986
                            28 H    0.985
    15   6 C    3.995 --    30 H    0.986    29 H    0.985    31 H    0.984
                            13 C    0.981
    16   7 N    2.951 --    13 C    0.977    33 H    0.950    32 H    0.948
    17   7 N    2.969 --    12 C    1.593     5 C    1.071    11 N    0.157
    18   1 H    1.012 --     1 C    0.980
    19   1 H    1.013 --     1 C    0.980
    20   1 H    1.015 --     1 C    0.987
    21   1 H    0.876 --     7 O    0.791
    22   1 H    1.016 --     9 C    0.986
    23   1 H    1.014 --     9 C    0.991
    24   1 H    1.013 --     9 C    0.987
    25   1 H    0.966 --    11 N    0.922
    26   1 H    1.004 --    14 C    0.987
    27   1 H    1.017 --    14 C    0.986
    28   1 H    1.020 --    14 C    0.985
    29   1 H    1.005 --    15 C    0.985
    30   1 H    1.005 --    15 C    0.986
    31   1 H    1.008 --    15 C    0.984
    32   1 H    0.967 --    16 N    0.948
    33   1 H    0.966 --    16 N    0.950
 ---------------------------------------------------------------------------

           -------------------------------------------------
          | TOTAL ENERGY              -58.547778922269 Eh   |
          | GRADIENT NORM               0.000333097146 Eh/α |
          | HOMO-LUMO GAP               2.246774074978 eV   |
           -------------------------------------------------

 * finished run on 2023/06/20 at 15:00:27.849
