                         Program Version 5.0.1 -  RELEASE  -
|  1> # ORCA input file
|  2> ! SP r2SCAN-3c CPCM
|  3>
|  4> %maxcore 1875.0
|  5> %pal nprocs 4 end
|  6> %cpcm smd true SMDsolvent "DMSO" end
|  7>
|  8> *xyz -1 1
|  9> C      -5.234234   -1.196015   -1.200979
| 10> O      -3.932855   -0.984239   -0.693592
| 11> C      -3.839034   -0.276988    0.564888
| 12> C      -4.229858    1.200885    0.361445
| 13> O      -4.687217   -0.838307    1.512528
| 14> C      -2.373899   -0.382526    0.997837
| 15> N      -1.514601    0.472193    0.364724
| 16> C      -0.261418    0.447427    0.666782
| 17> C       0.716193    1.412689    0.029742
| 18> C       1.076899    2.511674    1.034820
| 19> C       0.114649    2.018050   -1.241419
| 20> N       1.960907    0.700837   -0.295447
| 21> C       1.991889   -0.383547   -1.093801
| 22> O       1.014883   -0.943925   -1.562540
| 23> C       3.373127   -0.877239   -1.343755
| 24> N       3.722436   -1.936708   -2.004578
| 25> N       5.085029   -1.992880   -1.966986
| 26> C       5.481704   -0.963958   -1.286707
| 27> C       6.869888   -0.572417   -0.960625
| 28> O       4.448809   -0.217165   -0.862045
| 29> N       0.233615   -0.408479    1.619023
| 30> C      -0.534198   -1.314188    2.320248
| 31> O       0.008561   -2.043781    3.155195
| 32> C      -1.979089   -1.301806    1.969369
| 33> O      -2.779512   -2.103267    2.565058
| 34> H      -5.159417   -1.965418   -1.973374
| 35> H      -5.650780   -0.286749   -1.655540
| 36> H      -5.922250   -1.545211   -0.420595
| 37> H      -5.285956    1.278170    0.112046
| 38> H      -3.630826    1.635560   -0.435873
| 39> H      -4.045937    1.743083    1.286765
| 40> H       0.177365    3.052494    1.324992
| 41> H       1.780983    3.212708    0.590931
| 42> H       1.527834    2.074524    1.924108
| 43> H      -0.147746    1.230474   -1.947291
| 44> H       0.828879    2.694521   -1.706011
| 45> H      -0.787731    2.569868   -0.981816
| 46> H       2.827867    1.132629   -0.030943
| 47> H       6.992355   -0.501045    0.119521
| 48> H       7.562505   -1.308927   -1.360055
| 49> H       7.090426    0.404968   -1.388446
| 50> H       1.213629   -0.370702    1.845186
| 51> H      -4.103881   -1.491872    2.047210
| 52> **                         ****END OF INPUT****

CARTESIAN COORDINATES (ANGSTROEM)
---------------------------------
  C     -5.234234   -1.196015   -1.200979
  O     -3.932855   -0.984239   -0.693592
  C     -3.839034   -0.276988    0.564888
  C     -4.229858    1.200885    0.361445
  O     -4.687217   -0.838307    1.512528
  C     -2.373899   -0.382526    0.997837
  N     -1.514601    0.472193    0.364724
  C     -0.261418    0.447427    0.666782
  C      0.716193    1.412689    0.029742
  C      1.076899    2.511674    1.034820
  C      0.114649    2.018050   -1.241419
  N      1.960907    0.700837   -0.295447
  C      1.991889   -0.383547   -1.093801
  O      1.014883   -0.943925   -1.562540
  C      3.373127   -0.877239   -1.343755
  N      3.722436   -1.936708   -2.004578
  N      5.085029   -1.992880   -1.966986
  C      5.481704   -0.963958   -1.286707
  C      6.869888   -0.572417   -0.960625
  O      4.448809   -0.217165   -0.862045
  N      0.233615   -0.408479    1.619023
  C     -0.534198   -1.314188    2.320248
  O      0.008561   -2.043781    3.155195
  C     -1.979089   -1.301806    1.969369
  O     -2.779512   -2.103267    2.565058
  H     -5.159417   -1.965418   -1.973374
  H     -5.650780   -0.286749   -1.655540
  H     -5.922250   -1.545211   -0.420595
  H     -5.285956    1.278170    0.112046
  H     -3.630826    1.635560   -0.435873
  H     -4.045937    1.743083    1.286765
  H      0.177365    3.052494    1.324992
  H      1.780983    3.212708    0.590931
  H      1.527834    2.074524    1.924108
  H     -0.147746    1.230474   -1.947291
  H      0.828879    2.694521   -1.706011
  H     -0.787731    2.569868   -0.981816
  H      2.827867    1.132629   -0.030943
  H      6.992355   -0.501045    0.119521
  H      7.562505   -1.308927   -1.360055
  H      7.090426    0.404968   -1.388446
  H      1.213629   -0.370702    1.845186
  H     -4.103881   -1.491872    2.047210

 Total Charge           Charge          ....   -1
 Multiplicity           Mult            ....    1
 Number of Electrons    NEL             ....  186
 Basis Dimension        Dim             ....  620

ORBITAL ENERGIES
----------------

  NO   OCC          E(Eh)            E(eV)
   0   2.0000     -19.063945      -518.7563
   1   2.0000     -18.932010      -515.1662
   2   2.0000     -18.928118      -515.0603
   3   2.0000     -18.906138      -514.4622
   4   2.0000     -18.896278      -514.1939
   5   2.0000     -18.878539      -513.7112
   6   2.0000     -14.202732      -386.4760
   7   2.0000     -14.197900      -386.3445
   8   2.0000     -14.195655      -386.2834
   9   2.0000     -14.195258      -386.2726
  10   2.0000     -14.135354      -384.6425
  11   2.0000     -10.153732      -276.2971
  12   2.0000     -10.145577      -276.0752
  13   2.0000     -10.140809      -275.9454
  14   2.0000     -10.110759      -275.1277
  15   2.0000     -10.107599      -275.0418
  16   2.0000     -10.092800      -274.6390
  17   2.0000     -10.086626      -274.4711
  18   2.0000     -10.061683      -273.7923
  19   2.0000     -10.048144      -273.4239
  20   2.0000     -10.044035      -273.3121
  21   2.0000     -10.031070      -272.9593
  22   2.0000     -10.022192      -272.7177
  23   2.0000     -10.012295      -272.4484
  24   2.0000      -9.998409      -272.0705
  25   2.0000      -1.153412       -31.3859
  26   2.0000      -1.020645       -27.7732
  27   2.0000      -0.996228       -27.1087
  28   2.0000      -0.987071       -26.8596
  29   2.0000      -0.973442       -26.4887
  30   2.0000      -0.939751       -25.5719
  31   2.0000      -0.932406       -25.3721
  32   2.0000      -0.915140       -24.9022
  33   2.0000      -0.905048       -24.6276
  34   2.0000      -0.844563       -22.9817
  35   2.0000      -0.829425       -22.5698
  36   2.0000      -0.768032       -20.8992
  37   2.0000      -0.712716       -19.3940
  38   2.0000      -0.708645       -19.2832
  39   2.0000      -0.676156       -18.3991
  40   2.0000      -0.663236       -18.0476
  41   2.0000      -0.658381       -17.9155
  42   2.0000      -0.635495       -17.2927
  43   2.0000      -0.605977       -16.4895
  44   2.0000      -0.602306       -16.3896
  45   2.0000      -0.598794       -16.2940
  46   2.0000      -0.578998       -15.7553
  47   2.0000      -0.543674       -14.7941
  48   2.0000      -0.527985       -14.3672
  49   2.0000      -0.521414       -14.1884
  50   2.0000      -0.496732       -13.5168
  51   2.0000      -0.492576       -13.4037
  52   2.0000      -0.485356       -13.2072
  53   2.0000      -0.462835       -12.5944
  54   2.0000      -0.457507       -12.4494
  55   2.0000      -0.446508       -12.1501
  56   2.0000      -0.428284       -11.6542
  57   2.0000      -0.418979       -11.4010
  58   2.0000      -0.412598       -11.2274
  59   2.0000      -0.407698       -11.0940
  60   2.0000      -0.404005       -10.9935
  61   2.0000      -0.399857       -10.8807
  62   2.0000      -0.394344       -10.7306
  63   2.0000      -0.384264       -10.4564
  64   2.0000      -0.380169       -10.3449
  65   2.0000      -0.376090       -10.2339
  66   2.0000      -0.371553       -10.1105
  67   2.0000      -0.363177        -9.8825
  68   2.0000      -0.360536        -9.8107
  69   2.0000      -0.354151        -9.6369
  70   2.0000      -0.349438        -9.5087
  71   2.0000      -0.347012        -9.4427
  72   2.0000      -0.343829        -9.3561
  73   2.0000      -0.342227        -9.3125
  74   2.0000      -0.330764        -9.0005
  75   2.0000      -0.329262        -8.9597
  76   2.0000      -0.320705        -8.7268
  77   2.0000      -0.312841        -8.5128
  78   2.0000      -0.310583        -8.4514
  79   2.0000      -0.307352        -8.3635
  80   2.0000      -0.296163        -8.0590
  81   2.0000      -0.266264        -7.2454
  82   2.0000      -0.264592        -7.1999
  83   2.0000      -0.260718        -7.0945
  84   2.0000      -0.252539        -6.8719
  85   2.0000      -0.243192        -6.6176
  86   2.0000      -0.240186        -6.5358
  87   2.0000      -0.237401        -6.4600
  88   2.0000      -0.221047        -6.0150
  89   2.0000      -0.210937        -5.7399
  90   2.0000      -0.207322        -5.6415
  91   2.0000      -0.174674        -4.7531
  92   2.0000      -0.147780        -4.0213
  93   0.0000      -0.083841        -2.2814
  94   0.0000      -0.027619        -0.7515
  95   0.0000      -0.018540        -0.5045
  96   0.0000      -0.002021        -0.0550
  97   0.0000       0.054153         1.4736

MULLIKEN ATOMIC CHARGES
-----------------------
   0 C :   -0.367904
   1 O :   -0.195437
   2 C :   -0.000246
   3 C :   -0.587094
   4 O :   -0.446819
   5 C :    0.032361
   6 N :   -0.140014
   7 C :    0.162254
   8 C :    0.108152
   9 C :   -0.559213
  10 C :   -0.626615
  11 N :   -0.164808
  12 C :   -0.129667
  13 O :   -0.427931
  14 C :    0.432935
  15 N :   -0.178940
  16 N :   -0.281537
  17 C :    0.392609
  18 C :   -0.634118
  19 O :   -0.056852
  20 N :   -0.040632
  21 C :   -0.034783
  22 O :   -0.410408
  23 C :   -0.033504
  24 O :   -0.511409
  25 H :    0.152838
  26 H :    0.140675
  27 H :    0.165592
  28 H :    0.164691
  29 H :    0.176898
  30 H :    0.172395
  31 H :    0.193570
  32 H :    0.184975
  33 H :    0.186257
  34 H :    0.195581
  35 H :    0.181845
  36 H :    0.183060
  37 H :    0.317684
  38 H :    0.200296
  39 H :    0.204934
  40 H :    0.201094
  41 H :    0.296844
  42 H :    0.380391
Sum of atomic charges:   -1.0000000

LOEWDIN ATOMIC CHARGES
----------------------
   0 C :   -0.086308
   1 O :   -0.712651
   2 C :    0.300517
   3 C :   -0.359522
   4 O :   -0.575227
   5 C :    0.159331
   6 N :   -0.602908
   7 C :    0.311797
   8 C :    0.105218
   9 C :   -0.344839
  10 C :   -0.350474
  11 N :   -0.575476
  12 C :    0.377651
  13 O :   -0.439869
  14 C :    0.414676
  15 N :   -0.336717
  16 N :   -0.361819
  17 C :    0.377250
  18 C :   -0.317544
  19 O :   -0.391967
  20 N :   -0.480907
  21 C :    0.348699
  22 O :   -0.504688
  23 C :    0.208174
  24 O :   -0.672906
  25 H :    0.171917
  26 H :    0.153302
  27 H :    0.169108
  28 H :    0.163202
  29 H :    0.170329
  30 H :    0.166673
  31 H :    0.176612
  32 H :    0.170971
  33 H :    0.172511
  34 H :    0.180063
  35 H :    0.165652
  36 H :    0.174450
  37 H :    0.298137
  38 H :    0.191370
  39 H :    0.190938
  40 H :    0.191663
  41 H :    0.298639
  42 H :    0.304972

  Mayer bond orders larger than 0.100000
B(  0-C ,  1-O ) :   0.8867 B(  0-C , 25-H ) :   0.9681 B(  0-C , 26-H ) :   0.9637
B(  0-C , 27-H ) :   0.9677 B(  1-O ,  2-C ) :   0.9492 B(  2-C ,  3-C ) :   0.9073
B(  2-C ,  4-O ) :   1.0877 B(  2-C ,  5-C ) :   0.9878 B(  3-C , 28-H ) :   0.9575
B(  3-C , 29-H ) :   0.9875 B(  3-C , 30-H ) :   0.9700 B(  4-O , 42-H ) :   0.6712
B(  5-C ,  6-N ) :   0.9990 B(  5-C , 23-C ) :   1.2285 B(  6-N ,  7-C ) :   1.7655
B(  7-C ,  8-C ) :   0.7863 B(  7-C , 20-N ) :   1.0568 B(  8-C ,  9-C ) :   0.9461
B(  8-C , 10-C ) :   0.8826 B(  8-C , 11-N ) :   0.7879 B(  9-C , 31-H ) :   0.9687
B(  9-C , 32-H ) :   0.9656 B(  9-C , 33-H ) :   0.9557 B( 10-C , 34-H ) :   0.9701
B( 10-C , 35-H ) :   0.9761 B( 10-C , 36-H ) :   0.9610 B( 11-N , 12-C ) :   1.1741
B( 11-N , 37-H ) :   0.8907 B( 12-C , 13-O ) :   1.8893 B( 12-C , 14-C ) :   0.7876
B( 14-C , 15-N ) :   1.7203 B( 14-C , 17-C ) :   0.1140 B( 14-C , 19-O ) :   1.0747
B( 15-N , 16-N ) :   1.2713 B( 16-N , 17-C ) :   1.6317 B( 17-C , 18-C ) :   0.8277
B( 17-C , 19-O ) :   1.0659 B( 18-C , 38-H ) :   0.9439 B( 18-C , 39-H ) :   0.9905
B( 18-C , 40-H ) :   0.9408 B( 20-N , 21-C ) :   1.0306 B( 20-N , 41-H ) :   0.8871
B( 21-C , 22-O ) :   2.0894 B( 21-C , 23-C ) :   0.9784 B( 23-C , 24-O ) :   1.5466
B( 24-O , 42-H ) :   0.1986

Dispersion correction           -0.019499459
FINAL SINGLE POINT ENERGY     -1269.388240353856

DIPOLE MOMENT
-------------
                                X             Y             Z
Electronic contribution:     14.00139     -13.69402       2.54477
Nuclear contribution   :     -6.76171      19.39689      -4.41583
                        -----------------------------------------
Total Dipole Moment    :      7.23968       5.70287      -1.87106
                        -----------------------------------------
Magnitude (a.u.)       :      9.40407
Magnitude (Debye)      :     23.90325

Rotational constants in cm-1:     0.014711     0.003577     0.003475
Rotational constants in MHz :   441.030687   107.242070   104.165725

                             ****ORCA TERMINATED NORMALLY****
TOTAL RUN TIME: 0 days 0 hours 2 minutes 21 seconds 83 msec
