   * xtb version 6.5.1 (579679a) compiled by 'ehlert@majestix' on 2022-07-11
          program call               : /lustre/hpc/kemi/ree/PhD/git/ReactivityQM/dep/xtb-6.5.1/bin/xtb --gfn 1 /lustre/hpc/kemi/ree/PhD/git/ReactivityQM/calculations/R02/reac01prodE02/conf13/R02_reac01prodE02_conf13_gfn1.xyz --opt --vfukui --chrg -1 --uhf 0 --alpb DMSO

   ID    Z sym.   atoms
    1    6 C      1, 3, 4, 6, 8-11, 13, 15, 18, 19, 22, 24
    2    8 O      2, 5, 14, 20, 23, 25
    3    7 N      7, 12, 16, 17, 21
    4    1 H      26-43

      * Solvation model:               ALPB
        Solvent                        DMSO
        Solvent mass                       7.8130E+01 g/mol
          :  Hamiltonian                  GFN1-xTB          :
 * total energy  :   -83.8583054 Eh     change       -0.4666845E-10 Eh
 * total energy  :   -83.8704832 Eh     change       -0.1217777E-01 Eh
 * total energy  :   -83.8762551 Eh     change       -0.5771949E-02 Eh
 * total energy  :   -83.8798001 Eh     change       -0.3544941E-02 Eh
 * total energy  :   -83.8827984 Eh     change       -0.2998319E-02 Eh
 * total energy  :   -83.8853189 Eh     change       -0.2520494E-02 Eh
 * total energy  :   -83.8888601 Eh     change       -0.3541208E-02 Eh
 * total energy  :   -83.8917553 Eh     change       -0.2895224E-02 Eh
 * total energy  :   -83.8937511 Eh     change       -0.1995742E-02 Eh
 * total energy  :   -83.8937494 Eh     change        0.1710959E-05 Eh
 * total energy  :   -83.9001876 Eh     change       -0.7986654E-05 Eh
 * total energy  :   -83.9001957 Eh     change       -0.8043263E-05 Eh
 * total energy  :   -83.9002045 Eh     change       -0.8826225E-05 Eh
 * total energy  :   -83.9002123 Eh     change       -0.7822297E-05 Eh
 * total energy  :   -83.9002184 Eh     change       -0.6044699E-05 Eh
 * total energy  :   -83.9002255 Eh     change       -0.7105108E-05 Eh
 * total energy  :   -83.9002330 Eh     change       -0.7474717E-05 Eh
 * total energy  :   -83.9002381 Eh     change       -0.5109891E-05 Eh
 * total energy  :   -83.9002424 Eh     change       -0.4290917E-05 Eh
   *** GEOMETRY OPTIMIZATION CONVERGED AFTER 56 ITERATIONS ***

 final structure:
================
43
 xtb: 6.5.1 (579679a)
C           -5.23423371701304       -1.19601466771653       -1.20097932112138
O           -3.93285541953386       -0.98423882034292       -0.69359176210166
C           -3.83903422805385       -0.27698753184097        0.56488842279335
C           -4.22985780356000        1.20088507638036        0.36144508499081
O           -4.68721745210702       -0.83830698875802        1.51252758712159
C           -2.37389926549947       -0.38252574811942        0.99783661757014
N           -1.51460056008867        0.47219317536669        0.36472444384396
C           -0.26141826072067        0.44742733983134        0.66678238599809
C            0.71619259273532        1.41268930851982        0.02974196843631
C            1.07689870650210        2.51167437657482        1.03482007212529
C            0.11464911955345        2.01804995300755       -1.24141919173797
N            1.96090739363044        0.70083676398334       -0.29544678699592
C            1.99188858596522       -0.38354749662220       -1.09380068378013
O            1.01488291490169       -0.94392490894237       -1.56253992447032
C            3.37312688581930       -0.87723926699659       -1.34375535915054
N            3.72243623803192       -1.93670816696826       -2.00457812149702
N            5.08502913353953       -1.99288021879458       -1.96698622252847
C            5.48170439591148       -0.96395848414810       -1.28670664294575
C            6.86988790169012       -0.57241740161287       -0.96062483804642
O            4.44880910601683       -0.21716546035643       -0.86204471331688
N            0.23361496195653       -0.40847878421053        1.61902251520557
C           -0.53419774759562       -1.31418789104911        2.32024795706565
O            0.00856096739025       -2.04378110642326        3.15519506653333
C           -1.97908892209304       -1.30180610102173        1.96936888585858
O           -2.77951158158140       -2.10326731170930        2.56505814906882
H           -5.15941685739966       -1.96541846335321       -1.97337407106766
H           -5.65077998718063       -0.28674853395688       -1.65553966507033
H           -5.92224951609944       -1.54521149992402       -0.42059497387716
H           -5.28595576348550        1.27817034068572        0.11204577997910
H           -3.63082627018498        1.63556002462847       -0.43587301812559
H           -4.04593651397276        1.74308290423421        1.28676485947273
H            0.17736500366934        3.05249357838912        1.32499241961434
H            1.78098343787337        3.21270751064609        0.59093117663339
H            1.52783431146629        2.07452427710145        1.92410784510067
H           -0.14774551098329        1.23047417918436       -1.94729110126247
H            0.82887946666671        2.69452106732343       -1.70601053304159
H           -0.78773130184173        2.56986797430578       -0.98181570752192
H            2.82786733744254        1.13262855168916       -0.03094309360656
H            6.99235493972789       -0.50104547350980        0.11952065143706
H            7.56250534943298       -1.30892676798810       -1.36005523595157
H            7.09042577873927        0.40496796121915       -1.38844566905869
H            1.21362907392110       -0.37070243211355        1.84518557696501
H           -4.10388092359265       -1.49187183659537        2.04721017046027

          :  Hamiltonian                  GFN1-xTB          :
         :: total energy             -83.900242365248 Eh    ::
         :: gradient norm              0.000629688342 Eh/a0 ::
         :: HOMO-LUMO gap              1.285135374143 eV    ::
         :: SCC energy               -84.654781722127 Eh    ::
         :: -> Gsolv                  -0.137417043463 Eh    ::
         :: repulsion energy           0.781310808740 Eh    ::

    * Orbital Energies and Occupations

         #    Occupation            Energy/Eh            Energy/eV
      -------------------------------------------------------------
         1        2.0000           -0.8606021             -23.4182
       ...           ...                  ...                  ...
        56        2.0000           -0.4744904             -12.9115
        57        2.0000           -0.4588074             -12.4848
        58        2.0000           -0.4545016             -12.3676
        59        2.0000           -0.4517991             -12.2941
        60        2.0000           -0.4464609             -12.1488
        61        2.0000           -0.4440948             -12.0844
        62        2.0000           -0.4398906             -11.9700
        63        2.0000           -0.4386249             -11.9356
        64        2.0000           -0.4305072             -11.7147
        65        2.0000           -0.4233769             -11.5207
        66        2.0000           -0.4093899             -11.1401
        67        2.0000           -0.3664213              -9.9708
        68        2.0000           -0.3506526              -9.5417 (HOMO)
        69                         -0.3034248              -8.2566 (LUMO)
        70                         -0.2524192              -6.8687
        71                         -0.2440954              -6.6422
        72                         -0.2289334              -6.2296
        73                         -0.1915795              -5.2131
        74                         -0.1396797              -3.8009
        75                         -0.1241725              -3.3789
        76                         -0.1197876              -3.2596
        77                         -0.1146962              -3.1210
        78                         -0.1128517              -3.0709
        79                         -0.0997866              -2.7153
       ...                                ...                  ...
       136                          0.7350155              20.0008
      -------------------------------------------------------------
                  HL-Gap            0.0472279 Eh            1.2851 eV

Wiberg/Mayer (AO) data.
largest (>0.10) Wiberg bond orders for each atom

     #   Z sym  total        # sym  WBO       # sym  WBO       # sym  WBO
 ---------------------------------------------------------------------------
     1   6 C    3.923 --    26 H    0.984    27 H    0.982    28 H    0.979
                             2 O    0.954
     2   8 O    1.980 --     1 C    0.954     3 C    0.886
     3   6 C    3.863 --     5 O    0.995     4 C    0.975     6 C    0.960
                             2 O    0.886
     4   6 C    3.996 --    31 H    0.987    30 H    0.987    29 H    0.985
                             3 C    0.975
     5   8 O    1.880 --     3 C    0.995    43 H    0.721
     6   6 C    3.936 --    24 C    1.391     7 N    1.215     3 C    0.960
                            25 O    0.139
     7   7 N    3.035 --     8 C    1.572     6 C    1.215
     8   6 C    3.932 --     7 N    1.572    21 N    1.123     9 C    0.974
     9   6 C    3.931 --    11 C    0.992    10 C    0.989     8 C    0.974
                            12 N    0.914
    10   6 C    3.991 --     9 C    0.989    32 H    0.984    34 H    0.984
                            33 H    0.984
    11   6 C    3.991 --     9 C    0.992    36 H    0.987    37 H    0.984
                            35 H    0.982
    12   7 N    3.355 --    13 C    1.266     9 C    0.914    38 H    0.896
                            14 O    0.180
    13   6 C    3.920 --    14 O    1.584    12 N    1.266    15 C    0.987
    14   8 O    1.888 --    13 C    1.584    12 N    0.180
    15   6 C    3.870 --    16 N    1.626    20 O    1.048    13 C    0.987
    16   7 N    2.997 --    15 C    1.626    17 N    1.194
    17   7 N    2.981 --    18 C    1.615    16 N    1.194
    18   6 C    3.870 --    17 N    1.615    20 O    1.072    19 C    1.031
    19   6 C    3.987 --    18 C    1.031    40 H    0.983    39 H    0.964
                            41 H    0.963
    20   8 O    2.315 --    18 C    1.072    15 C    1.048
    21   7 N    3.432 --    22 C    1.137     8 C    1.123    42 H    0.901
                            23 O    0.129
    22   6 C    3.887 --    23 O    1.539    21 N    1.137    24 C    1.027
    23   8 O    1.832 --    22 C    1.539    21 N    0.129
    24   6 C    3.956 --     6 C    1.391    25 O    1.348    22 C    1.027
    25   8 O    1.826 --    24 C    1.348    43 H    0.153     6 C    0.139
    26   1 H    1.021 --     1 C    0.984
    27   1 H    1.015 --     1 C    0.982
    28   1 H    1.022 --     1 C    0.979
    29   1 H    1.007 --     4 C    0.985
    30   1 H    1.020 --     4 C    0.987
    31   1 H    1.012 --     4 C    0.987
    32   1 H    1.003 --    10 C    0.984
    33   1 H    0.998 --    10 C    0.984
    34   1 H    1.001 --    10 C    0.984
    35   1 H    1.014 --    11 C    0.982
    36   1 H    1.003 --    11 C    0.987
    37   1 H    1.014 --    11 C    0.984
    38   1 H    0.938 --    12 N    0.896
    39   1 H    0.997 --    19 C    0.964
    40   1 H    0.999 --    19 C    0.983
    41   1 H    0.997 --    19 C    0.963
    42   1 H    0.952 --    21 N    0.901
    43   1 H    0.887 --     5 O    0.721    25 O    0.153
 ---------------------------------------------------------------------------

           -------------------------------------------------
          | TOTAL ENERGY              -83.900242365248 Eh   |
          | GRADIENT NORM               0.000629688342 Eh/α |
          | HOMO-LUMO GAP               1.285135374143 eV   |
           -------------------------------------------------

 * finished run on 2023/06/20 at 14:54:31.355
