   * xtb version 6.5.1 (579679a) compiled by 'ehlert@majestix' on 2022-07-11
          program call               : /lustre/hpc/kemi/ree/PhD/git/ReactivityQM/dep/xtb-6.5.1/bin/xtb --gfn 1 /lustre/hpc/kemi/ree/PhD/git/ReactivityQM/calculations/RaltegravirCLI/reac02prodN06/conf15/RaltegravirCLI_reac02prodN06_conf15_gfn1.xyz --opt --vfukui --chrg 1 --uhf 0 --alpb DMSO

   ID    Z sym.   atoms
    1    6 C      1, 3, 5, 7-9, 12-16, 18, 19, 21-24
    2    7 N      2, 11, 20, 25
    3    8 O      4, 6, 10
    4    9 F      17
    5    1 H      26-47

      * Solvation model:               ALPB
        Solvent                        DMSO
        Solvent mass                       7.8130E+01 g/mol
          :  Hamiltonian                  GFN1-xTB          :
 * total energy  :   -79.4700084 Eh     change       -0.2758043E-09 Eh
 * total energy  :   -79.4831091 Eh     change       -0.1310070E-01 Eh
 * total energy  :   -79.4878632 Eh     change       -0.4754025E-02 Eh
 * total energy  :   -79.4887266 Eh     change       -0.8633993E-03 Eh
 * total energy  :   -79.4893776 Eh     change       -0.6510012E-03 Eh
 * total energy  :   -79.4896185 Eh     change       -0.2409637E-03 Eh
 * total energy  :   -79.4898994 Eh     change       -0.2808942E-03 Eh
 * total energy  :   -79.4901462 Eh     change       -0.2467592E-03 Eh
 * total energy  :   -79.4903064 Eh     change       -0.1601814E-03 Eh
 * total energy  :   -79.4904498 Eh     change       -0.1434440E-03 Eh
 * total energy  :   -79.4954198 Eh     change       -0.3309756E-04 Eh
 * total energy  :   -79.4954421 Eh     change       -0.2230428E-04 Eh
 * total energy  :   -79.4954544 Eh     change       -0.1230159E-04 Eh
 * total energy  :   -79.4954690 Eh     change       -0.1461291E-04 Eh
 * total energy  :   -79.4954771 Eh     change       -0.8099278E-05 Eh
 * total energy  :   -79.4954930 Eh     change       -0.1590962E-04 Eh
 * total energy  :   -79.4955011 Eh     change       -0.8059675E-05 Eh
 * total energy  :   -79.4955074 Eh     change       -0.6316590E-05 Eh
 * total energy  :   -79.4955121 Eh     change       -0.4762439E-05 Eh
   *** GEOMETRY OPTIMIZATION CONVERGED AFTER 50 ITERATIONS ***

 final structure:
================
47
 xtb: 6.5.1 (579679a)
C           -2.75838006868675       -1.46791967025858       -1.79214353441066
N           -1.91725164027420       -0.30167780958771       -1.49936809305117
C           -1.08864910648859        0.06941720476293       -2.51900209902915
O           -1.02716813152092       -0.48248664580781       -3.60508960915311
C           -0.23949916149361        1.24806807460454       -2.25709796418821
O            0.51247342744454        1.64527349160293       -3.21979763122353
C           -0.16583853244686        1.84597604585202       -0.95374844883695
C           -0.09475471997921        3.38317664935879       -0.91008879345759
C            1.32360252979162        1.43625220839107       -0.39866436966391
O            2.28050184948879        1.64983623909034       -1.08929407907740
N            1.26440337089850        0.95412225930179        0.82119837547221
C            2.50014442643291        0.61337663407443        1.54791335995333
C            3.15413880889717       -0.59269059090327        0.91993503314164
C            2.61845157103173       -1.86193545939579        1.13027495983423
C            3.19966584387271       -2.97591521700784        0.54309800447934
C            4.31664809948152       -2.78982390570523       -0.25335437408782
F            4.88266916975408       -3.86059729942192       -0.82454584173178
C            4.86796908827322       -1.54263447935117       -0.48825241769212
C            4.27310236849790       -0.43854527117248        0.10507994221672
N           -1.12565336516202        1.35512547168707       -0.04034988921193
C           -1.92422735187482        0.38020818203534       -0.28815213254650
C           -2.85406595685497       -0.01585789701873        0.85177026704539
C           -2.82015747755572        1.07416759301946        1.93489405585859
C           -2.36671564804460       -1.34152623213677        1.45337347272370
N           -4.21579383528622       -0.17146431978297        0.35504577895961
H           -2.97583831468745       -1.46471568252998       -2.85989130496445
H           -2.21080376228645       -2.37442097579017       -1.53649911692057
H           -3.67770559633180       -1.40263993582224       -1.21523937959665
H            0.40234805308739        1.08048501130807       -4.01947476929566
H            0.70815346954662        3.73053765073686       -1.55730588161417
H           -1.04708326314838        3.78433044934336       -1.25012968503291
H            0.08338752509868        3.70245588578539        0.11374890118311
H            0.37436276623257        0.85437387526483        1.28492363021532
H            2.20172863831950        0.41306972297237        2.57737517318117
H            3.16509995802821        1.48073254329143        1.52034257454768
H            1.73965308655349       -1.97805093557368        1.75246362838203
H            2.79499632698533       -3.96757071549772        0.69651942117908
H            5.73818342232326       -1.43934124009473       -1.12367868583323
H            4.67686022546078        0.55147120447406       -0.07135489917045
H           -3.07850203533108        2.04051180082262        1.50554492748954
H           -3.54041992299894        0.82578867912212        2.71240950328654
H           -1.82795006078955        1.14028256588707        2.37767686125523
H           -2.95947303747522       -1.57389130040123        2.33681412252266
H           -2.46617385214719       -2.15863794766562        0.74236265897136
H           -1.32098016722305       -1.25081449030574        1.74472787507580
H           -4.58234100160005        0.73378928965447        0.09303292152441
H           -4.79311901582165       -0.53966971121985        1.09911355128610

          :  Hamiltonian                  GFN1-xTB          :
         :: total energy             -79.495512132832 Eh    ::
         :: gradient norm              0.000354038128 Eh/a0 ::
         :: HOMO-LUMO gap              0.529434549939 eV    ::
         :: SCC energy               -80.394154333131 Eh    ::
         :: -> Gsolv                  -0.104308024575 Eh    ::
         :: repulsion energy           0.931138921637 Eh    ::

    * Orbital Energies and Occupations

         #    Occupation            Energy/Eh            Energy/eV
      -------------------------------------------------------------
         1        2.0000           -0.8977783             -24.4298
       ...           ...                  ...                  ...
        55        2.0000           -0.5183963             -14.1063
        56        2.0000           -0.5174222             -14.0798
        57        2.0000           -0.5164163             -14.0524
        58        2.0000           -0.5092012             -13.8561
        59        2.0000           -0.5016884             -13.6516
        60        2.0000           -0.4924565             -13.4004
        61        2.0000           -0.4861313             -13.2283
        62        2.0000           -0.4836257             -13.1601
        63        2.0000           -0.4818975             -13.1131
        64        2.0000           -0.4760792             -12.9548
        65        2.0000           -0.4636465             -12.6165
        66        2.0000           -0.4509954             -12.2722
        67        1.9999           -0.4284103             -11.6576 (HOMO)
        68        0.0001           -0.4089539             -11.1282 (LUMO)
        69                         -0.3197541              -8.7010
        70                         -0.2887450              -7.8572
        71                         -0.2854963              -7.7687
        72                         -0.2811595              -7.6507
        73                         -0.2572172              -6.9992
        74                         -0.1598953              -4.3510
        75                         -0.1549491              -4.2164
        76                         -0.1509264              -4.1069
        77                         -0.1486453              -4.0448
        78                         -0.1420418              -3.8652
       ...                                ...                  ...
       144                          0.7320265              19.9195
      -------------------------------------------------------------
                  HL-Gap            0.0194564 Eh            0.5294 eV

Wiberg/Mayer (AO) data.
largest (>0.10) Wiberg bond orders for each atom

     #   Z sym  total        # sym  WBO       # sym  WBO       # sym  WBO
 ---------------------------------------------------------------------------
     1   6 C    3.894 --    26 H    0.973    27 H    0.967    28 H    0.958
                             2 N    0.913
     2   7 N    3.530 --     3 C    1.192    21 C    1.106     1 C    0.913
                             4 O    0.163
     3   6 C    3.926 --     4 O    1.588     2 N    1.192     5 C    1.010
     4   8 O    1.948 --     3 C    1.588     2 N    0.163
     5   6 C    3.832 --     6 O    1.318     7 C    1.143     3 C    1.010
     6   8 O    2.261 --     5 C    1.318    29 H    0.756
     7   6 C    3.964 --     5 C    1.143    20 N    1.040     8 C    0.921
                             9 C    0.691
     8   6 C    3.965 --    32 H    0.983    30 H    0.981    31 H    0.976
                             7 C    0.921
     9   6 C    3.909 --    10 O    1.666    11 N    1.370     7 C    0.691
    10   8 O    2.055 --     9 C    1.666    11 N    0.177
    11   7 N    3.395 --     9 C    1.370    12 C    0.894    33 H    0.874
                            10 O    0.177
    12   6 C    3.917 --    13 C    1.000    35 H    0.972    34 H    0.969
                            11 N    0.894
    13   6 C    3.985 --    19 C    1.417    14 C    1.414    12 C    1.000
    14   6 C    3.992 --    15 C    1.449    13 C    1.414    36 H    0.971
                            18 C    0.110
    15   6 C    3.990 --    14 C    1.449    16 C    1.395    37 H    0.968
                            19 C    0.109
    16   6 C    3.860 --    18 C    1.399    15 C    1.395    17 F    0.934
    17   9 F    1.064 --    16 C    0.934
    18   6 C    3.991 --    19 C    1.444    16 C    1.399    38 H    0.968
                            14 C    0.110
    19   6 C    3.989 --    18 C    1.444    13 C    1.417    39 H    0.969
                            15 C    0.109
    20   7 N    3.039 --    21 C    1.657     7 C    1.040
    21   6 C    3.903 --    20 N    1.657     2 N    1.106    22 C    0.973
    22   6 C    3.961 --    23 C    0.990    25 N    0.985    24 C    0.978
                            21 C    0.973
    23   6 C    3.992 --    22 C    0.990    41 H    0.983    40 H    0.983
                            42 H    0.982
    24   6 C    3.991 --    45 H    0.985    44 H    0.981    43 H    0.980
                            22 C    0.978
    25   7 N    3.000 --    22 C    0.985    46 H    0.936    47 H    0.932
    26   1 H    1.000 --     1 C    0.973
    27   1 H    0.998 --     1 C    0.967
    28   1 H    1.023 --     1 C    0.958
    29   1 H    0.805 --     6 O    0.756
    30   1 H    0.998 --     8 C    0.981
    31   1 H    0.995 --     8 C    0.976
    32   1 H    0.997 --     8 C    0.983
    33   1 H    0.943 --    11 N    0.874
    34   1 H    0.995 --    12 C    0.969
    35   1 H    0.998 --    12 C    0.972
    36   1 H    0.998 --    14 C    0.971
    37   1 H    0.996 --    15 C    0.968
    38   1 H    0.996 --    18 C    0.968
    39   1 H    1.003 --    19 C    0.969
    40   1 H    1.005 --    23 C    0.983
    41   1 H    1.001 --    23 C    0.983
    42   1 H    1.007 --    23 C    0.982
    43   1 H    0.997 --    24 C    0.980
    44   1 H    1.001 --    24 C    0.981
    45   1 H    1.002 --    24 C    0.985
    46   1 H    0.949 --    25 N    0.936
    47   1 H    0.947 --    25 N    0.932
 ---------------------------------------------------------------------------

           -------------------------------------------------
          | TOTAL ENERGY              -79.495512132832 Eh   |
          | GRADIENT NORM               0.000354038128 Eh/α |
          | HOMO-LUMO GAP               0.529434549939 eV   |
           -------------------------------------------------

 * finished run on 2023/06/20 at 15:23:11.500
