   * xtb version 6.5.1 (579679a) compiled by 'ehlert@majestix' on 2022-07-11
          program call               : /lustre/hpc/kemi/ree/PhD/git/ReactivityQM/dep/xtb-6.5.1/bin/xtb --gfn 1 /lustre/hpc/kemi/ree/PhD/git/ReactivityQM/calculations/RaltegravirCLI/reac02prodE11/conf15/RaltegravirCLI_reac02prodE11_conf15_gfn1.xyz --opt --vfukui --chrg -1 --uhf 0 --alpb DMSO

   ID    Z sym.   atoms
    1    6 C      1, 3-6, 9, 10, 13-17, 19-21, 23, 24
    2    7 N      2, 7, 8, 12
    3    8 O      11, 22, 25
    4    9 F      18
    5    1 H      26-47

      * Solvation model:               ALPB
        Solvent                        DMSO
        Solvent mass                       7.8130E+01 g/mol
          :  Hamiltonian                  GFN1-xTB          :
 * total energy  :   -80.1934746 Eh     change       -0.1529088E-10 Eh
 * total energy  :   -80.2025992 Eh     change       -0.9124620E-02 Eh
 * total energy  :   -80.2055493 Eh     change       -0.2950037E-02 Eh
 * total energy  :   -80.2064197 Eh     change       -0.8704541E-03 Eh
 * total energy  :   -80.2076122 Eh     change       -0.1192506E-02 Eh
 * total energy  :   -80.2095176 Eh     change       -0.1905404E-02 Eh
 * total energy  :   -80.2027649 Eh     change        0.6752780E-02 Eh
 * total energy  :   -80.2119607 Eh     change       -0.9195835E-02 Eh
 * total energy  :   -80.2135942 Eh     change       -0.1633532E-02 Eh
 * total energy  :   -80.2161046 Eh     change       -0.2510394E-02 Eh
 * total energy  :   -80.2339446 Eh     change       -0.1819858E-04 Eh
 * total energy  :   -80.2339663 Eh     change       -0.2167595E-04 Eh
 * total energy  :   -80.2339796 Eh     change       -0.1337191E-04 Eh
 * total energy  :   -80.2340059 Eh     change       -0.2625842E-04 Eh
 * total energy  :   -80.2340274 Eh     change       -0.2154473E-04 Eh
 * total energy  :   -80.2340425 Eh     change       -0.1507981E-04 Eh
 * total energy  :   -80.2340511 Eh     change       -0.8604552E-05 Eh
 * total energy  :   -80.2340575 Eh     change       -0.6407289E-05 Eh
 * total energy  :   -80.2340625 Eh     change       -0.4982295E-05 Eh
   *** GEOMETRY OPTIMIZATION CONVERGED AFTER 46 ITERATIONS ***

 final structure:
================
47
 xtb: 6.5.1 (579679a)
C           -3.69278261332806        1.35031387629345       -1.51498654275127
N           -2.37252313831702        0.77676510005794       -1.27360182403575
C           -2.16677139995425       -0.42544418769113       -0.59098058527523
C           -3.32944861939426       -1.29993731743522       -0.11514526275470
C           -2.77157785934344       -2.63939091784375        0.39940035685505
C           -4.08816286890755       -0.61686338660250        1.03201358383204
N           -4.26702662520612       -1.55857777674854       -1.21477362952771
N           -0.98972050574549       -0.88095026104810       -0.36788020391035
C            0.16019705757457       -0.21890003796285       -0.85434833591012
C            1.37955502097069       -1.00033634313196       -0.79885170674684
O            1.46627612703764       -2.12573678769406       -0.28185143836276
N            2.48360500963718       -0.44229885406320       -1.42442157905802
C            3.80086160261351       -0.97882838641627       -1.12201881418362
C            4.31382343003240       -0.43580481069137        0.19661643990196
C            5.12426572607692        0.69715238975624        0.22254758292046
C            5.57261347010956        1.22348047461816        1.42701139944849
C            5.18996768149472        0.59468203251041        2.59705349859004
F            5.62339132190022        1.09527429894463        3.77096733438019
C            4.38568664961053       -0.53054991193486        2.61150859762766
C            3.94794579665100       -1.04165519121722        1.39791237140204
C            0.06150061743837        1.08951441304523       -1.30083948842053
O            0.93936703822810        1.81669561561478       -1.83806833586096
C           -1.31488085740737        1.76888054055616       -1.07090086897955
C           -1.36379341900468        2.35900060711521        0.35874872647539
O           -1.43980936692165        2.80603021184128       -2.00978619213488
H           -3.62113999757618        2.04486625084426       -2.35514827192124
H           -4.07245173817611        1.89855316729734       -0.64521439954167
H           -4.39652663962884        0.56270672657394       -1.77845372477087
H           -2.10932003138400       -2.47140129474221        1.24895385007485
H           -2.20700626949668       -3.14041660744520       -0.38677246748620
H           -3.59274769158606       -3.28389639204970        0.71008208581289
H           -4.80913187269672       -1.31044405840619        1.46491321335369
H           -3.38891542486042       -0.31130060482592        1.81046612845040
H           -4.63067758017505        0.25951786920974        0.68387782598466
H           -3.83297290780809       -2.17241882320134       -1.89337305314203
H           -5.07441197095812       -2.04149921880176       -0.84740923906821
H            2.45781338795154        0.55870463168252       -1.59192979047425
H            4.48095754178366       -0.70189911251639       -1.93286980844955
H            3.72941572436633       -2.07121660780976       -1.07961933763833
H            5.41953685837408        1.17266667369938       -0.70601745296423
H            6.20722806592924        2.09927956432816        1.45926593518042
H            4.11536803071744       -0.99364789923911        3.55173204045582
H            3.31626197145882       -1.92380978160923        1.38368742750383
H           -0.53555824190556        2.92971175074892       -2.37358220748932
H           -1.31035122716962        1.56031850299038        1.09689130807230
H           -0.51556084675050        3.02876476418674        0.48879741433234
H           -2.28236941625356        2.92434510921668        0.50430644019669

          :  Hamiltonian                  GFN1-xTB          :
         :: total energy             -80.234062520955 Eh    ::
         :: gradient norm              0.000879907875 Eh/a0 ::
         :: HOMO-LUMO gap              1.931220106020 eV    ::
         :: SCC energy               -81.087498157854 Eh    ::
         :: -> Gsolv                  -0.103660596797 Eh    ::
         :: repulsion energy           0.884659428178 Eh    ::

    * Orbital Energies and Occupations

         #    Occupation            Energy/Eh            Energy/eV
      -------------------------------------------------------------
         1        2.0000           -0.8531204             -23.2146
       ...           ...                  ...                  ...
        56        2.0000           -0.4596171             -12.5068
        57        2.0000           -0.4536647             -12.3448
        58        2.0000           -0.4472238             -12.1696
        59        2.0000           -0.4401171             -11.9762
        60        2.0000           -0.4381297             -11.9221
        61        2.0000           -0.4246677             -11.5558
        62        2.0000           -0.4091839             -11.1345
        63        2.0000           -0.4027984             -10.9607
        64        2.0000           -0.3938587             -10.7174
        65        2.0000           -0.3873933             -10.5415
        66        2.0000           -0.3787660             -10.3067
        67        2.0000           -0.3667780              -9.9805
        68        2.0000           -0.3311186              -9.0102 (HOMO)
        69                         -0.2601476              -7.0790 (LUMO)
        70                         -0.2524340              -6.8691
        71                         -0.2256728              -6.1409
        72                         -0.2074132              -5.6440
        73                         -0.1320074              -3.5921
        74                         -0.1189217              -3.2360
        75                         -0.1113168              -3.0291
        76                         -0.1060088              -2.8846
        77                         -0.1020526              -2.7770
        78                         -0.1005882              -2.7371
        79                         -0.0959091              -2.6098
       ...                                ...                  ...
       144                          0.7032064              19.1352
      -------------------------------------------------------------
                  HL-Gap            0.0709710 Eh            1.9312 eV

Wiberg/Mayer (AO) data.
largest (>0.10) Wiberg bond orders for each atom

     #   Z sym  total        # sym  WBO       # sym  WBO       # sym  WBO
 ---------------------------------------------------------------------------
     1   6 C    3.964 --    26 H    0.983    27 H    0.978    28 H    0.977
                             2 N    0.960
     2   7 N    3.243 --     3 C    1.091     1 C    0.960    23 C    0.930
                             8 N    0.139
     3   6 C    3.941 --     8 N    1.673     2 N    1.091     4 C    0.970
     4   6 C    3.963 --     5 C    0.992     6 C    0.991     7 N    0.972
                             3 C    0.970
     5   6 C    3.997 --     4 C    0.992    31 H    0.987    30 H    0.984
                            29 H    0.984
     6   6 C    3.995 --     4 C    0.991    33 H    0.986    32 H    0.984
                            34 H    0.981
     7   7 N    2.989 --     4 C    0.972    36 H    0.949    35 H    0.947
     8   7 N    3.016 --     3 C    1.673     9 C    1.058     2 N    0.139
     9   6 C    3.901 --    21 C    1.392    10 C    1.140     8 N    1.058
                            22 O    0.125
    10   6 C    3.900 --    11 O    1.505     9 C    1.140    12 N    1.135
    11   8 O    1.814 --    10 C    1.505    12 N    0.115
    12   7 N    3.227 --    10 C    1.135    13 C    0.961    37 H    0.892
                            11 O    0.115
    13   6 C    3.969 --    14 C    0.993    38 H    0.979    39 H    0.972
                            12 N    0.961
    14   6 C    3.987 --    15 C    1.420    20 C    1.413    13 C    0.993
    15   6 C    3.994 --    16 C    1.439    14 C    1.420    40 H    0.972
                            19 C    0.109
    16   6 C    3.992 --    15 C    1.439    17 C    1.405    41 H    0.970
                            20 C    0.111
    17   6 C    3.856 --    16 C    1.405    19 C    1.400    18 F    0.915
    18   9 F    1.040 --    17 C    0.915
    19   6 C    3.992 --    20 C    1.445    17 C    1.400    42 H    0.971
                            15 C    0.109
    20   6 C    3.992 --    19 C    1.445    14 C    1.413    43 H    0.968
                            16 C    0.111
    21   6 C    3.934 --    22 O    1.440     9 C    1.392    23 C    0.914
    22   8 O    1.849 --    21 C    1.440     9 C    0.125
    23   6 C    3.883 --    24 C    0.966    25 O    0.965     2 N    0.930
                            21 C    0.914
    24   6 C    3.995 --    45 H    0.987    46 H    0.986    47 H    0.984
                            23 C    0.966
    25   8 O    1.899 --    23 C    0.965    44 H    0.822
    26   1 H    1.022 --     1 C    0.983
    27   1 H    1.010 --     1 C    0.978
    28   1 H    1.037 --     1 C    0.977
    29   1 H    1.020 --     5 C    0.984
    30   1 H    1.019 --     5 C    0.984
    31   1 H    1.007 --     5 C    0.987
    32   1 H    1.003 --     6 C    0.984
    33   1 H    1.008 --     6 C    0.986
    34   1 H    1.009 --     6 C    0.981
    35   1 H    0.965 --     7 N    0.947
    36   1 H    0.964 --     7 N    0.949
    37   1 H    0.969 --    12 N    0.892
    38   1 H    1.010 --    13 C    0.979
    39   1 H    1.020 --    13 C    0.972
    40   1 H    1.001 --    15 C    0.972
    41   1 H    0.999 --    16 C    0.970
    42   1 H    1.000 --    19 C    0.971
    43   1 H    1.018 --    20 C    0.968
    44   1 H    0.890 --    25 O    0.822
    45   1 H    1.008 --    24 C    0.987
    46   1 H    1.009 --    24 C    0.986
    47   1 H    1.008 --    24 C    0.984
 ---------------------------------------------------------------------------

           -------------------------------------------------
          | TOTAL ENERGY              -80.234062520955 Eh   |
          | GRADIENT NORM               0.000879907875 Eh/α |
          | HOMO-LUMO GAP               1.931220106020 eV   |
           -------------------------------------------------

 * finished run on 2023/06/20 at 15:13:47.185
