   * xtb version 6.5.1 (579679a) compiled by 'ehlert@majestix' on 2022-07-11
          program call               : /lustre/hpc/kemi/ree/PhD/git/ReactivityQM/dep/xtb-6.5.1/bin/xtb --gfn 1 /lustre/hpc/kemi/ree/PhD/git/ReactivityQM/calculations/R02methylcation/reac01prodN11/conf10/R02methylcation_reac01prodN11_conf10_gfn1.xyz --opt --vfukui --chrg 0 --uhf 0 --alpb DMSO

   ID    Z sym.   atoms
    1    6 C      1, 3, 5, 7-10, 12, 13, 15, 18, 19, 22, 24
    2    8 O      2, 4, 14, 20, 23, 25
    3    7 N      6, 11, 16, 17, 21
    4    1 H      26-42

      * Solvation model:               ALPB
        Solvent                        DMSO
        Solvent mass                       7.8130E+01 g/mol
          :  Hamiltonian                  GFN1-xTB          :
 * total energy  :   -82.8608562 Eh     change       -0.5968559E-11 Eh
 * total energy  :   -82.8732875 Eh     change       -0.1243133E-01 Eh
 * total energy  :   -82.8793169 Eh     change       -0.6029393E-02 Eh
 * total energy  :   -82.8807644 Eh     change       -0.1447500E-02 Eh
 * total energy  :   -82.8818013 Eh     change       -0.1036894E-02 Eh
 * total energy  :   -82.8824450 Eh     change       -0.6437225E-03 Eh
 * total energy  :   -82.8828990 Eh     change       -0.4540294E-03 Eh
 * total energy  :   -82.8832473 Eh     change       -0.3482966E-03 Eh
 * total energy  :   -82.8834503 Eh     change       -0.2029198E-03 Eh
 * total energy  :   -82.8835717 Eh     change       -0.1214551E-03 Eh
 * total energy  :   -82.8850835 Eh     change       -0.1667860E-04 Eh
 * total energy  :   -82.8851049 Eh     change       -0.2146296E-04 Eh
 * total energy  :   -82.8851254 Eh     change       -0.2051111E-04 Eh
 * total energy  :   -82.8851423 Eh     change       -0.1687915E-04 Eh
 * total energy  :   -82.8851582 Eh     change       -0.1593296E-04 Eh
 * total energy  :   -82.8851675 Eh     change       -0.9222477E-05 Eh
 * total energy  :   -82.8851739 Eh     change       -0.6423576E-05 Eh
 * total energy  :   -82.8851797 Eh     change       -0.5768311E-05 Eh
 * total energy  :   -82.8851838 Eh     change       -0.4155025E-05 Eh
   *** GEOMETRY OPTIMIZATION CONVERGED AFTER 42 ITERATIONS ***

 final structure:
================
42
 xtb: 6.5.1 (579679a)
C            6.90209415434747        0.17114894551454       -1.32898182357275
O            5.71616491545207        0.74974203616073       -0.77558478474525
C            4.61489054767217        0.01348072062729       -0.83261270572004
O            4.57180037893574       -1.09345687597894       -1.32062432704135
C            3.41578938087208        0.67452824688487       -0.22502543585157
N            2.35646192547096       -0.12785655192581       -0.13588399787360
C            1.21804707080723        0.29133171237471        0.37644204183641
C            0.09400344829272       -0.69616393237533        0.48620708902727
C            0.03545630918268       -1.57480149604746       -0.78187698403942
C            0.42203460434989       -1.56942190301084        1.71978499811092
N           -1.15361503503338       -0.00345277700284        0.66074393660853
C           -2.43169966405505       -0.71682075326770        0.80469652104783
C           -3.20470553445151        0.04933563826892        1.95194880961765
O           -2.38617601436733       -1.98421639561412        0.98989818358579
C           -3.20111295886349       -0.32091158730310       -0.48216514256325
N           -2.68741811129735       -0.10110234675135       -1.64600282092087
N           -3.74449072849718        0.13241080985689       -2.48496386868990
C           -4.82078446847108        0.04370403579882       -1.77162562691896
C           -6.22311258730019        0.21528383493052       -2.20964053760969
O           -4.53957313828621       -0.24340667847161       -0.48518333928496
N            1.07915299225146        1.53933722473925        0.86623332904878
C            2.08162347000134        2.50549026065950        0.84751123768607
O            1.88267670133656        3.59848909794492        1.32451855766088
C            3.38625814837667        2.06042503595417        0.20949106725482
O            4.30674235772974        2.85568467598717        0.10006486876422
H            7.70350053346771        0.88867759159812       -1.16560786711526
H            6.76573908124744       -0.01204893854990       -2.39743042568301
H            7.12692966157016       -0.77285376845507       -0.82693535885754
H           -0.68399574728372       -2.37727413447032       -0.63623705719266
H           -0.27376103343114       -0.96496663937428       -1.62921911396806
H            1.02141654527949       -1.99607342561098       -0.96816351213453
H            1.41690308057506       -1.99357294270569        1.59804648477910
H           -0.30466666142277       -2.37261413972378        1.81070394654456
H            0.39652330427889       -0.95412429156862        2.61661233475141
H           -1.23813087425508        0.89079669566342        0.20207400040759
H           -4.19687439776038       -0.38622188101430        2.02580987262768
H           -2.65037100846364       -0.11246561448873        2.87119688428553
H           -3.26587205281400        1.10785720653472        1.72316927422856
H           -6.24961189777015        0.41969274466245       -3.27735864733732
H           -6.79470730867730       -0.68733820755924       -1.99401265806054
H           -6.68174691033372        1.04231476631321       -1.66794739385694
H            0.21821852133372        1.81143400079304        1.31618599116299

          :  Hamiltonian                  GFN1-xTB          :
         :: total energy             -82.885183811731 Eh    ::
         :: gradient norm              0.000594187977 Eh/a0 ::
         :: HOMO-LUMO gap              0.078081058571 eV    ::
         :: SCC energy               -83.650009797469 Eh    ::
         :: -> Gsolv                  -0.062994790544 Eh    ::
         :: repulsion energy           0.791126021911 Eh    ::

    * Orbital Energies and Occupations

         #    Occupation            Energy/Eh            Energy/eV
      -------------------------------------------------------------
         1        2.0000           -0.8687269             -23.6393
       ...           ...                  ...                  ...
        55        2.0000           -0.5113301             -13.9140
        56        2.0000           -0.5077845             -13.8175
        57        2.0000           -0.5073793             -13.8065
        58        2.0000           -0.5005464             -13.6206
        59        2.0000           -0.4898267             -13.3289
        60        2.0000           -0.4841155             -13.1735
        61        2.0000           -0.4801426             -13.0653
        62        2.0000           -0.4654257             -12.6649
        63        2.0000           -0.4610492             -12.5458
        64        2.0000           -0.4507181             -12.2647
        65        2.0000           -0.4452863             -12.1169
        66        2.0000           -0.4421844             -12.0325
        67        1.6382           -0.4230927             -11.5129 (HOMO)
        68        0.3618           -0.4202233             -11.4349 (LUMO)
        69                         -0.3268399              -8.8938
        70                         -0.3029138              -8.2427
        71                         -0.2739228              -7.4538
        72                         -0.2571355              -6.9970
        73                         -0.2511301              -6.8336
        74                         -0.1774427              -4.8285
        75                         -0.1433703              -3.9013
        76                         -0.1406960              -3.8285
        77                         -0.1397765              -3.8035
        78                         -0.1319101              -3.5895
       ...                                ...                  ...
       134                          0.7468978              20.3241
      -------------------------------------------------------------
                  HL-Gap            0.0028694 Eh            0.0781 eV

Wiberg/Mayer (AO) data.
largest (>0.10) Wiberg bond orders for each atom

     #   Z sym  total        # sym  WBO       # sym  WBO       # sym  WBO
 ---------------------------------------------------------------------------
     1   6 C    3.866 --    26 H    0.986    28 H    0.978    27 H    0.978
                             2 O    0.893
     2   8 O    2.208 --     3 C    1.129     1 C    0.893     4 O    0.140
     3   6 C    3.846 --     4 O    1.652     2 O    1.129     5 C    0.992
     4   8 O    1.900 --     3 C    1.652     2 O    0.140
     5   6 C    3.754 --     6 N    1.391    24 C    1.113     3 C    0.992
     6   7 N    2.990 --     5 C    1.391     7 C    1.381
     7   6 C    3.825 --     6 N    1.381    21 N    1.240     8 C    1.008
     8   6 C    3.930 --     7 C    1.008    11 N    0.981     9 C    0.934
                            10 C    0.929
     9   6 C    3.956 --    30 H    0.983    31 H    0.979    29 H    0.978
                             8 C    0.934
    10   6 C    3.958 --    32 H    0.986    34 H    0.985    33 H    0.971
                             8 C    0.929
    11   7 N    3.177 --     8 C    0.981    12 C    0.916    35 H    0.903
                            14 O    0.154
    12   6 C    3.877 --    14 O    1.259    11 N    0.916    15 C    0.827
                            13 C    0.812
    13   6 C    3.847 --    38 H    0.988    37 H    0.981    36 H    0.981
                            12 C    0.812
    14   8 O    1.612 --    12 C    1.259    11 N    0.154
    15   6 C    3.768 --    16 N    1.646    20 O    1.076    12 C    0.827
    16   7 N    2.999 --    15 C    1.646    17 N    1.160
    17   7 N    2.980 --    18 C    1.631    16 N    1.160
    18   6 C    3.858 --    17 N    1.631    20 O    1.055    19 C    1.030
    19   6 C    3.984 --    18 C    1.030    39 H    0.982    40 H    0.964
                            41 H    0.963
    20   8 O    2.321 --    15 C    1.076    18 C    1.055
    21   7 N    3.455 --     7 C    1.240    22 C    1.082    42 H    0.872
                            23 O    0.103
    22   6 C    3.836 --    23 O    1.689    21 N    1.082    24 C    0.938
    23   8 O    1.907 --    22 C    1.689    21 N    0.103
    24   6 C    3.852 --    25 O    1.664     5 C    1.113    22 C    0.938
    25   8 O    1.823 --    24 C    1.664
    26   1 H    1.010 --     1 C    0.986
    27   1 H    1.005 --     1 C    0.978
    28   1 H    1.005 --     1 C    0.978
    29   1 H    1.009 --     9 C    0.978
    30   1 H    1.015 --     9 C    0.983
    31   1 H    1.008 --     9 C    0.979
    32   1 H    1.002 --    10 C    0.986
    33   1 H    1.011 --    10 C    0.971
    34   1 H    0.999 --    10 C    0.985
    35   1 H    0.946 --    11 N    0.903
    36   1 H    1.003 --    13 C    0.981
    37   1 H    0.997 --    13 C    0.981
    38   1 H    0.998 --    13 C    0.988
    39   1 H    0.998 --    19 C    0.982
    40   1 H    0.997 --    19 C    0.964
    41   1 H    0.997 --    19 C    0.963
    42   1 H    0.921 --    21 N    0.872
 ---------------------------------------------------------------------------

           -------------------------------------------------
          | TOTAL ENERGY              -82.885183811731 Eh   |
          | GRADIENT NORM               0.000594187977 Eh/α |
          | HOMO-LUMO GAP               0.078081058571 eV   |
           -------------------------------------------------

 * finished run on 2023/06/21 at 17:43:48.242
