   * xtb version 6.5.1 (579679a) compiled by 'ehlert@majestix' on 2022-07-11
          program call               : /lustre/hpc/kemi/ree/PhD/git/ReactivityQM/dep/xtb-6.5.1/bin/xtb --gfn 1 /lustre/hpc/kemi/ree/PhD/git/ReactivityQM/calculations/R01/reac02prodN03/conf16/R01_reac02prodN03_conf16_gfn1.xyz --opt --vfukui --chrg 1 --uhf 0 --alpb DMSO

   ID    Z sym.   atoms
    1    6 C      1, 3, 5, 7-10, 13, 15, 17
    2    8 O      2, 4, 14, 16
    3    7 N      6, 11, 12
    4    1 H      18-33

      * Solvation model:               ALPB
        Solvent                        DMSO
        Solvent mass                       7.8130E+01 g/mol
          :  Hamiltonian                  GFN1-xTB          :
 * total energy  :   -57.8029476 Eh     change       -0.2806644E-11 Eh
 * total energy  :   -57.8166746 Eh     change       -0.1372697E-01 Eh
 * total energy  :   -57.8225857 Eh     change       -0.5911135E-02 Eh
 * total energy  :   -57.8247414 Eh     change       -0.2155661E-02 Eh
 * total energy  :   -57.8275619 Eh     change       -0.2820492E-02 Eh
 * total energy  :   -57.8289973 Eh     change       -0.1435461E-02 Eh
 * total energy  :   -57.8313877 Eh     change       -0.2390367E-02 Eh
 * total energy  :   -57.8350348 Eh     change       -0.3647152E-02 Eh
 * total energy  :   -57.8382926 Eh     change       -0.3257725E-02 Eh
 * total energy  :   -57.8379756 Eh     change        0.3169125E-03 Eh
 * total energy  :   -57.8485669 Eh     change       -0.4205111E-04 Eh
 * total energy  :   -57.8485949 Eh     change       -0.2800738E-04 Eh
 * total energy  :   -57.8486155 Eh     change       -0.2059918E-04 Eh
 * total energy  :   -57.8486280 Eh     change       -0.1250986E-04 Eh
 * total energy  :   -57.8486421 Eh     change       -0.1405992E-04 Eh
 * total energy  :   -57.8486520 Eh     change       -0.9899717E-05 Eh
 * total energy  :   -57.8486609 Eh     change       -0.8883840E-05 Eh
 * total energy  :   -57.8486682 Eh     change       -0.7301149E-05 Eh
 * total energy  :   -57.8486725 Eh     change       -0.4281263E-05 Eh
   *** GEOMETRY OPTIMIZATION CONVERGED AFTER 33 ITERATIONS ***

 final structure:
================
33
 xtb: 6.5.1 (579679a)
C            3.02529361879952        3.23381361032783        0.00263701747464
O            1.95498243882574        2.27021840848294        0.01351833468327
C            2.22016799296969        1.02148670837408        0.11438023409303
O            3.45951944539051        0.67131887834646        0.20642741003852
C            1.11412654452549        0.09039800250489        0.11805746281823
N           -0.12189181542982        0.67295607128264        0.00368732206686
C           -1.17490422176495       -0.07596983715512        0.00398565979607
C           -2.54604485581741        0.56431318823787       -0.12952834864820
C           -3.20707274192636        0.08686161400797       -1.42974528029295
C           -3.40888583642808        0.20707831054263        1.08773060256545
N           -2.39366976230416        2.00773652471560       -0.18749368065902
N           -1.08367198870619       -1.43307940792618        0.11376847963613
C            0.08765162105815       -2.14517127324916        0.22705775594163
O            0.07757701776576       -3.35751969678306        0.31427742362893
C            1.28208512579856       -1.28168623725437        0.22982381262338
O            2.51173632435120       -1.77166182009354        0.33840843391747
C            2.78376576742599       -3.18190485095747        0.47261350414116
H            3.69046983150006        3.02572721484640       -0.83591865298092
H            2.55066915364381        4.20629913648699       -0.10538180219784
H            3.57868374750658        3.16916905604255        0.94002800702560
H           -4.16072410822962        0.59864098297587       -1.55358835422910
H           -3.38085856724381       -0.98711314418104       -1.40026041751384
H           -2.56803945306503        0.31769704055047       -2.28105916571303
H           -4.35003777548095        0.75232913671911        1.02840215013110
H           -3.61920614934811       -0.86051865682316        1.11067588504646
H           -2.89549634501617        0.48569450011030        2.00695523184937
H           -1.91203819059143        2.31733420809628        0.64802029518607
H           -1.79972303707806        2.23964498254292       -0.97477276820283
H           -1.92285927318901       -1.99846698942661        0.11702110613263
H            3.60547981392277       -0.29738835348319        0.27925009584140
H            2.31121065729968       -3.57095974498766        1.37506553245635
H            3.86671851599533       -3.25803768816285        0.54784582422288
H            2.42498650483873       -3.71923887471064       -0.40572511087789

          :  Hamiltonian                  GFN1-xTB          :
         :: total energy             -57.848672458266 Eh    ::
         :: gradient norm              0.000421931719 Eh/a0 ::
         :: HOMO-LUMO gap              1.175792906926 eV    ::
         :: SCC energy               -58.421191261445 Eh    ::
         :: -> Gsolv                  -0.093559209689 Eh    ::
         :: repulsion energy           0.590772798955 Eh    ::

    * Orbital Energies and Occupations

         #    Occupation            Energy/Eh            Energy/eV
      -------------------------------------------------------------
         1        2.0000           -0.9100645             -24.7641
       ...           ...                  ...                  ...
        35        2.0000           -0.5494789             -14.9521
        36        2.0000           -0.5424020             -14.7595
        37        2.0000           -0.5409973             -14.7213
        38        2.0000           -0.5246488             -14.2764
        39        2.0000           -0.5195381             -14.1374
        40        2.0000           -0.5143320             -13.9957
        41        2.0000           -0.5136083             -13.9760
        42        2.0000           -0.5029114             -13.6849
        43        2.0000           -0.4954526             -13.4820
        44        2.0000           -0.4844466             -13.1825
        45        2.0000           -0.4777309             -12.9997
        46        2.0000           -0.4578985             -12.4601
        47        2.0000           -0.4256022             -11.5812 (HOMO)
        48                         -0.3823926             -10.4054 (LUMO)
        49                         -0.3097010              -8.4274
        50                         -0.2884519              -7.8492
        51                         -0.1971164              -5.3638
        52                         -0.1646533              -4.4804
        53                         -0.1493880              -4.0651
        54                         -0.1455832              -3.9615
        55                         -0.1346641              -3.6644
        56                         -0.1318240              -3.5871
        57                         -0.1194259              -3.2497
        58                         -0.1006079              -2.7377
       ...                                ...                  ...
       100                          0.6847084              18.6319
      -------------------------------------------------------------
                  HL-Gap            0.0432096 Eh            1.1758 eV

Wiberg/Mayer (AO) data.
largest (>0.10) Wiberg bond orders for each atom

     #   Z sym  total        # sym  WBO       # sym  WBO       # sym  WBO
 ---------------------------------------------------------------------------
     1   6 C    3.821 --    19 H    0.982    18 H    0.972    20 H    0.972
                             2 O    0.853
     2   8 O    2.319 --     3 C    1.286     1 C    0.853
     3   6 C    3.811 --     2 O    1.286     4 O    1.249     5 C    1.119
     4   8 O    2.195 --     3 C    1.249    30 H    0.745
     5   6 C    3.960 --    15 C    1.412     6 N    1.171     3 C    1.119
     6   7 N    3.025 --     7 C    1.575     5 C    1.171
     7   6 C    3.905 --     6 N    1.575    12 N    1.168     8 C    0.970
     8   6 C    3.967 --    11 N    1.001    10 C    0.982     9 C    0.980
                             7 C    0.970
     9   6 C    3.991 --    23 H    0.985    22 H    0.984    21 H    0.982
                             8 C    0.980
    10   6 C    3.992 --    26 H    0.985    25 H    0.984    24 H    0.982
                             8 C    0.982
    11   7 N    2.955 --     8 C    1.001    27 H    0.942    28 H    0.942
    12   7 N    3.477 --     7 C    1.168    13 C    1.143    29 H    0.876
                            14 O    0.142
    13   6 C    3.915 --    14 O    1.608    12 N    1.143    15 C    1.039
    14   8 O    1.938 --    13 C    1.608    12 N    0.142
    15   6 C    3.906 --     5 C    1.412    16 O    1.134    13 C    1.039
    16   8 O    2.248 --    15 C    1.134    17 C    0.855
    17   6 C    3.829 --    32 H    0.983    31 H    0.975    33 H    0.974
                            16 O    0.855
    18   1 H    0.997 --     1 C    0.972
    19   1 H    1.002 --     1 C    0.982
    20   1 H    0.997 --     1 C    0.972
    21   1 H    1.002 --     9 C    0.982
    22   1 H    1.000 --     9 C    0.984
    23   1 H    1.000 --     9 C    0.985
    24   1 H    1.002 --    10 C    0.982
    25   1 H    0.999 --    10 C    0.984
    26   1 H    1.000 --    10 C    0.985
    27   1 H    0.964 --    11 N    0.942
    28   1 H    0.965 --    11 N    0.942
    29   1 H    0.923 --    12 N    0.876
    30   1 H    0.807 --     4 O    0.745
    31   1 H    1.007 --    17 C    0.975
    32   1 H    1.005 --    17 C    0.983
    33   1 H    1.007 --    17 C    0.974
 ---------------------------------------------------------------------------

           -------------------------------------------------
          | TOTAL ENERGY              -57.848672458266 Eh   |
          | GRADIENT NORM               0.000421931719 Eh/α |
          | HOMO-LUMO GAP               1.175792906926 eV   |
           -------------------------------------------------

 * finished run on 2023/06/20 at 15:05:09.724
