   * xtb version 6.5.1 (579679a) compiled by 'ehlert@majestix' on 2022-07-11
          program call               : /lustre/hpc/kemi/ree/PhD/git/ReactivityQM/dep/xtb-6.5.1/bin/xtb --gfn 1 /lustre/hpc/kemi/ree/PhD/git/ReactivityQM/calculations/R02oxygendeprot/reac01prodN09/conf07/R02oxygendeprot_reac01prodN09_conf07_gfn1.xyz --opt --vfukui --chrg 0 --uhf 0 --alpb DMSO

   ID    Z sym.   atoms
    1    6 C      1, 3, 4, 6, 8-11, 13, 15, 18, 19, 22, 24
    2    8 O      2, 5, 14, 20, 23, 25
    3    7 N      7, 12, 16, 17, 21
    4    1 H      26-42

      * Solvation model:               ALPB
        Solvent                        DMSO
        Solvent mass                       7.8130E+01 g/mol
          :  Hamiltonian                  GFN1-xTB          :
 * total energy  :   -82.8596691 Eh     change       -0.5428547E-11 Eh
 * total energy  :   -82.8753208 Eh     change       -0.1565174E-01 Eh
 * total energy  :   -82.8933845 Eh     change       -0.1806369E-01 Eh
 * total energy  :   -82.9079352 Eh     change       -0.1455065E-01 Eh
 * total energy  :   -82.9287786 Eh     change       -0.2084348E-01 Eh
 * total energy  :   -82.9475499 Eh     change       -0.1877129E-01 Eh
 * total energy  :   -82.9506449 Eh     change       -0.3094940E-02 Eh
 * total energy  :   -82.9602111 Eh     change       -0.9566226E-02 Eh
 * total energy  :   -82.9608816 Eh     change       -0.6704741E-03 Eh
 * total energy  :   -82.9614331 Eh     change       -0.5514795E-03 Eh
 * total energy  :   -82.9721521 Eh     change       -0.8204106E-05 Eh
 * total energy  :   -82.9721616 Eh     change       -0.9530400E-05 Eh
 * total energy  :   -82.9721751 Eh     change       -0.1345001E-04 Eh
 * total energy  :   -82.9721907 Eh     change       -0.1563456E-04 Eh
 * total energy  :   -82.9722018 Eh     change       -0.1106185E-04 Eh
 * total energy  :   -82.9722091 Eh     change       -0.7305433E-05 Eh
 * total energy  :   -82.9722152 Eh     change       -0.6099772E-05 Eh
 * total energy  :   -82.9722206 Eh     change       -0.5456876E-05 Eh
 * total energy  :   -82.9722252 Eh     change       -0.4583257E-05 Eh
   *** GEOMETRY OPTIMIZATION CONVERGED AFTER 106 ITERATIONS ***

 final structure:
================
42
 xtb: 6.5.1 (579679a)
C           -1.30897585738700        2.37232796526307        0.70493960138199
O           -2.33113563481079        1.56348649397157        1.28839032715570
C           -3.20350574164459        0.90918119862364        0.47612666361351
C           -4.58554309214539        0.86057444534307        1.08064979692481
O           -3.06688286320773        1.04082333737939       -0.88495992395148
C           -2.68218702571709       -0.24314075654721       -0.41668914787613
N           -1.29114740230896       -0.46326208726496       -0.36816448697922
C           -0.82717376466584       -1.64722987051284       -0.29994364350613
C            0.66729652000051       -1.88836171598854       -0.20654774939265
C            1.14673743155203       -2.70266819664227       -1.41686505039395
C            1.00084951500665       -2.60015281061267        1.11256593738062
N            1.29578177081061       -0.57387922794926       -0.22564218107620
C            2.61740854449542       -0.35389332335792       -0.10064800173966
O            3.47782730204796       -1.21071643979531        0.00053764044066
C            2.90015961859383        1.10649330364045       -0.09291831415144
N            2.01651376755501        2.05768854618889       -0.15832280459376
N            2.69953840654826        3.23471158426658       -0.09582300520640
C            3.95733766500504        2.92675993453755        0.00518168435349
C            5.10930692225657        3.84898903981960        0.10894305308630
O            4.14656889972316        1.59875483290127        0.01210486359274
N           -1.62993691947507       -2.77231562153238       -0.31368251900649
C           -2.98084236405672       -2.76102717561303       -0.53144160642284
O           -3.63108168054073       -3.78085208065964       -0.57750201710721
C           -3.58228446257064       -1.37168368445920       -0.73581018724596
O           -4.73691813040872       -1.24230731118055       -1.07899056498896
H           -0.90928765213901        2.98417390669523        1.51318112673182
H           -0.51035797592522        1.75539704434833        0.28473689781298
H           -1.72468938681397        3.00986391488818       -0.08003556411629
H           -5.28722991231408        0.36087863219253        0.41933699246228
H           -4.91565638586947        1.88551662037726        1.24295917267645
H           -4.54464593278282        0.35077607701488        2.04065250498087
H            2.22404091056987       -2.84627538482736       -1.35267045300179
H            0.66279871792684       -3.67669017420598       -1.42855289615192
H            0.90997343819058       -2.17379193459621       -2.33885273329153
H            0.49471985226734       -3.56178178560603        1.15764846773721
H            2.07450943150838       -2.76761153466949        1.17595585555477
H            0.68347613144537       -1.98865972768543        1.95565401536343
H            0.67447853639742        0.22054816325763       -0.31854723555582
H            4.75539023838564        4.87682997573047        0.12140021935509
H            5.78035520080793        3.70408257723982       -0.73773819240639
H            5.66852868895403        3.64299144214660        1.02134327211841
H           -1.21411932527423       -3.68455119210559       -0.20156681455655

          :  Hamiltonian                  GFN1-xTB          :
         :: total energy             -82.972225212381 Eh    ::
         :: gradient norm              0.000307185511 Eh/a0 ::
         :: HOMO-LUMO gap              2.371411633081 eV    ::
         :: SCC energy               -83.736880317544 Eh    ::
         :: -> Gsolv                  -0.048790910735 Eh    ::
         :: repulsion energy           0.791498319151 Eh    ::

    * Orbital Energies and Occupations

         #    Occupation            Energy/Eh            Energy/eV
      -------------------------------------------------------------
         1        2.0000           -0.8654091             -23.5490
       ...           ...                  ...                  ...
        55        2.0000           -0.5115135             -13.9190
        56        2.0000           -0.5079375             -13.8217
        57        2.0000           -0.5070090             -13.7964
        58        2.0000           -0.5040716             -13.7165
        59        2.0000           -0.4869174             -13.2497
        60        2.0000           -0.4830291             -13.1439
        61        2.0000           -0.4741574             -12.9025
        62        2.0000           -0.4659433             -12.6790
        63        2.0000           -0.4626808             -12.5902
        64        2.0000           -0.4541659             -12.3585
        65        2.0000           -0.4525325             -12.3140
        66        2.0000           -0.4485696             -12.2062
        67        2.0000           -0.4389977             -11.9457 (HOMO)
        68                         -0.3518499              -9.5743 (LUMO)
        69                         -0.3117445              -8.4830
        70                         -0.2924394              -7.9577
        71                         -0.2586079              -7.0371
        72                         -0.2352592              -6.4017
        73                         -0.1998243              -5.4375
        74                         -0.1439033              -3.9158
        75                         -0.1429416              -3.8896
        76                         -0.1419277              -3.8620
        77                         -0.1299511              -3.5362
        78                         -0.1276639              -3.4739
       ...                                ...                  ...
       134                          0.7525577              20.4781
      -------------------------------------------------------------
                  HL-Gap            0.0871478 Eh            2.3714 eV

Wiberg/Mayer (AO) data.
largest (>0.10) Wiberg bond orders for each atom

     #   Z sym  total        # sym  WBO       # sym  WBO       # sym  WBO
 ---------------------------------------------------------------------------
     1   6 C    3.874 --    26 H    0.983    28 H    0.981    27 H    0.970
                             2 O    0.898
     2   8 O    2.096 --     3 C    1.027     1 C    0.898
     3   6 C    3.829 --     2 O    1.027     4 C    0.989     5 O    0.941
                             6 C    0.730
     4   6 C    3.982 --     3 C    0.989    31 H    0.979    29 H    0.977
                            30 H    0.969
     5   8 O    1.985 --     3 C    0.941     6 C    0.859
     6   6 C    3.846 --    24 C    1.036     7 N    1.033     5 O    0.859
                             3 C    0.730
     7   7 N    3.058 --     8 C    1.700     6 C    1.033
     8   6 C    3.926 --     7 N    1.700    21 N    1.093     9 C    0.981
     9   6 C    3.939 --     8 C    0.981    11 C    0.977    10 C    0.977
                            12 N    0.937
    10   6 C    3.986 --    34 H    0.985    33 H    0.983    32 H    0.978
                             9 C    0.977
    11   6 C    3.986 --    37 H    0.985    35 H    0.983     9 C    0.977
                            36 H    0.977
    12   7 N    3.353 --    13 C    1.260     9 C    0.937    38 H    0.876
                            14 O    0.180
    13   6 C    3.918 --    14 O    1.590    12 N    1.260    15 C    0.986
    14   8 O    1.910 --    13 C    1.590    12 N    0.180
    15   6 C    3.875 --    16 N    1.608    20 O    1.067    13 C    0.986
    16   7 N    3.031 --    15 C    1.608    17 N    1.199
    17   7 N    2.980 --    18 C    1.605    16 N    1.199
    18   6 C    3.870 --    17 N    1.605    20 O    1.082    19 C    1.032
    19   6 C    3.986 --    18 C    1.032    39 H    0.982    41 H    0.964
                            40 H    0.962
    20   8 O    2.332 --    18 C    1.082    15 C    1.067
    21   7 N    3.429 --    22 C    1.166     8 C    1.093    42 H    0.880
                            23 O    0.144
    22   6 C    3.891 --    23 O    1.671    21 N    1.166    24 C    0.921
    23   8 O    1.952 --    22 C    1.671    21 N    0.144
    24   6 C    3.888 --    25 O    1.738     6 C    1.036    22 C    0.921
    25   8 O    1.998 --    24 C    1.738
    26   1 H    1.011 --     1 C    0.983
    27   1 H    1.041 --     1 C    0.970
    28   1 H    1.007 --     1 C    0.981
    29   1 H    1.008 --     4 C    0.977
    30   1 H    0.997 --     4 C    0.969
    31   1 H    0.999 --     4 C    0.979
    32   1 H    1.006 --    10 C    0.978
    33   1 H    0.999 --    10 C    0.983
    34   1 H    1.001 --    10 C    0.985
    35   1 H    0.998 --    11 C    0.983
    36   1 H    1.007 --    11 C    0.977
    37   1 H    1.000 --    11 C    0.985
    38   1 H    0.968 --    12 N    0.876
    39   1 H    0.998 --    19 C    0.982
    40   1 H    0.996 --    19 C    0.962
    41   1 H    0.996 --    19 C    0.964
    42   1 H    0.927 --    21 N    0.880
 ---------------------------------------------------------------------------

           -------------------------------------------------
          | TOTAL ENERGY              -82.972225212381 Eh   |
          | GRADIENT NORM               0.000307185511 Eh/α |
          | HOMO-LUMO GAP               2.371411633081 eV   |
           -------------------------------------------------

 * finished run on 2023/06/21 at 17:25:02.555
