   * xtb version 6.5.1 (579679a) compiled by 'ehlert@majestix' on 2022-07-11
          program call               : /lustre/hpc/kemi/ree/PhD/git/ReactivityQM/dep/xtb-6.5.1/bin/xtb --gfn 1 /lustre/hpc/kemi/ree/PhD/git/ReactivityQM/calculations/R02deprot/reac01prodN19/conf19/R02deprot_reac01prodN19_conf19_gfn1.xyz --opt --vfukui --chrg 0 --uhf 0 --alpb DMSO

   ID    Z sym.   atoms
    1    6 C      1, 3, 5, 7-10, 12, 14, 17, 18, 21, 23, 24
    2    8 O      2, 4, 13, 19, 22, 25
    3    7 N      6, 11, 15, 16, 20
    4    1 H      26-42

      * Solvation model:               ALPB
        Solvent                        DMSO
        Solvent mass                       7.8130E+01 g/mol
          :  Hamiltonian                  GFN1-xTB          :
 * total energy  :   -82.9907138 Eh     change       -0.6409095E-11 Eh
 * total energy  :   -83.0033293 Eh     change       -0.1261547E-01 Eh
 * total energy  :   -83.0082265 Eh     change       -0.4897190E-02 Eh
 * total energy  :   -83.0092279 Eh     change       -0.1001405E-02 Eh
 * total energy  :   -83.0098978 Eh     change       -0.6699569E-03 Eh
 * total energy  :   -83.0101240 Eh     change       -0.2261878E-03 Eh
 * total energy  :   -83.0102540 Eh     change       -0.1299850E-03 Eh
 * total energy  :   -83.0103324 Eh     change       -0.7838513E-04 Eh
 * total energy  :   -83.0103911 Eh     change       -0.5876585E-04 Eh
 * total energy  :   -83.0104338 Eh     change       -0.4269302E-04 Eh
 * total energy  :   -83.0107434 Eh     change       -0.1351633E-04 Eh
 * total energy  :   -83.0107563 Eh     change       -0.1290205E-04 Eh
 * total energy  :   -83.0107750 Eh     change       -0.1878217E-04 Eh
 * total energy  :   -83.0107871 Eh     change       -0.1201495E-04 Eh
 * total energy  :   -83.0108077 Eh     change       -0.2062369E-04 Eh
 * total energy  :   -83.0108239 Eh     change       -0.1624808E-04 Eh
 * total energy  :   -83.0108354 Eh     change       -0.1150815E-04 Eh
 * total energy  :   -83.0108419 Eh     change       -0.6419324E-05 Eh
 * total energy  :   -83.0108467 Eh     change       -0.4840039E-05 Eh
   *** GEOMETRY OPTIMIZATION CONVERGED AFTER 39 ITERATIONS ***

 final structure:
================
42
 xtb: 6.5.1 (579679a)
C           -5.32741893720466       -2.48929410876037       -2.34782119339242
O           -4.20598590561290       -1.89969468961406       -1.68499396051423
C           -4.47778004925433       -1.07645597289644       -0.67185958713448
O           -5.60184749283227       -0.82805715702473       -0.30428760151800
C           -3.23252435427508       -0.50923005834390       -0.06764348120285
N           -2.06022056984657       -0.94090604700781       -0.57454988215141
C           -0.93639235113276       -0.46354753815565       -0.09039243197024
C            0.35346752354233       -0.99798436437067       -0.67922523439936
C            0.58278538863947       -2.41764576121727       -0.13567988568898
C            0.25883016330843       -1.00451666688195       -2.21011686725908
N            1.43469286981554       -0.11868029163257       -0.24306592147627
C            2.72362408336203       -0.27505838504298       -0.58924858409380
O            3.16771818007495       -1.15463635664101       -1.30903115218543
C            3.56681860213489        0.78763027468777        0.02229798930766
N            3.15488330091805        1.73543529801638        0.81034363119651
N            4.24845035500108        2.48394018811581        1.12961329838620
C            5.25767226947980        1.94443700238170        0.51598549566389
C            6.67036414130712        2.38419175469940        0.54010571684690
O            4.89148385163309        0.87031067495413       -0.19887122174887
N           -0.85369706179026        0.43528912288976        0.90446230665264
C           -1.98184487238401        0.87318133320915        1.42214280382809
O           -1.97772324133587        1.76908269804257        2.41386172514999
C           -0.70628861576890        2.20499818124681        2.89657759489847
C           -3.24545203486818        0.42254067571480        0.95984498389683
O           -4.37807234319408        0.89223648456714        1.50399306615797
H           -5.90997877622897       -1.71716336881230       -2.85646472721084
H           -4.92573028400962       -3.19571116173187       -3.07140418918495
H           -5.96432892250177       -3.00596724774623       -1.62568342482840
H            0.67305389094049       -2.38852136446561        0.94902552075449
H           -0.26402209922237       -3.04635317348026       -0.40630944544338
H            1.49290866192411       -2.83858958542986       -0.55959490536976
H            1.14047724495729       -1.47328144874869       -2.64303903696371
H           -0.62746061963324       -1.56252277002147       -2.50857389098993
H            0.17679585853157        0.01610869216953       -2.58089263086125
H            1.18209743305668        0.63242358668887        0.38780946769859
H            7.01993474884737        2.57287529733150       -0.47486097771314
H            7.29604341777773        1.60314511244300        0.97245527036679
H            6.76059292107822        3.29094270565912        1.13234165185225
H           -0.12180798199908        2.63955450759578        2.08133296717983
H           -0.90635319329711        2.95330213892164        3.66119511522400
H           -0.15836185548773        1.36119983363546        3.32420234060681
H           -4.18940334444452        1.53099295505936        2.20602128764079

          :  Hamiltonian                  GFN1-xTB          :
         :: total energy             -83.010846694909 Eh    ::
         :: gradient norm              0.000758767590 Eh/a0 ::
         :: HOMO-LUMO gap              2.936940377362 eV    ::
         :: SCC energy               -83.788044166641 Eh    ::
         :: -> Gsolv                  -0.050827031202 Eh    ::
         :: repulsion energy           0.802249242704 Eh    ::

    * Orbital Energies and Occupations

         #    Occupation            Energy/Eh            Energy/eV
      -------------------------------------------------------------
         1        2.0000           -0.8619450             -23.4547
       ...           ...                  ...                  ...
        55        2.0000           -0.5017287             -13.6527
        56        2.0000           -0.4985388             -13.5659
        57        2.0000           -0.4969728             -13.5233
        58        2.0000           -0.4812025             -13.0942
        59        2.0000           -0.4806730             -13.0798
        60        2.0000           -0.4775307             -12.9943
        61        2.0000           -0.4713235             -12.8254
        62        2.0000           -0.4601998             -12.5227
        63        2.0000           -0.4580960             -12.4654
        64        2.0000           -0.4493126             -12.2264
        65        2.0000           -0.4448913             -12.1061
        66        2.0000           -0.4349975             -11.8369
        67        2.0000           -0.4320560             -11.7568 (HOMO)
        68                         -0.3241254              -8.8199 (LUMO)
        69                         -0.3070672              -8.3557
        70                         -0.2844514              -7.7403
        71                         -0.2554283              -6.9506
        72                         -0.2394232              -6.5150
        73                         -0.1951782              -5.3111
        74                         -0.1565237              -4.2592
        75                         -0.1427787              -3.8852
        76                         -0.1416764              -3.8552
        77                         -0.1387095              -3.7745
        78                         -0.1209635              -3.2916
       ...                                ...                  ...
       134                          0.7298420              19.8600
      -------------------------------------------------------------
                  HL-Gap            0.1079306 Eh            2.9369 eV

Wiberg/Mayer (AO) data.
largest (>0.10) Wiberg bond orders for each atom

     #   Z sym  total        # sym  WBO       # sym  WBO       # sym  WBO
 ---------------------------------------------------------------------------
     1   6 C    3.872 --    27 H    0.986    28 H    0.979    26 H    0.979
                             2 O    0.898
     2   8 O    2.203 --     3 C    1.114     1 C    0.898     4 O    0.136
     3   6 C    3.849 --     4 O    1.666     2 O    1.114     5 C    0.991
     4   8 O    1.929 --     3 C    1.666     2 O    0.136
     5   6 C    3.969 --    24 C    1.399     6 N    1.296     3 C    0.991
     6   7 N    3.030 --     7 C    1.466     5 C    1.296
     7   6 C    3.944 --     6 N    1.466    20 N    1.308     8 C    0.984
     8   6 C    3.936 --    10 C    0.985     7 C    0.984     9 C    0.974
                            11 N    0.929
     9   6 C    3.990 --    29 H    0.986    30 H    0.985    31 H    0.981
                             8 C    0.974
    10   6 C    3.990 --    34 H    0.986     8 C    0.985    33 H    0.984
                            32 H    0.982
    11   7 N    3.361 --    12 C    1.271     8 C    0.929    35 H    0.882
                            13 O    0.182
    12   6 C    3.920 --    13 O    1.582    11 N    1.271    14 C    0.986
    13   8 O    1.901 --    12 C    1.582    11 N    0.182
    14   6 C    3.873 --    15 N    1.612    19 O    1.064    12 C    0.986
    15   7 N    3.014 --    14 C    1.612    16 N    1.198
    16   7 N    2.980 --    17 C    1.607    15 N    1.198
    17   6 C    3.871 --    16 N    1.607    19 O    1.082    18 C    1.031
    18   6 C    3.987 --    17 C    1.031    38 H    0.983    36 H    0.965
                            37 H    0.963
    19   8 O    2.329 --    17 C    1.082    14 C    1.064
    20   7 N    3.045 --    21 C    1.407     7 C    1.308
    21   6 C    3.907 --    20 N    1.407    24 C    1.210    22 O    1.084
    22   8 O    2.184 --    21 C    1.084    23 C    0.896
    23   6 C    3.870 --    40 H    0.984    41 H    0.980    39 H    0.980
                            22 O    0.896
    24   6 C    3.924 --     5 C    1.399    21 C    1.210    25 O    1.091
    25   8 O    2.069 --    24 C    1.091    42 H    0.816
    26   1 H    1.006 --     1 C    0.979
    27   1 H    1.011 --     1 C    0.986
    28   1 H    1.008 --     1 C    0.979
    29   1 H    1.003 --     9 C    0.986
    30   1 H    1.005 --     9 C    0.985
    31   1 H    1.008 --     9 C    0.981
    32   1 H    1.010 --    10 C    0.982
    33   1 H    1.013 --    10 C    0.984
    34   1 H    1.003 --    10 C    0.986
    35   1 H    0.971 --    11 N    0.882
    36   1 H    0.997 --    18 C    0.965
    37   1 H    0.997 --    18 C    0.963
    38   1 H    0.999 --    18 C    0.983
    39   1 H    1.010 --    23 C    0.980
    40   1 H    1.009 --    23 C    0.984
    41   1 H    1.008 --    23 C    0.980
    42   1 H    0.844 --    25 O    0.816
 ---------------------------------------------------------------------------

           -------------------------------------------------
          | TOTAL ENERGY              -83.010846694909 Eh   |
          | GRADIENT NORM               0.000758767590 Eh/α |
          | HOMO-LUMO GAP               2.936940377362 eV   |
           -------------------------------------------------

 * finished run on 2023/06/20 at 18:31:03.599
