   * xtb version 6.5.1 (579679a) compiled by 'ehlert@majestix' on 2022-07-11
          program call               : /lustre/hpc/kemi/ree/PhD/git/ReactivityQM/dep/xtb-6.5.1/bin/xtb --gfn 1 /lustre/hpc/kemi/ree/PhD/git/ReactivityQM/calculations/RaltegravirCLI/reac02prodN08/conf01/RaltegravirCLI_reac02prodN08_conf01_gfn1.xyz --opt --vfukui --chrg 1 --uhf 0 --alpb DMSO

   ID    Z sym.   atoms
    1    6 C      1, 3-6, 9, 10, 13-18, 20-22, 24
    2    7 N      2, 7, 8, 12
    3    8 O      11, 23, 25
    4    9 F      19
    5    1 H      26-47

      * Solvation model:               ALPB
        Solvent                        DMSO
        Solvent mass                       7.8130E+01 g/mol
          :  Hamiltonian                  GFN1-xTB          :
 * total energy  :   -79.4696853 Eh     change       -0.2935252E-09 Eh
 * total energy  :   -79.4791108 Eh     change       -0.9425455E-02 Eh
 * total energy  :   -79.4818896 Eh     change       -0.2778827E-02 Eh
 * total energy  :   -79.4822506 Eh     change       -0.3609976E-03 Eh
 * total energy  :   -79.4825229 Eh     change       -0.2722857E-03 Eh
 * total energy  :   -79.4826278 Eh     change       -0.1049221E-03 Eh
 * total energy  :   -79.4827572 Eh     change       -0.1294040E-03 Eh
 * total energy  :   -79.4828951 Eh     change       -0.1378571E-03 Eh
 * total energy  :   -79.4830341 Eh     change       -0.1390473E-03 Eh
 * total energy  :   -79.4831865 Eh     change       -0.1523744E-03 Eh
 * total energy  :   -79.4841234 Eh     change       -0.2881649E-04 Eh
 * total energy  :   -79.4841379 Eh     change       -0.1452100E-04 Eh
 * total energy  :   -79.4841511 Eh     change       -0.1317185E-04 Eh
 * total energy  :   -79.4841679 Eh     change       -0.1684498E-04 Eh
 * total energy  :   -79.4841771 Eh     change       -0.9215011E-05 Eh
 * total energy  :   -79.4841859 Eh     change       -0.8776532E-05 Eh
 * total energy  :   -79.4841925 Eh     change       -0.6605532E-05 Eh
 * total energy  :   -79.4842002 Eh     change       -0.7714976E-05 Eh
 * total energy  :   -79.4842033 Eh     change       -0.3043863E-05 Eh
   *** GEOMETRY OPTIMIZATION CONVERGED AFTER 48 ITERATIONS ***

 final structure:
================
47
 xtb: 6.5.1 (579679a)
C           -4.27680030103292       -2.06543069950388       -0.86442402345328
N           -3.01040746545425       -1.34050347532887       -0.71525510935829
C           -2.91603877440336       -0.07466220766434       -0.19247676418147
C           -4.13493096207045        0.70950077156166        0.27596588293934
C           -4.79940625011259        1.36876646071416       -0.94230064230027
C           -3.68063080909133        1.80169957161827        1.26045898507653
N           -5.08883656473809       -0.17330019315967        0.93432899792043
N           -1.78071469899157        0.54546236359098       -0.10470559614673
C           -0.60865472825507       -0.03393754175367       -0.49609716718897
C            0.58934556465795        0.82060904138472       -0.28430039571419
O            0.56378521432329        1.86517763726984        0.33846432650762
N            1.75297432680308        0.36161160320316       -0.86177925613749
C            2.97484748869049        1.03204243902864       -0.64590041765444
C            3.79682338908518        0.37503149908478        0.60550932125376
C            2.85852924555574        0.42568768384905        1.82735431222192
C            4.96744228596774        1.24367537871170        0.77501750395596
C            6.22617151361995        0.84981007688460        0.42478282931001
C            6.41424539597615       -0.45490443299686       -0.04772415126090
F            7.62268644827104       -0.82912244641423       -0.37971639717156
C            5.37224418188018       -1.38346604976542       -0.16259806207295
C            4.11186172300848       -0.99564585200453        0.18636151337107
C           -0.62595883559163       -1.31374387435274       -0.97228966642744
O            0.46702809217192       -2.00823944140977       -1.33886237881958
C           -1.88178896346999       -2.03437264454588       -1.10159134096228
O           -1.91241669847226       -3.18131756472325       -1.53844974151596
H           -5.05419570567320       -1.39284174778153       -1.21183858542957
H           -4.56820725568411       -2.49066878058121        0.09437647637932
H           -4.12453901132598       -2.86379093826125       -1.59027498369412
H           -5.17027648207201        0.62036447427914       -1.64039377544520
H           -4.07879144598454        2.00290766735409       -1.45740030152169
H           -5.63686936659696        1.98185274019733       -0.61211021788838
H           -4.55242510945567        2.33948955680187        1.62903184145056
H           -3.00888200166723        2.50320005734718        0.76741923322375
H           -3.15982857098252        1.35096405441074        2.10384568801785
H           -5.94658174183450        0.33051235075054        1.11225817965578
H           -4.71470034397007       -0.47721563959585        1.82329213428639
H            1.76933693621351       -0.51998545103128       -1.34989852102694
H            3.61557322151597        0.95935023999976       -1.52179069571088
H            2.78346482128578        2.07190711729011       -0.37526235064579
H            1.99704539835983       -0.21511431285618        1.65288605338187
H            2.52178516020218        1.44639239263405        1.99895269510788
H            3.39790575234812        0.06866882981673        2.70224558852488
H            4.79678774476841        2.24176205396180        1.16242673941843
H            7.07993876750691        1.50879514903631        0.52480922838607
H            5.58668690581810       -2.38806552924471       -0.50559233664137
H            3.28570464755914       -1.69397383440521        0.11680292362904
H            0.17966586133642       -2.89493755341098       -1.64041757564195

          :  Hamiltonian                  GFN1-xTB          :
         :: total energy             -79.484203270403 Eh    ::
         :: gradient norm              0.000443347406 Eh/a0 ::
         :: HOMO-LUMO gap              0.224146354958 eV    ::
         :: SCC energy               -80.368143612140 Eh    ::
         :: -> Gsolv                  -0.103144477723 Eh    ::
         :: repulsion energy           0.915043441256 Eh    ::

    * Orbital Energies and Occupations

         #    Occupation            Energy/Eh            Energy/eV
      -------------------------------------------------------------
         1        2.0000           -0.9366780             -25.4883
       ...           ...                  ...                  ...
        55        2.0000           -0.5187135             -14.1149
        56        2.0000           -0.5152322             -14.0202
        57        2.0000           -0.5138856             -13.9835
        58        2.0000           -0.5067892             -13.7904
        59        2.0000           -0.4998887             -13.6027
        60        2.0000           -0.4928428             -13.4109
        61        2.0000           -0.4878651             -13.2755
        62        2.0000           -0.4773854             -12.9903
        63        2.0000           -0.4718901             -12.8408
        64        2.0000           -0.4623493             -12.5812
        65        2.0000           -0.4494887             -12.2312
        66        2.0000           -0.4337095             -11.8018
        67        1.9741           -0.4193045             -11.4099 (HOMO)
        68        0.0259           -0.4110673             -11.1857 (LUMO)
        69                         -0.3297210              -8.9722
        70                         -0.3287416              -8.9455
        71                         -0.2859299              -7.7805
        72                         -0.2506686              -6.8210
        73                         -0.2424188              -6.5966
        74                         -0.1642422              -4.4693
        75                         -0.1532843              -4.1711
        76                         -0.1467629              -3.9936
        77                         -0.1379983              -3.7551
        78                         -0.1364190              -3.7122
       ...                                ...                  ...
       144                          0.7067884              19.2327
      -------------------------------------------------------------
                  HL-Gap            0.0082372 Eh            0.2241 eV

Wiberg/Mayer (AO) data.
largest (>0.10) Wiberg bond orders for each atom

     #   Z sym  total        # sym  WBO       # sym  WBO       # sym  WBO
 ---------------------------------------------------------------------------
     1   6 C    3.916 --    26 H    0.978    28 H    0.976    27 H    0.974
                             2 N    0.923
     2   7 N    3.520 --     3 C    1.174    24 C    1.142     1 C    0.923
                            25 O    0.135
     3   6 C    3.916 --     8 N    1.560     2 N    1.174     4 C    0.977
     4   6 C    3.962 --     7 N    0.985     6 C    0.985     5 C    0.980
                             3 C    0.977
     5   6 C    3.992 --    30 H    0.985    31 H    0.982     4 C    0.980
                            29 H    0.980
     6   6 C    3.989 --    32 H    0.985     4 C    0.985    34 H    0.985
                            33 H    0.982
     7   7 N    2.966 --     4 C    0.985    36 H    0.938    35 H    0.935
     8   7 N    3.029 --     3 C    1.560     9 C    1.196
     9   6 C    3.964 --    22 C    1.491     8 N    1.196    10 C    1.014
    10   6 C    3.887 --    11 O    1.628    12 N    1.147     9 C    1.014
    11   8 O    1.921 --    10 C    1.628    12 N    0.131
    12   7 N    3.372 --    10 C    1.147    13 C    1.050    37 H    0.875
                            11 O    0.131
    13   6 C    3.928 --    12 N    1.050    38 H    0.976    39 H    0.963
                            14 C    0.757
    14   6 C    3.980 --    21 C    1.104    16 C    1.104    15 C    0.939
                            13 C    0.757
    15   6 C    3.970 --    42 H    0.982    41 H    0.980    40 H    0.980
                            14 C    0.939
    16   6 C    3.938 --    17 C    1.591    14 C    1.104    43 H    0.964
    17   6 C    3.983 --    16 C    1.591    18 C    1.299    44 H    0.957
    18   6 C    3.818 --    17 C    1.299    20 C    1.298    19 F    1.023
    19   9 F    1.175 --    18 C    1.023
    20   6 C    3.984 --    21 C    1.593    18 C    1.298    45 H    0.957
    21   6 C    3.943 --    20 C    1.593    14 C    1.104    46 H    0.963
    22   6 C    3.909 --     9 C    1.491    23 O    1.082    24 C    1.080
    23   8 O    2.074 --    22 C    1.082    47 H    0.790
    24   6 C    3.918 --    25 O    1.548     2 N    1.142    22 C    1.080
    25   8 O    1.896 --    24 C    1.548     2 N    0.135
    26   1 H    1.020 --     1 C    0.978
    27   1 H    1.015 --     1 C    0.974
    28   1 H    1.007 --     1 C    0.976
    29   1 H    1.004 --     5 C    0.980
    30   1 H    1.003 --     5 C    0.985
    31   1 H    0.999 --     5 C    0.982
    32   1 H    1.003 --     6 C    0.985
    33   1 H    1.013 --     6 C    0.982
    34   1 H    1.006 --     6 C    0.985
    35   1 H    0.950 --     7 N    0.935
    36   1 H    0.954 --     7 N    0.938
    37   1 H    0.934 --    12 N    0.875
    38   1 H    0.999 --    13 C    0.976
    39   1 H    1.003 --    13 C    0.963
    40   1 H    0.999 --    15 C    0.980
    41   1 H    1.002 --    15 C    0.980
    42   1 H    0.997 --    15 C    0.982
    43   1 H    0.990 --    16 C    0.964
    44   1 H    0.986 --    17 C    0.957
    45   1 H    0.986 --    20 C    0.957
    46   1 H    0.994 --    21 C    0.963
    47   1 H    0.836 --    23 O    0.790
 ---------------------------------------------------------------------------

           -------------------------------------------------
          | TOTAL ENERGY              -79.484203270403 Eh   |
          | GRADIENT NORM               0.000443347406 Eh/α |
          | HOMO-LUMO GAP               0.224146354958 eV   |
           -------------------------------------------------

 * finished run on 2023/06/20 at 15:27:17.575
