   * xtb version 6.5.1 (579679a) compiled by 'ehlert@majestix' on 2022-07-11
          program call               : /lustre/hpc/kemi/ree/PhD/git/ReactivityQM/dep/xtb-6.5.1/bin/xtb --gfn 1 /lustre/hpc/kemi/ree/PhD/git/ReactivityQM/calculations/R03/reac02prodE14/conf06/R03_reac02prodE14_conf06_gfn1.xyz --opt --vfukui --chrg -1 --uhf 0 --alpb DMSO

   ID    Z sym.   atoms
    1    6 C      1, 3, 5, 7-10, 12, 14, 17, 18, 21, 22, 24, 25
    2    8 O      2, 4, 13, 19, 23, 26
    3    7 N      6, 11, 15, 16, 20
    4    1 H      27-46

      * Solvation model:               ALPB
        Solvent                        DMSO
        Solvent mass                       7.8130E+01 g/mol
          :  Hamiltonian                  GFN1-xTB          :
 * total energy  :   -87.0444882 Eh     change       -0.2628440E-09 Eh
 * total energy  :   -87.0594919 Eh     change       -0.1500364E-01 Eh
 * total energy  :   -87.0648421 Eh     change       -0.5350286E-02 Eh
 * total energy  :   -87.0658469 Eh     change       -0.1004745E-02 Eh
 * total energy  :   -87.0665368 Eh     change       -0.6898981E-03 Eh
 * total energy  :   -87.0668386 Eh     change       -0.3017811E-03 Eh
 * total energy  :   -87.0670738 Eh     change       -0.2352817E-03 Eh
 * total energy  :   -87.0672313 Eh     change       -0.1574413E-03 Eh
 * total energy  :   -87.0673228 Eh     change       -0.9155495E-04 Eh
 * total energy  :   -87.0673807 Eh     change       -0.5781894E-04 Eh
 * total energy  :   -87.0712927 Eh     change       -0.9472520E-05 Eh
 * total energy  :   -87.0713047 Eh     change       -0.1193490E-04 Eh
 * total energy  :   -87.0713143 Eh     change       -0.9645165E-05 Eh
 * total energy  :   -87.0713248 Eh     change       -0.1044003E-04 Eh
 * total energy  :   -87.0713299 Eh     change       -0.5165154E-05 Eh
 * total energy  :   -87.0713363 Eh     change       -0.6340149E-05 Eh
 * total energy  :   -87.0713440 Eh     change       -0.7751386E-05 Eh
 * total energy  :   -87.0713496 Eh     change       -0.5623149E-05 Eh
 * total energy  :   -87.0713529 Eh     change       -0.3268411E-05 Eh
   *** GEOMETRY OPTIMIZATION CONVERGED AFTER 90 ITERATIONS ***

 final structure:
================
46
 xtb: 6.5.1 (579679a)
C           -3.68060446202645        3.08383059106877       -2.47745898232765
O           -2.93673688363879        2.07578697310829       -1.81719816669351
C           -3.61661955553522        1.41341466696512       -0.79809515782833
O           -4.77273750910119        1.76630940378392       -0.51838256182396
C           -2.84870504291637        0.41012895168716       -0.17922119259917
N           -1.59659065586138        0.14059194231759       -0.66553704457271
C           -0.75287790333325       -0.57304561897787       -0.00875881441050
C            0.50148624211006       -1.04880125142280       -0.71977556892882
C            0.57471388235454       -2.58258703795301       -0.69804479063313
C            0.47066819700313       -0.55704433256871       -2.17443000070807
N            1.68568708936634       -0.45269530855590       -0.06636998392006
C            2.95944953312086       -0.73241724052340       -0.39162972407647
O            3.33611387260447       -1.59590244011655       -1.16685756551053
C            3.89745990798026        0.15608639091571        0.35271978725438
N            3.56116947797037        1.09488387299026        1.18517772289526
N            4.71981201099582        1.65925862911219        1.63146055404410
C            5.68805708280242        1.02882617867782        1.04097113829916
C            7.14089235021490        1.26579368176181        1.18787912361618
O            5.23405724226541        0.06892287735798        0.22073800945725
N           -1.00941025850803       -0.94793644380736        1.34173840446376
C            0.08082495950871       -1.07935346119158        2.30774587674041
C           -2.22716436614987       -0.66512127629746        1.88934996742356
O           -2.37588731386909       -0.51050829519993        3.10462020673643
C           -3.36872065290992       -0.53496581933892        0.88247411644817
C           -4.64243206115227       -0.08859625884680        1.60131291983862
O           -3.56292257643107       -1.85853417379586        0.33477409055517
H           -3.03117734786836        3.51641043000431       -3.23959457107944
H           -3.99331656409745        3.86821128921692       -1.77790158422482
H           -4.57463400641506        2.66675030733486       -2.95600493340156
H           -0.37960607818353       -2.98069927143472       -1.04182550567108
H            0.76759023867832       -2.95800863792667        0.30467182846746
H            1.36139498970562       -2.94057986247411       -1.35924896859974
H            1.37296314684998       -0.87415401052407       -2.69466733961294
H           -0.39840864719036       -0.97142019796999       -2.68317078924260
H            0.40499137002894        0.52995564309870       -2.20026480739547
H            1.53115108340446        0.36856000565199        0.50190506264152
H            7.31022821422187        2.05827913796266        1.91242530556333
H            7.57147941703030        1.55128436783124        0.22829524211611
H            7.63570517136368        0.35405032979228        1.52134142173622
H           -0.29970549922332       -1.60271533169833        3.18559013299485
H            0.44140013409671       -0.09393290462606        2.61420910570314
H            0.90366330125345       -1.64839449524572        1.88624940403833
H           -4.51756785887657        0.91578562700575        2.00216500838227
H           -5.48597289235480       -0.09460380481458        0.91512397269690
H           -4.84996799599831       -0.77584021290001        2.42195662864330
H           -4.22919378329451       -1.82526460944680       -0.35976497750802

          :  Hamiltonian                  GFN1-xTB          :
         :: total energy             -87.071352899199 Eh    ::
         :: gradient norm              0.000433413206 Eh/a0 ::
         :: HOMO-LUMO gap              0.818834204677 eV    ::
         :: SCC energy               -87.869231860565 Eh    ::
         :: -> Gsolv                  -0.113735365121 Eh    ::
         :: repulsion energy           0.827302261253 Eh    ::

    * Orbital Energies and Occupations

         #    Occupation            Energy/Eh            Energy/eV
      -------------------------------------------------------------
         1        2.0000           -0.8598828             -23.3986
       ...           ...                  ...                  ...
        59        2.0000           -0.4709153             -12.8143
        60        2.0000           -0.4691879             -12.7673
        61        2.0000           -0.4572947             -12.4436
        62        2.0000           -0.4548536             -12.3772
        63        2.0000           -0.4476734             -12.1818
        64        2.0000           -0.4470276             -12.1642
        65        2.0000           -0.4458092             -12.1311
        66        2.0000           -0.4360348             -11.8651
        67        2.0000           -0.4223669             -11.4932
        68        2.0000           -0.4149087             -11.2902
        69        2.0000           -0.4057805             -11.0418
        70        2.0000           -0.3906432             -10.6299
        71        2.0000           -0.3339882              -9.0883 (HOMO)
        72        0.0000           -0.3038966              -8.2694 (LUMO)
        73                         -0.2536994              -6.9035
        74                         -0.2453337              -6.6759
        75                         -0.2078835              -5.6568
        76                         -0.1924930              -5.2380
        77                         -0.1482181              -4.0332
        78                         -0.1412867              -3.8446
        79                         -0.1227397              -3.3399
        80                         -0.1140403              -3.1032
        81                         -0.1134811              -3.0880
        82                         -0.1057676              -2.8781
       ...                                ...                  ...
       144                          0.7321963              19.9241
      -------------------------------------------------------------
                  HL-Gap            0.0300916 Eh            0.8188 eV

Wiberg/Mayer (AO) data.
largest (>0.10) Wiberg bond orders for each atom

     #   Z sym  total        # sym  WBO       # sym  WBO       # sym  WBO
 ---------------------------------------------------------------------------
     1   6 C    3.911 --    27 H    0.987    29 H    0.981    28 H    0.981
                             2 O    0.941
     2   8 O    2.091 --     3 C    0.968     1 C    0.941
     3   6 C    3.868 --     4 O    1.477     5 C    1.292     2 O    0.968
     4   8 O    1.813 --     3 C    1.477     5 C    0.104
     5   6 C    3.863 --     3 C    1.292     6 N    1.199    24 C    0.967
                             4 O    0.104     7 C    0.103
     6   7 N    3.070 --     7 C    1.625     5 C    1.199
     7   6 C    3.908 --     6 N    1.625    20 N    0.988     8 C    0.980
                             5 C    0.103
     8   6 C    3.925 --    10 C    0.991     9 C    0.989     7 C    0.980
                            11 N    0.899
     9   6 C    3.991 --     8 C    0.989    30 H    0.985    32 H    0.981
                            31 H    0.980
    10   6 C    3.994 --     8 C    0.991    33 H    0.985    34 H    0.985
                            35 H    0.985
    11   7 N    3.361 --    12 C    1.273    36 H    0.900     8 C    0.899
                            13 O    0.182
    12   6 C    3.921 --    13 O    1.583    11 N    1.273    14 C    0.982
    13   8 O    1.901 --    12 C    1.583    11 N    0.182
    14   6 C    3.871 --    15 N    1.615    19 O    1.064    12 C    0.982
    15   7 N    3.015 --    14 C    1.615    16 N    1.194
    16   7 N    2.980 --    17 C    1.611    15 N    1.194
    17   6 C    3.872 --    16 N    1.611    19 O    1.081    18 C    1.031
    18   6 C    3.987 --    17 C    1.031    37 H    0.983    39 H    0.965
                            38 H    0.963
    19   8 O    2.327 --    17 C    1.081    14 C    1.064
    20   7 N    3.401 --    22 C    1.211     7 C    0.988    21 C    0.947
                            23 O    0.137
    21   6 C    3.954 --    42 H    0.982    40 H    0.981    41 H    0.980
                            20 N    0.947
    22   6 C    3.893 --    23 O    1.550    20 N    1.211    24 C    0.938
    23   8 O    1.858 --    22 C    1.550    20 N    0.137
    24   6 C    3.908 --    25 C    0.996     5 C    0.967    22 C    0.938
                            26 O    0.906
    25   6 C    3.996 --    24 C    0.996    45 H    0.985    43 H    0.985
                            44 H    0.984
    26   8 O    1.870 --    24 C    0.906    46 H    0.868
    27   1 H    1.018 --     1 C    0.987
    28   1 H    1.018 --     1 C    0.981
    29   1 H    1.017 --     1 C    0.981
    30   1 H    1.007 --     9 C    0.985
    31   1 H    1.005 --     9 C    0.980
    32   1 H    1.014 --     9 C    0.981
    33   1 H    1.008 --    10 C    0.985
    34   1 H    1.013 --    10 C    0.985
    35   1 H    1.017 --    10 C    0.985
    36   1 H    0.965 --    11 N    0.900
    37   1 H    0.999 --    18 C    0.983
    38   1 H    0.997 --    18 C    0.963
    39   1 H    0.997 --    18 C    0.965
    40   1 H    1.015 --    21 C    0.981
    41   1 H    1.006 --    21 C    0.980
    42   1 H    1.017 --    21 C    0.982
    43   1 H    1.016 --    25 C    0.985
    44   1 H    1.022 --    25 C    0.984
    45   1 H    1.015 --    25 C    0.985
    46   1 H    0.891 --    26 O    0.868
 ---------------------------------------------------------------------------

           -------------------------------------------------
          | TOTAL ENERGY              -87.071352899199 Eh   |
          | GRADIENT NORM               0.000433413206 Eh/α |
          | HOMO-LUMO GAP               0.818834204677 eV   |
           -------------------------------------------------

 * finished run on 2023/06/20 at 15:34:42.195
