   * xtb version 6.5.1 (579679a) compiled by 'ehlert@majestix' on 2022-07-11
          program call               : /lustre/hpc/kemi/ree/PhD/git/ReactivityQM/dep/xtb-6.5.1/bin/xtb --gfn 1 /lustre/hpc/kemi/ree/PhD/git/ReactivityQM/calculations/R02deprot/reac01prodE04/conf05/R02deprot_reac01prodE04_conf05_gfn1.xyz --opt --vfukui --chrg -2 --uhf 0 --alpb DMSO

   ID    Z sym.   atoms
    1    6 C      1, 3, 5, 6, 8-11, 13, 15, 18, 19, 22, 24
    2    8 O      2, 4, 14, 20, 23, 25
    3    7 N      7, 12, 16, 17, 21
    4    1 H      26-42

      * Solvation model:               ALPB
        Solvent                        DMSO
        Solvent mass                       7.8130E+01 g/mol
          :  Hamiltonian                  GFN1-xTB          :
 * total energy  :   -83.5717054 Eh     change       -0.1204938E-09 Eh
 * total energy  :   -83.5892768 Eh     change       -0.1757142E-01 Eh
 * total energy  :   -83.5959596 Eh     change       -0.6682850E-02 Eh
 * total energy  :   -83.5973668 Eh     change       -0.1407177E-02 Eh
 * total energy  :   -83.5981166 Eh     change       -0.7498132E-03 Eh
 * total energy  :   -83.5984190 Eh     change       -0.3023412E-03 Eh
 * total energy  :   -83.5986123 Eh     change       -0.1933004E-03 Eh
 * total energy  :   -83.5987933 Eh     change       -0.1810219E-03 Eh
 * total energy  :   -83.5989839 Eh     change       -0.1906515E-03 Eh
 * total energy  :   -83.5992241 Eh     change       -0.2401077E-03 Eh
 * total energy  :   -83.6017554 Eh     change       -0.9899526E-05 Eh
 * total energy  :   -83.6017685 Eh     change       -0.1314111E-04 Eh
 * total energy  :   -83.6017742 Eh     change       -0.5643995E-05 Eh
 * total energy  :   -83.6017823 Eh     change       -0.8107167E-05 Eh
 * total energy  :   -83.6017925 Eh     change       -0.1025574E-04 Eh
 * total energy  :   -83.6018024 Eh     change       -0.9834693E-05 Eh
 * total energy  :   -83.6018107 Eh     change       -0.8379433E-05 Eh
 * total energy  :   -83.6018190 Eh     change       -0.8226202E-05 Eh
 * total energy  :   -83.6018221 Eh     change       -0.3103741E-05 Eh
   *** GEOMETRY OPTIMIZATION CONVERGED AFTER 44 ITERATIONS ***

 final structure:
================
42
 xtb: 6.5.1 (579679a)
C           -4.28259482354049        2.93111676600744        0.88655569273364
O           -3.72496790412180        1.65213417593186        1.15407314728498
C           -2.68750369558823        1.26942427890238        0.35765701143033
O           -2.24406891675608        2.02059028290086       -0.49845795162218
C           -2.31792147458783       -0.21193269532041        0.54296129409997
C           -2.44836705373917       -0.63887863616428        2.01778171932762
N           -0.96065560144872       -0.44121683255333        0.08622701793128
C           -0.80125979173209       -0.92359659444659       -1.12415486034591
C            0.65782807826668       -1.07561975146815       -1.59267048555682
C            0.97202234778630       -2.57283384860518       -1.73868060572567
C            0.83272617893977       -0.36165422855354       -2.94071888341084
N            1.52036963976683       -0.47416517134889       -0.58236567668501
C            2.86574245856074       -0.41292549033013       -0.62902371092915
O            3.56509069131027       -0.83548996013418       -1.56100370653305
C            3.41747035977050        0.23428098015505        0.56566974915250
N            2.72978166795705        0.71365158100591        1.58057496476873
N            3.63863856364778        1.23367413710651        2.46012374114277
C            4.81026904688257        1.04745574116709        1.94396146392785
C            6.11726047600107        1.43951816575671        2.52244305556222
O            4.75722221351871        0.42391871154406        0.74953120342350
N           -1.68481642251271       -1.34174578195545       -2.01824761648483
C           -3.02801858677447       -1.35954155098013       -1.62273445885641
O           -3.92476824014111       -1.86865316962693       -2.37136771827316
C           -3.32637829715941       -0.85425233890173       -0.35767450238712
O           -4.66259373908334       -0.90633782332596        0.09571620416412
H           -5.07992670588873        3.09189337873526        1.61089290088030
H           -4.69129678748164        2.97551744759464       -0.12849468886558
H           -3.52493896748347        3.71439729254038        0.99522488063326
H           -1.81191785568266       -0.01857000078240        2.64868354298854
H           -3.48048866236144       -0.54748732570852        2.35297097866182
H           -2.13399931394845       -1.67752381616317        2.11681803223134
H            0.23712446919687       -3.02173326281065       -2.40792012878042
H            1.96968303076836       -2.72614917421011       -2.14904223040119
H            0.91083055309981       -3.06479532282352       -0.76766077277560
H            0.70743739422432        0.71456237046714       -2.81574039427275
H            0.07101707080126       -0.72693025636244       -3.63108140814527
H            1.81841841483375       -0.55535955452350       -3.36256913840517
H            1.03199211778786       -0.13873017266264        0.24969278367144
H            5.95791523854943        1.93044354083615        3.47914559321675
H            6.64003524132044        2.11931154524986        1.84997429643973
H            6.74543196798263        0.56090537791111        2.66749822034328
H           -5.15782338094742       -1.31667401405137       -0.63456755556184

          :  Hamiltonian                  GFN1-xTB          :
         :: total energy             -83.601822067533 Eh    ::
         :: gradient norm              0.000329180127 Eh/a0 ::
         :: HOMO-LUMO gap              0.091816925770 eV    ::
         :: SCC energy               -84.326599727359 Eh    ::
         :: -> Gsolv                  -0.278353401719 Eh    ::
         :: repulsion energy           0.751028514473 Eh    ::

    * Orbital Energies and Occupations

         #    Occupation            Energy/Eh            Energy/eV
      -------------------------------------------------------------
         1        2.0000           -0.8250632             -22.4511
       ...           ...                  ...                  ...
        56        2.0000           -0.4373301             -11.9004
        57        2.0000           -0.4330619             -11.7842
        58        2.0000           -0.4236070             -11.5269
        59        2.0000           -0.4233049             -11.5187
        60        2.0000           -0.4186688             -11.3926
        61        2.0000           -0.4091781             -11.1343
        62        2.0000           -0.4034054             -10.9772
        63        2.0000           -0.3933463             -10.7035
        64        2.0000           -0.3824610             -10.4073
        65        2.0000           -0.3509273              -9.5492
        66        2.0000           -0.3238105              -8.8113
        67        2.0000           -0.3225580              -8.7772
        68        1.7104           -0.2770533              -7.5390 (HOMO)
        69        0.2896           -0.2736791              -7.4472 (LUMO)
        70                         -0.2272410              -6.1835
        71                         -0.2120420              -5.7700
        72                         -0.1696805              -4.6172
        73                         -0.1549541              -4.2165
        74                         -0.1315157              -3.5787
        75                         -0.1202050              -3.2709
        76                         -0.0936688              -2.5489
        77                         -0.0902382              -2.4555
        78                         -0.0871483              -2.3714
        79                         -0.0814498              -2.2164
       ...                                ...                  ...
       134                          0.7114848              19.3605
      -------------------------------------------------------------
                  HL-Gap            0.0033742 Eh            0.0918 eV

Wiberg/Mayer (AO) data.
largest (>0.10) Wiberg bond orders for each atom

     #   Z sym  total        # sym  WBO       # sym  WBO       # sym  WBO
 ---------------------------------------------------------------------------
     1   6 C    3.901 --    26 H    0.987    28 H    0.981    27 H    0.981
                             2 O    0.924
     2   8 O    2.149 --     3 C    1.037     1 C    0.924     4 O    0.107
     3   6 C    3.768 --     4 O    1.608     2 O    1.037     5 C    0.911
                            24 C    0.106
     4   8 O    1.862 --     3 C    1.608     2 O    0.107
     5   6 C    3.972 --     7 N    0.992     6 C    0.975    24 C    0.964
                             3 C    0.911
     6   6 C    3.983 --    29 H    0.989    31 H    0.987    30 H    0.986
                             5 C    0.975
     7   7 N    2.890 --     8 C    1.489     5 C    0.992    21 N    0.173
     8   6 C    3.957 --     7 N    1.489    21 N    1.397     9 C    0.953
     9   6 C    3.925 --    11 C    0.988    10 C    0.984     8 C    0.953
                            12 N    0.927
    10   6 C    3.994 --    34 H    0.987    33 H    0.985    32 H    0.985
                             9 C    0.984
    11   6 C    3.995 --     9 C    0.988    35 H    0.987    37 H    0.985
                            36 H    0.983
    12   7 N    3.312 --    13 C    1.250     9 C    0.927    38 H    0.879
                            14 O    0.163
    13   6 C    3.852 --    14 O    1.489    12 N    1.250    15 C    1.042
    14   8 O    1.773 --    13 C    1.489    12 N    0.163
    15   6 C    3.749 --    16 N    1.512    13 C    1.042    20 O    1.015
    16   7 N    2.868 --    15 C    1.512    17 N    1.185
    17   7 N    2.980 --    18 C    1.625    16 N    1.185
    18   6 C    3.845 --    17 N    1.625    20 O    1.064    19 C    1.026
    19   6 C    3.992 --    18 C    1.026    39 H    0.985    40 H    0.969
                            41 H    0.969
    20   8 O    2.245 --    18 C    1.064    15 C    1.015
    21   7 N    2.869 --     8 C    1.397    22 C    1.091     7 N    0.173
    22   6 C    3.913 --    23 O    1.357    24 C    1.344    21 N    1.091
    23   8 O    1.654 --    22 C    1.357    24 C    0.103
    24   6 C    3.608 --    22 C    1.344     5 C    0.964    25 O    0.953
                             3 C    0.106    23 O    0.103
    25   8 O    1.898 --    24 C    0.953    42 H    0.853
    26   1 H    1.016 --     1 C    0.987
    27   1 H    1.013 --     1 C    0.981
    28   1 H    1.015 --     1 C    0.981
    29   1 H    1.013 --     6 C    0.989
    30   1 H    1.018 --     6 C    0.986
    31   1 H    1.018 --     6 C    0.987
    32   1 H    1.024 --    10 C    0.985
    33   1 H    1.016 --    10 C    0.985
    34   1 H    1.009 --    10 C    0.987
    35   1 H    1.009 --    11 C    0.987
    36   1 H    1.030 --    11 C    0.983
    37   1 H    1.017 --    11 C    0.985
    38   1 H    1.001 --    12 N    0.879
    39   1 H    1.002 --    19 C    0.985
    40   1 H    0.999 --    19 C    0.969
    41   1 H    0.999 --    19 C    0.969
    42   1 H    0.905 --    25 O    0.853
 ---------------------------------------------------------------------------

           -------------------------------------------------
          | TOTAL ENERGY              -83.601822067533 Eh   |
          | GRADIENT NORM               0.000329180127 Eh/α |
          | HOMO-LUMO GAP               0.091816925770 eV   |
           -------------------------------------------------

 * finished run on 2023/06/20 at 17:37:40.070
