   * xtb version 6.5.1 (579679a) compiled by 'ehlert@majestix' on 2022-07-11
          program call               : /lustre/hpc/kemi/ree/PhD/git/ReactivityQM/dep/xtb-6.5.1/bin/xtb --gfn 1 /lustre/hpc/kemi/ree/PhD/git/ReactivityQM/calculations/R02methylcation/reac01prodN12/conf08/R02methylcation_reac01prodN12_conf08_gfn1.xyz --opt --vfukui --chrg 0 --uhf 0 --alpb DMSO

   ID    Z sym.   atoms
    1    6 C      1, 3, 5, 7-10, 12, 14, 15, 18, 19, 22, 24
    2    8 O      2, 4, 13, 20, 23, 25
    3    7 N      6, 11, 16, 17, 21
    4    1 H      26-42

      * Solvation model:               ALPB
        Solvent                        DMSO
        Solvent mass                       7.8130E+01 g/mol
          :  Hamiltonian                  GFN1-xTB          :
 * total energy  :   -82.9331601 Eh     change       -0.8765255E-10 Eh
 * total energy  :   -82.9426703 Eh     change       -0.9510221E-02 Eh
 * total energy  :   -82.9458584 Eh     change       -0.3188057E-02 Eh
 * total energy  :   -82.9464838 Eh     change       -0.6254104E-03 Eh
 * total energy  :   -82.9470581 Eh     change       -0.5742670E-03 Eh
 * total energy  :   -82.9473866 Eh     change       -0.3284918E-03 Eh
 * total energy  :   -82.9476135 Eh     change       -0.2268977E-03 Eh
 * total energy  :   -82.9477535 Eh     change       -0.1400216E-03 Eh
 * total energy  :   -82.9478455 Eh     change       -0.9203592E-04 Eh
 * total energy  :   -82.9479276 Eh     change       -0.8212088E-04 Eh
 * total energy  :   -82.9485403 Eh     change       -0.1099643E-04 Eh
 * total energy  :   -82.9485530 Eh     change       -0.1272034E-04 Eh
 * total energy  :   -82.9485648 Eh     change       -0.1181887E-04 Eh
 * total energy  :   -82.9485748 Eh     change       -0.9923235E-05 Eh
 * total energy  :   -82.9485840 Eh     change       -0.9228044E-05 Eh
 * total energy  :   -82.9485930 Eh     change       -0.9048777E-05 Eh
 * total energy  :   -82.9486007 Eh     change       -0.7667236E-05 Eh
 * total energy  :   -82.9486059 Eh     change       -0.5245883E-05 Eh
 * total energy  :   -82.9486095 Eh     change       -0.3561336E-05 Eh
   *** GEOMETRY OPTIMIZATION CONVERGED AFTER 37 ITERATIONS ***

 final structure:
================
42
 xtb: 6.5.1 (579679a)
C            5.26310065783052        2.99331304103419       -0.14725015410125
O            4.21056494527301        2.02994159807066       -0.16225993195509
C            4.31730671351681        1.05202938481664       -1.08387479258871
O            5.24924671701151        0.99828108229836       -1.85799055355903
C            3.19181065333743        0.09831657013919       -1.01354254767534
N            2.26391758295275        0.35378926500562       -0.05686079642761
C            1.26243585918039       -0.44561376240275        0.12926527962846
C            0.27852565781124       -0.16255200709372        1.23884644377614
C            0.45760995252506       -1.19773894622113        2.35832541301582
C            0.47469179646060        1.26382097474485        1.75547955902633
N           -1.08003345561821       -0.30449836227130        0.66428040142576
C           -2.18055953105736       -0.11427695814617        1.38173031245630
O           -2.26395728698830        0.23111902082335        2.53712944789939
C           -3.51677552331549       -0.40704868779890        0.58893227146946
C           -4.26006310113377       -1.51405079933201        1.33889759954856
N           -4.25727184052204        0.80538117405908        0.50911170735546
N           -4.41577474614904        1.11584808012412       -0.73559373537443
C           -3.83730896130058        0.17311493669454       -1.48320765071977
C           -3.79945178251057        0.14037519905488       -2.95166984941849
O           -3.27315140254323       -0.76468663371802       -0.75528139994137
N            1.09032834037779       -1.57672401599635       -0.61803444275520
C            1.93300599597637       -1.95693434537617       -1.64828636070906
O            1.70543327381755       -2.97480850707368       -2.27511772534133
C            3.10933825301198       -1.03333484127711       -1.89324104667211
O            3.90430312376705       -1.29763286695208       -2.79519413489034
H            5.01288255452047        3.71903322043653        0.62423917606797
H            5.33998977070297        3.48906109013112       -1.11895820173361
H            6.21625543694483        2.51055247314825        0.08594676628471
H           -0.22824398754320       -0.98812658711266        3.17667523909750
H            1.47984424236443       -1.15422240110342        2.73123299866759
H            0.25915447162485       -2.19705973330423        1.97643015910519
H            0.28783621382598        1.97761480974522        0.95469298808928
H            1.50210080261961        1.37974114204099        2.09735051259179
H           -0.20146884060030        1.46441270427892        2.58346289012957
H           -1.16603734221469       -0.64091757339613       -0.28027600897048
H           -4.40517593284456       -1.19758116068349        2.36968676677174
H           -3.66868525896059       -2.42550991357989        1.30990039776550
H           -5.22121214857123       -1.68549837686884        0.86034822637350
H           -4.76306809794072        0.45397817725110       -3.35144004725220
H           -3.54632637340487       -0.85773474240108       -3.30117136745230
H           -3.04603916881381        0.84395115250176       -3.31287966785952
H            0.32091776657650       -2.19712287428803       -0.42983814114856

          :  Hamiltonian                  GFN1-xTB          :
         :: total energy             -82.948609503274 Eh    ::
         :: gradient norm              0.000248484784 Eh/a0 ::
         :: HOMO-LUMO gap              0.093676139570 eV    ::
         :: SCC energy               -83.719403839158 Eh    ::
         :: -> Gsolv                  -0.080416691370 Eh    ::
         :: repulsion energy           0.797110238353 Eh    ::

    * Orbital Energies and Occupations

         #    Occupation            Energy/Eh            Energy/eV
      -------------------------------------------------------------
         1        2.0000           -0.8913043             -24.2536
       ...           ...                  ...                  ...
        55        2.0000           -0.5101937             -13.8831
        56        2.0000           -0.5090068             -13.8508
        57        2.0000           -0.5057541             -13.7623
        58        2.0000           -0.4949541             -13.4684
        59        2.0000           -0.4869169             -13.2497
        60        2.0000           -0.4863785             -13.2350
        61        2.0000           -0.4776070             -12.9963
        62        2.0000           -0.4756539             -12.9432
        63        2.0000           -0.4710161             -12.8170
        64        2.0000           -0.4674125             -12.7189
        65        2.0000           -0.4534364             -12.3386
        66        2.0000           -0.4137082             -11.2576
        67        1.7192           -0.4001739             -10.8893 (HOMO)
        68        0.2808           -0.3967314             -10.7956 (LUMO)
        69                         -0.3021823              -8.2228
        70                         -0.2920667              -7.9475
        71                         -0.2777108              -7.5569
        72                         -0.2766661              -7.5285
        73                         -0.2274626              -6.1896
        74                         -0.1590965              -4.3292
        75                         -0.1474941              -4.0135
        76                         -0.1412118              -3.8426
        77                         -0.1362100              -3.7065
        78                         -0.1327201              -3.6115
       ...                                ...                  ...
       134                          0.7562885              20.5797
      -------------------------------------------------------------
                  HL-Gap            0.0034425 Eh            0.0937 eV

Wiberg/Mayer (AO) data.
largest (>0.10) Wiberg bond orders for each atom

     #   Z sym  total        # sym  WBO       # sym  WBO       # sym  WBO
 ---------------------------------------------------------------------------
     1   6 C    3.881 --    26 H    0.987    27 H    0.980    28 H    0.979
                             2 O    0.908
     2   8 O    2.167 --     3 C    1.076     1 C    0.908     4 O    0.126
     3   6 C    3.840 --     4 O    1.638     2 O    1.076     5 C    1.043
     4   8 O    1.883 --     3 C    1.638     2 O    0.126
     5   6 C    3.739 --     6 N    1.259    24 C    1.184     3 C    1.043
     6   7 N    3.000 --     7 C    1.520     5 C    1.259
     7   6 C    3.821 --     6 N    1.520    21 N    1.156     8 C    0.986
     8   6 C    3.918 --    10 C    0.996     7 C    0.986     9 C    0.977
                            11 N    0.890
     9   6 C    3.981 --    31 H    0.984    30 H    0.984    29 H    0.979
                             8 C    0.977
    10   6 C    3.988 --     8 C    0.996    32 H    0.985    33 H    0.982
                            34 H    0.981
    11   7 N    3.359 --    12 C    1.326     8 C    0.890    35 H    0.887
                            13 O    0.175
    12   6 C    3.875 --    13 O    1.631    11 N    1.326    14 C    0.813
    13   8 O    1.971 --    12 C    1.631    11 N    0.175
    14   6 C    3.845 --    16 N    1.062    15 C    0.930    20 O    0.904
                            12 C    0.813
    15   6 C    3.935 --    37 H    0.981    38 H    0.980    36 H    0.978
                            14 C    0.930
    16   7 N    2.699 --    17 N    1.480    14 C    1.062
    17   7 N    2.967 --    16 N    1.480    18 C    1.341
    18   6 C    3.689 --    17 N    1.341    20 O    1.169    19 C    1.054
    19   6 C    3.971 --    18 C    1.054    40 H    0.974    39 H    0.958
                            41 H    0.933
    20   8 O    2.246 --    18 C    1.169    14 C    0.904
    21   7 N    3.416 --     7 C    1.156    22 C    1.115    42 H    0.886
                            23 O    0.119
    22   6 C    3.846 --    23 O    1.642    21 N    1.115    24 C    0.951
    23   8 O    1.874 --    22 C    1.642    21 N    0.119
    24   6 C    3.883 --    25 O    1.599     5 C    1.184    22 C    0.951
    25   8 O    1.797 --    24 C    1.599
    26   1 H    1.013 --     1 C    0.987
    27   1 H    1.009 --     1 C    0.980
    28   1 H    1.008 --     1 C    0.979
    29   1 H    1.003 --     9 C    0.979
    30   1 H    0.999 --     9 C    0.984
    31   1 H    1.000 --     9 C    0.984
    32   1 H    1.005 --    10 C    0.985
    33   1 H    1.011 --    10 C    0.982
    34   1 H    1.007 --    10 C    0.981
    35   1 H    0.936 --    11 N    0.887
    36   1 H    1.000 --    15 C    0.978
    37   1 H    0.995 --    15 C    0.981
    38   1 H    0.994 --    15 C    0.980
    39   1 H    0.987 --    19 C    0.958
    40   1 H    0.990 --    19 C    0.974
    41   1 H    0.977 --    19 C    0.933
    42   1 H    0.930 --    21 N    0.886
 ---------------------------------------------------------------------------

           -------------------------------------------------
          | TOTAL ENERGY              -82.948609503274 Eh   |
          | GRADIENT NORM               0.000248484784 Eh/α |
          | HOMO-LUMO GAP               0.093676139570 eV   |
           -------------------------------------------------

 * finished run on 2023/06/21 at 17:44:22.334
