   * xtb version 6.5.1 (579679a) compiled by 'ehlert@majestix' on 2022-07-11
          program call               : /lustre/hpc/kemi/ree/PhD/git/ReactivityQM/dep/xtb-6.5.1/bin/xtb --gfn 1 /lustre/hpc/kemi/ree/PhD/git/ReactivityQM/calculations/R02oxygendeprot/reac01prodN03/conf01/R02oxygendeprot_reac01prodN03_conf01_gfn1.xyz --opt --vfukui --chrg 0 --uhf 0 --alpb DMSO

   ID    Z sym.   atoms
    1    6 C      1, 3, 5, 6, 8-11, 13, 15, 18, 19, 22, 24
    2    8 O      2, 4, 14, 20, 23, 25
    3    7 N      7, 12, 16, 17, 21
    4    1 H      26-42

      * Solvation model:               ALPB
        Solvent                        DMSO
        Solvent mass                       7.8130E+01 g/mol
          :  Hamiltonian                  GFN1-xTB          :
 * total energy  :   -82.9817040 Eh     change       -0.6664891E-11 Eh
 * total energy  :   -82.9933220 Eh     change       -0.1161792E-01 Eh
 * total energy  :   -82.9979352 Eh     change       -0.4613261E-02 Eh
 * total energy  :   -82.9989435 Eh     change       -0.1008309E-02 Eh
 * total energy  :   -82.9995008 Eh     change       -0.5573035E-03 Eh
 * total energy  :   -82.9997247 Eh     change       -0.2238390E-03 Eh
 * total energy  :   -82.9998282 Eh     change       -0.1034745E-03 Eh
 * total energy  :   -82.9998810 Eh     change       -0.5288052E-04 Eh
 * total energy  :   -82.9999163 Eh     change       -0.3528927E-04 Eh
 * total energy  :   -82.9999482 Eh     change       -0.3189085E-04 Eh
 * total energy  :   -83.0004670 Eh     change       -0.1782838E-04 Eh
 * total energy  :   -83.0004894 Eh     change       -0.2234640E-04 Eh
 * total energy  :   -83.0004998 Eh     change       -0.1041982E-04 Eh
 * total energy  :   -83.0005092 Eh     change       -0.9420928E-05 Eh
 * total energy  :   -83.0005253 Eh     change       -0.1612417E-04 Eh
 * total energy  :   -83.0005357 Eh     change       -0.1037813E-04 Eh
 * total energy  :   -83.0005466 Eh     change       -0.1094269E-04 Eh
 * total energy  :   -83.0005566 Eh     change       -0.9999478E-05 Eh
 * total energy  :   -83.0005614 Eh     change       -0.4727060E-05 Eh
   *** GEOMETRY OPTIMIZATION CONVERGED AFTER 38 ITERATIONS ***

 final structure:
================
42
 xtb: 6.5.1 (579679a)
C           -2.79177360774092        2.50240916841240       -1.89681208915373
O           -2.59622390392584        1.17081241151530       -1.39139604306947
C           -3.61096269734820        0.62984671945205       -0.74420489476887
O           -4.67666662314883        1.15157234899179       -0.56375562548329
C           -3.27455931855629       -0.80664355606437       -0.25360760612267
C           -4.46679732431424       -1.35517334140996        0.53297960821635
N           -2.13128197158904       -0.68995895587576        0.62450871351249
C           -0.95865463606522       -0.93958110862141        0.21668097094496
C            0.20958356282123       -0.86303784442633        1.17842416259867
C            0.55922410028230       -2.30322442301292        1.58254325016093
C           -0.15421568114641       -0.01438706849996        2.39925275897737
N            1.32845114390654       -0.24553897867615        0.45906238190855
C            2.57306343153262       -0.13006879581810        0.98666315345573
O            2.96322185116626       -0.65393364258403        2.01177264903096
C            3.42819685824665        0.71901312883907        0.12008946199392
N            3.04017161649002        1.37612407850501       -0.93179192429031
N            4.13281450956754        2.03166251171072       -1.41061970375523
C            5.11969346045691        1.73311883012537       -0.61951645663595
C            6.52606980916391        2.18183158306694       -0.71984652707910
O            4.73654273694906        0.90964232029322        0.36657065151910
N           -0.65138655637212       -1.36081964294291       -1.07012263704479
C           -1.57961602241917       -1.67735553190679       -2.01635823250744
O           -1.28028801242450       -2.01899246740490       -3.13746740322627
C           -3.02740656395916       -1.61014119993173       -1.51662626583002
O           -3.91541406468851       -2.15441880036408       -2.11904180330392
H           -3.69569396524776        2.53747307903226       -2.50834873040547
H           -2.88438987392913        3.20168637155521       -1.06398401023687
H           -1.91471459091051        2.73668267405579       -2.49470988379170
H           -5.33749045211378       -1.41521948013868       -0.11785121341772
H           -4.68403868525638       -0.69342827865070        1.36841708914840
H           -4.22789692874982       -2.34632922484617        0.91178004711167
H            0.90248664330287       -2.86216316964885        0.71368931038987
H           -0.32869584877926       -2.78544115917050        1.98852538508347
H            1.33937776764452       -2.30542984824859        2.34038553487310
H            0.69090018778245        0.02774370455383        3.08401940689383
H           -0.41461893749530        0.99511637671179        2.08562517866284
H           -1.00849830087183       -0.45713775250138        2.90831331003383
H            1.10225368770601        0.38166290529237       -0.29937876112365
H            7.14459311084589        1.37496851904074       -1.11620898852428
H            6.59145261471006        3.03896349192933       -1.38610882365635
H            6.90476433311937        2.44683282479075        0.26638081288023
H            0.31842314136349       -1.45873877712726       -1.33108821396713

          :  Hamiltonian                  GFN1-xTB          :
         :: total energy             -83.000561369538 Eh    ::
         :: gradient norm              0.000924472213 Eh/a0 ::
         :: HOMO-LUMO gap              2.447702995638 eV    ::
         :: SCC energy               -83.787918447624 Eh    ::
         :: -> Gsolv                  -0.050543037458 Eh    ::
         :: repulsion energy           0.814098201674 Eh    ::

    * Orbital Energies and Occupations

         #    Occupation            Energy/Eh            Energy/eV
      -------------------------------------------------------------
         1        2.0000           -0.8655911             -23.5539
       ...           ...                  ...                  ...
        55        2.0000           -0.5130827             -13.9617
        56        2.0000           -0.5095900             -13.8667
        57        2.0000           -0.5078289             -13.8187
        58        2.0000           -0.5043676             -13.7245
        59        2.0000           -0.4989086             -13.5760
        60        2.0000           -0.4849280             -13.1956
        61        2.0000           -0.4735216             -12.8852
        62        2.0000           -0.4665373             -12.6951
        63        2.0000           -0.4642335             -12.6324
        64        2.0000           -0.4594829             -12.5032
        65        2.0000           -0.4546433             -12.3715
        66        2.0000           -0.4504679             -12.2579
        67        2.0000           -0.4431204             -12.0579 (HOMO)
        68                         -0.3531690              -9.6102 (LUMO)
        69                         -0.3145070              -8.5582
        70                         -0.2998632              -8.1597
        71                         -0.2730658              -7.4305
        72                         -0.2585648              -7.0359
        73                         -0.2285271              -6.2185
        74                         -0.2028440              -5.5197
        75                         -0.1478350              -4.0228
        76                         -0.1425959              -3.8802
        77                         -0.1296546              -3.5281
        78                         -0.1277595              -3.4765
       ...                                ...                  ...
       134                          0.7584110              20.6374
      -------------------------------------------------------------
                  HL-Gap            0.0899514 Eh            2.4477 eV

Wiberg/Mayer (AO) data.
largest (>0.10) Wiberg bond orders for each atom

     #   Z sym  total        # sym  WBO       # sym  WBO       # sym  WBO
 ---------------------------------------------------------------------------
     1   6 C    3.854 --    28 H    0.985    26 H    0.980    27 H    0.979
                             2 O    0.877
     2   8 O    2.212 --     3 C    1.148     1 C    0.877     4 O    0.139
     3   6 C    3.842 --     4 O    1.706     2 O    1.148     5 C    0.867
     4   8 O    1.983 --     3 C    1.706     2 O    0.139
     5   6 C    3.964 --     6 C    0.979     7 N    0.977    24 C    0.955
                             3 C    0.867
     6   6 C    3.984 --    31 H    0.985    30 H    0.983    29 H    0.982
                             5 C    0.979
     7   7 N    3.026 --     8 C    1.757     5 C    0.977
     8   6 C    3.928 --     7 N    1.757    21 N    1.069     9 C    0.977
     9   6 C    3.933 --    11 C    0.990     8 C    0.977    10 C    0.976
                            12 N    0.924
    10   6 C    3.987 --    33 H    0.985    32 H    0.985     9 C    0.976
                            34 H    0.976
    11   6 C    3.989 --     9 C    0.990    36 H    0.985    37 H    0.983
                            35 H    0.983
    12   7 N    3.322 --    13 C    1.228     9 C    0.924    38 H    0.896
                            14 O    0.171
    13   6 C    3.914 --    14 O    1.611    12 N    1.228    15 C    0.991
    14   8 O    1.924 --    13 C    1.611    12 N    0.171
    15   6 C    3.876 --    16 N    1.607    20 O    1.065    13 C    0.991
    16   7 N    3.019 --    15 C    1.607    17 N    1.203
    17   7 N    2.981 --    18 C    1.601    16 N    1.203
    18   6 C    3.870 --    17 N    1.601    20 O    1.085    19 C    1.031
    19   6 C    3.986 --    18 C    1.031    40 H    0.981    41 H    0.970
                            39 H    0.957
    20   8 O    2.333 --    18 C    1.085    15 C    1.065
    21   7 N    3.428 --    22 C    1.183     8 C    1.069    42 H    0.879
                            23 O    0.148
    22   6 C    3.892 --    23 O    1.675    21 N    1.183    24 C    0.907
    23   8 O    1.956 --    22 C    1.675    21 N    0.148
    24   6 C    3.847 --    25 O    1.811     5 C    0.955    22 C    0.907
    25   8 O    2.022 --    24 C    1.811
    26   1 H    1.004 --     1 C    0.980
    27   1 H    1.003 --     1 C    0.979
    28   1 H    1.008 --     1 C    0.985
    29   1 H    1.005 --     6 C    0.982
    30   1 H    1.004 --     6 C    0.983
    31   1 H    1.000 --     6 C    0.985
    32   1 H    1.000 --    10 C    0.985
    33   1 H    1.001 --    10 C    0.985
    34   1 H    1.010 --    10 C    0.976
    35   1 H    1.004 --    11 C    0.983
    36   1 H    1.004 --    11 C    0.985
    37   1 H    1.008 --    11 C    0.983
    38   1 H    0.952 --    12 N    0.896
    39   1 H    0.996 --    19 C    0.957
    40   1 H    0.998 --    19 C    0.981
    41   1 H    0.996 --    19 C    0.970
    42   1 H    0.927 --    21 N    0.879
 ---------------------------------------------------------------------------

           -------------------------------------------------
          | TOTAL ENERGY              -83.000561369538 Eh   |
          | GRADIENT NORM               0.000924472213 Eh/α |
          | HOMO-LUMO GAP               2.447702995638 eV   |
           -------------------------------------------------

 * finished run on 2023/06/21 at 17:19:24.945
