   * xtb version 6.5.1 (579679a) compiled by 'ehlert@majestix' on 2022-07-11
          program call               : /lustre/hpc/kemi/ree/PhD/git/ReactivityQM/dep/xtb-6.5.1/bin/xtb --gfn 1 /lustre/hpc/kemi/ree/PhD/git/ReactivityQM/calculations/R02oxygendeprot/reac01prodN05/conf02/R02oxygendeprot_reac01prodN05_conf02_gfn1.xyz --opt --vfukui --chrg 0 --uhf 0 --alpb DMSO

   ID    Z sym.   atoms
    1    6 C      1, 3, 5, 6, 8, 11-14, 16, 18, 21, 22, 25
    2    8 O      2, 4, 7, 9, 17, 23
    3    7 N      10, 15, 19, 20, 24
    4    1 H      26-42

      * Solvation model:               ALPB
        Solvent                        DMSO
        Solvent mass                       7.8130E+01 g/mol
          :  Hamiltonian                  GFN1-xTB          :
 * total energy  :   -82.9715270 Eh     change       -0.2781064E-10 Eh
 * total energy  :   -82.9840626 Eh     change       -0.1253565E-01 Eh
 * total energy  :   -82.9892180 Eh     change       -0.5155344E-02 Eh
 * total energy  :   -82.9903864 Eh     change       -0.1168477E-02 Eh
 * total energy  :   -82.9910118 Eh     change       -0.6253683E-03 Eh
 * total energy  :   -82.9912581 Eh     change       -0.2463239E-03 Eh
 * total energy  :   -82.9913914 Eh     change       -0.1332862E-03 Eh
 * total energy  :   -82.9914979 Eh     change       -0.1064452E-03 Eh
 * total energy  :   -82.9916155 Eh     change       -0.1176776E-03 Eh
 * total energy  :   -82.9917611 Eh     change       -0.1455088E-03 Eh
 * total energy  :   -82.9927278 Eh     change       -0.1422414E-04 Eh
 * total energy  :   -82.9927388 Eh     change       -0.1097620E-04 Eh
 * total energy  :   -82.9927528 Eh     change       -0.1401686E-04 Eh
 * total energy  :   -82.9927704 Eh     change       -0.1761566E-04 Eh
 * total energy  :   -82.9927893 Eh     change       -0.1884609E-04 Eh
 * total energy  :   -82.9928051 Eh     change       -0.1582610E-04 Eh
 * total energy  :   -82.9928167 Eh     change       -0.1161565E-04 Eh
 * total energy  :   -82.9928235 Eh     change       -0.6741963E-05 Eh
 * total energy  :   -82.9928280 Eh     change       -0.4499953E-05 Eh
   *** GEOMETRY OPTIMIZATION CONVERGED AFTER 37 ITERATIONS ***

 final structure:
================
42
 xtb: 6.5.1 (579679a)
C           -4.98869771267098        3.13302536739373       -0.22039990614689
O           -4.52455357994174        1.81833595550693       -0.52748817525421
C           -3.24233828604187        1.56526533259339       -0.25115535656417
O           -2.51806212969182        2.41426745278781        0.24393185468061
C           -2.81760283093852        0.21481273440916       -0.64686589933572
C           -3.53208904052914       -0.50987381042762       -1.64171662510753
O           -4.61163954934116       -0.18845190451038       -2.13880828444393
C           -2.86163682979286       -1.76601406992762       -2.13790126924441
O           -3.33120762411239       -2.54360187406121       -2.94172600553439
N           -1.58639457689472       -1.98923256320860       -1.63918513076944
C           -0.96879340267664       -1.30005857238525       -0.65265645646113
C            0.38995580963194       -1.83637503253077       -0.21129750351636
C            0.19326951343780       -2.78148122502912        0.98504001100491
C            1.09234656402240       -2.59656436300527       -1.34863971953613
N            1.23811543974121       -0.68744148283578        0.11369197500821
C            2.43368051712355       -0.79924581775191        0.75469038918420
O            2.84490454001498       -1.78617997260370        1.32875868569628
C            3.16821068702463        0.48698787837058        0.68985886098996
N            2.77259259728627        1.56380691836290        0.07884830881746
N            3.74541373166584        2.49770268418775        0.26069402170036
C            4.67527453077072        1.93087707211254        0.97046898443752
C            5.94740927317904        2.52380764482868        1.43723737669506
O            4.36741859092463        0.66121155198130        1.27161465544326
N           -1.59734965349372       -0.26529273292039       -0.13466979844753
C           -1.09360095321692        0.37256018569155        1.09093185645169
H           -4.88672469111207        3.32861072664199        0.84990126976948
H           -6.03733853512284        3.16975621222155       -0.51096804914793
H           -4.41513949443834        3.87870249101636       -0.77687493399657
H           -1.13258477552811       -2.80369694650547       -2.02286699529184
H            1.09891585858496       -3.35988466446273        1.15322730287062
H           -0.04283818621132       -2.23412584633850        1.89441500648599
H           -0.62340837187555       -3.46573456762501        0.76077082601122
H            1.11384874784417       -1.99745175265716       -2.25685648700754
H            0.60692841990670       -3.55018799543580       -1.54579930557359
H            2.11613036950611       -2.79946079981459       -1.03825800501555
H            1.13609117085136        0.11930850933729       -0.48707136916339
H            6.01202292516400        3.55856095640964        1.11028298975771
H            6.78945692012141        1.96017613863397        1.03546929043952
H            6.00084463449104        2.47878061706269        2.52485813396870
H           -0.51165212002816        1.25612424068745        0.83698377614265
H           -1.94133883936861        0.65536309130711        1.70933717835811
H           -0.47784165826900       -0.32768776749566        1.64117452164140

          :  Hamiltonian                  GFN1-xTB          :
         :: total energy             -82.992827976597 Eh    ::
         :: gradient norm              0.000452288078 Eh/a0 ::
         :: HOMO-LUMO gap              2.514702041117 eV    ::
         :: SCC energy               -83.774011165716 Eh    ::
         :: -> Gsolv                  -0.067302174832 Eh    ::
         :: repulsion energy           0.808148256854 Eh    ::

    * Orbital Energies and Occupations

         #    Occupation            Energy/Eh            Energy/eV
      -------------------------------------------------------------
         1        2.0000           -0.8681876             -23.6246
       ...           ...                  ...                  ...
        55        2.0000           -0.5109296             -13.9031
        56        2.0000           -0.5106426             -13.8953
        57        2.0000           -0.4960298             -13.4977
        58        2.0000           -0.4929101             -13.4128
        59        2.0000           -0.4901321             -13.3372
        60        2.0000           -0.4876110             -13.2686
        61        2.0000           -0.4745852             -12.9141
        62        2.0000           -0.4736169             -12.8878
        63        2.0000           -0.4671186             -12.7109
        64        2.0000           -0.4578662             -12.4592
        65        2.0000           -0.4546908             -12.3728
        66        2.0000           -0.4272309             -11.6255
        67        2.0000           -0.4164984             -11.3335 (HOMO)
        68                         -0.3240848              -8.8188 (LUMO)
        69                         -0.3190087              -8.6807
        70                         -0.3056083              -8.3160
        71                         -0.2608113              -7.0970
        72                         -0.2399960              -6.5306
        73                         -0.2066448              -5.6231
        74                         -0.1682952              -4.5795
        75                         -0.1487712              -4.0483
        76                         -0.1435491              -3.9062
        77                         -0.1400628              -3.8113
        78                         -0.1344588              -3.6588
       ...                                ...                  ...
       134                          0.7511490              20.4398
      -------------------------------------------------------------
                  HL-Gap            0.0924136 Eh            2.5147 eV

Wiberg/Mayer (AO) data.
largest (>0.10) Wiberg bond orders for each atom

     #   Z sym  total        # sym  WBO       # sym  WBO       # sym  WBO
 ---------------------------------------------------------------------------
     1   6 C    3.877 --    27 H    0.986    26 H    0.980    28 H    0.980
                             2 O    0.903
     2   8 O    2.201 --     3 C    1.105     1 C    0.903     4 O    0.121
     3   6 C    3.865 --     4 O    1.584     2 O    1.105     5 C    1.080
     4   8 O    1.895 --     3 C    1.584     2 O    0.121
     5   6 C    3.850 --     6 C    1.258     3 C    1.080    24 N    1.056
                             7 O    0.139
     6   6 C    3.944 --     7 O    1.573     5 C    1.258     8 C    0.954
     7   8 O    1.883 --     6 C    1.573     5 C    0.139
     8   6 C    3.867 --     9 O    1.661    10 N    1.089     6 C    0.954
     9   8 O    1.933 --     8 C    1.661    10 N    0.117
    10   7 N    3.453 --    11 C    1.207     8 C    1.089    29 H    0.877
                             9 O    0.117
    11   6 C    3.914 --    24 N    1.434    10 N    1.207    12 C    0.978
    12   6 C    3.934 --    14 C    0.985    11 C    0.978    13 C    0.976
                            15 N    0.933
    13   6 C    3.981 --    32 H    0.984    12 C    0.976    31 H    0.976
                            30 H    0.975
    14   6 C    3.986 --    12 C    0.985    33 H    0.984    34 H    0.978
                            35 H    0.977
    15   7 N    3.312 --    16 C    1.209    12 C    0.933    36 H    0.894
                            17 O    0.167
    16   6 C    3.912 --    17 O    1.621    15 N    1.209    18 C    0.993
    17   8 O    1.932 --    16 C    1.621    15 N    0.167
    18   6 C    3.878 --    19 N    1.604    23 O    1.066    16 C    0.993
    19   7 N    3.022 --    18 C    1.604    20 N    1.205
    20   7 N    2.981 --    21 C    1.599    19 N    1.205
    21   6 C    3.869 --    20 N    1.599    23 O    1.084    22 C    1.032
    22   6 C    3.985 --    21 C    1.032    37 H    0.982    39 H    0.963
                            38 H    0.962
    23   8 O    2.334 --    21 C    1.084    18 C    1.066
    24   7 N    3.589 --    11 C    1.434     5 C    1.056    25 C    0.917
    25   6 C    3.910 --    42 H    0.976    41 H    0.976    40 H    0.970
                            24 N    0.917
    26   1 H    1.009 --     1 C    0.980
    27   1 H    1.012 --     1 C    0.986
    28   1 H    1.009 --     1 C    0.980
    29   1 H    0.932 --    10 N    0.877
    30   1 H    1.009 --    13 C    0.975
    31   1 H    1.001 --    13 C    0.976
    32   1 H    1.000 --    13 C    0.984
    33   1 H    0.997 --    14 C    0.984
    34   1 H    0.996 --    14 C    0.978
    35   1 H    0.999 --    14 C    0.977
    36   1 H    0.952 --    15 N    0.894
    37   1 H    0.998 --    22 C    0.982
    38   1 H    0.996 --    22 C    0.962
    39   1 H    0.996 --    22 C    0.963
    40   1 H    1.015 --    25 C    0.970
    41   1 H    1.005 --    25 C    0.976
    42   1 H    1.010 --    25 C    0.976
 ---------------------------------------------------------------------------

           -------------------------------------------------
          | TOTAL ENERGY              -82.992827976597 Eh   |
          | GRADIENT NORM               0.000452288078 Eh/α |
          | HOMO-LUMO GAP               2.514702041117 eV   |
           -------------------------------------------------

 * finished run on 2023/06/21 at 17:21:04.112
