   * xtb version 6.5.1 (579679a) compiled by 'ehlert@majestix' on 2022-07-11
          program call               : /lustre/hpc/kemi/ree/PhD/git/ReactivityQM/dep/xtb-6.5.1/bin/xtb --gfn 1 /lustre/hpc/kemi/ree/PhD/git/ReactivityQM/calculations/R02methylcation/reac01prodE14/conf07/R02methylcation_reac01prodE14_conf07_gfn1.xyz --opt --vfukui --chrg -2 --uhf 0 --alpb DMSO

   ID    Z sym.   atoms
    1    6 C      1, 3, 5, 7-10, 12, 14, 17, 18, 21, 23, 24
    2    8 O      2, 4, 13, 19, 22, 25
    3    7 N      6, 11, 15, 16, 20
    4    1 H      26-42

      * Solvation model:               ALPB
        Solvent                        DMSO
        Solvent mass                       7.8130E+01 g/mol
          :  Hamiltonian                  GFN1-xTB          :
 * total energy  :   -83.5875956 Eh     change       -0.5471179E-11 Eh
 * total energy  :   -83.6018471 Eh     change       -0.1425147E-01 Eh
 * total energy  :   -83.6071087 Eh     change       -0.5261630E-02 Eh
 * total energy  :   -83.6082777 Eh     change       -0.1168994E-02 Eh
 * total energy  :   -83.6092530 Eh     change       -0.9753382E-03 Eh
 * total energy  :   -83.6097841 Eh     change       -0.5311030E-03 Eh
 * total energy  :   -83.6101713 Eh     change       -0.3871580E-03 Eh
 * total energy  :   -83.6104947 Eh     change       -0.3233549E-03 Eh
 * total energy  :   -83.6106867 Eh     change       -0.1920336E-03 Eh
 * total energy  :   -83.6108312 Eh     change       -0.1445376E-03 Eh
 * total energy  :   -83.6123620 Eh     change       -0.3367944E-04 Eh
 * total energy  :   -83.6123732 Eh     change       -0.1123835E-04 Eh
 * total energy  :   -83.6123979 Eh     change       -0.2468283E-04 Eh
 * total energy  :   -83.6124071 Eh     change       -0.9140697E-05 Eh
 * total energy  :   -83.6124253 Eh     change       -0.1823819E-04 Eh
 * total energy  :   -83.6124330 Eh     change       -0.7723472E-05 Eh
 * total energy  :   -83.6124370 Eh     change       -0.3985812E-05 Eh
 * total energy  :   -83.6124420 Eh     change       -0.5026478E-05 Eh
 * total energy  :   -83.6124443 Eh     change       -0.2229893E-05 Eh
   *** GEOMETRY OPTIMIZATION CONVERGED AFTER 65 ITERATIONS ***

 final structure:
================
42
 xtb: 6.5.1 (579679a)
C            4.41453921705543        2.92844870214167        0.27232175603867
O            3.43120067005262        1.92453595479316        0.37599751820026
C            3.69286894199999        0.75525679756867       -0.38737698740059
O            4.74419206157693        0.73701849094498       -1.06041320082142
C            2.68336495184524       -0.20727290507075       -0.29287084745510
N            1.63169825009381        0.07684625414154        0.54926747396078
C            0.57655171533292       -0.65217341623236        0.57538077907933
C           -0.53397812498965       -0.38417008810433        1.56823351877963
C           -0.16805627812682        0.83314041284459        2.42442392975138
C           -0.76588418456007       -1.62276256911125        2.44753143839113
N           -1.76967516946449       -0.09427906061612        0.80511500715765
C           -2.95120009393587        0.20807643334626        1.37201510153892
O           -3.17928887826647        0.23826234089073        2.57977433431475
C           -4.01143070412066        0.51496811445021        0.38548622166222
N           -5.24159486148594        0.87149486476704        0.63273576960146
N           -5.84800538737318        1.05674229066211       -0.57657543195905
C           -4.95892834446667        0.80363546763974       -1.48458389344091
C           -5.13003300037697        0.85465017784588       -2.95390606889272
O           -3.77484313129048        0.45597772589070       -0.94940296121635
N            0.37179937777766       -1.71766876213205       -0.32852021619254
C            1.30516625155105       -2.00097878396975       -1.29193067722212
O            0.95869198814978       -2.61956473674749       -2.30486399440110
C            2.77713141278007       -1.64259686316438       -0.89859748202973
C            3.59599836095135       -1.62571886610133       -2.23033901084711
O            3.19593842553353       -2.58109261577374       -0.03279562997754
H            5.39113922828176        2.58024775287694        0.63573569902078
H            4.08904710189607        3.77184883797494        0.88486137716058
H            4.53706483255239        3.26852854749793       -0.76482179626177
H            0.78162161673587        0.64691623494304        2.92558676444935
H           -0.05768424085848        1.71173546145826        1.78933370607924
H           -0.93372786478187        1.02589985085517        3.17314518957564
H           -1.53752687457546       -1.43217344980562        3.19115681226780
H           -1.07238315140014       -2.46670619575005        1.83107290274736
H            0.16056037514972       -1.87792355268446        2.96177244497849
H           -1.70197325537462       -0.03907094978875       -0.19900476344477
H           -4.37483842422008        1.50180515047140       -3.39793967089719
H           -5.01259626478035       -0.14268225184161       -3.37886801030181
H           -6.12105141437235        1.23285189339716       -3.19171295803761
H           -0.57681236773735       -1.98468423006568       -0.53049255580815
H            4.65719888366166       -1.53022975831165       -2.00577785706280
H            3.43844677821200       -2.57131875620198       -2.75210913427006
H            3.28728757536518       -0.80581394593189       -2.87988159681959

          :  Hamiltonian                  GFN1-xTB          :
         :: total energy             -83.612444255646 Eh    ::
         :: gradient norm              0.000575483461 Eh/a0 ::
         :: HOMO-LUMO gap              0.150429475697 eV    ::
         :: SCC energy               -84.347639797458 Eh    ::
         :: -> Gsolv                  -0.294450292402 Eh    ::
         :: repulsion energy           0.760839317134 Eh    ::

    * Orbital Energies and Occupations

         #    Occupation            Energy/Eh            Energy/eV
      -------------------------------------------------------------
         1        2.0000           -0.8471396             -23.0518
       ...           ...                  ...                  ...
        56        2.0000           -0.4413236             -12.0090
        57        2.0000           -0.4407793             -11.9942
        58        2.0000           -0.4304197             -11.7123
        59        2.0000           -0.4243818             -11.5480
        60        2.0000           -0.4218577             -11.4793
        61        2.0000           -0.4146470             -11.2831
        62        2.0000           -0.4013980             -10.9226
        63        2.0000           -0.3920255             -10.6676
        64        2.0000           -0.3822723             -10.4022
        65        2.0000           -0.3705476             -10.0831
        66        2.0000           -0.3075160              -8.3679
        67        1.9980           -0.3006933              -8.1823
        68        1.8976           -0.2969024              -8.0791 (HOMO)
        69        0.1044           -0.2913742              -7.9287 (LUMO)
        70                         -0.2423833              -6.5956
        71                         -0.2133842              -5.8065
        72                         -0.1774606              -4.8289
        73                         -0.1721164              -4.6835
        74                         -0.1354780              -3.6865
        75                         -0.1129315              -3.0730
        76                         -0.1036839              -2.8214
        77                         -0.1007915              -2.7427
        78                         -0.0989166              -2.6917
        79                         -0.0850073              -2.3132
       ...                                ...                  ...
       134                          0.7263664              19.7654
      -------------------------------------------------------------
                  HL-Gap            0.0055282 Eh            0.1504 eV

Wiberg/Mayer (AO) data.
largest (>0.10) Wiberg bond orders for each atom

     #   Z sym  total        # sym  WBO       # sym  WBO       # sym  WBO
 ---------------------------------------------------------------------------
     1   6 C    3.925 --    27 H    0.986    26 H    0.980    28 H    0.980
                             2 O    0.958
     2   8 O    2.053 --     1 C    0.958     3 C    0.916
     3   6 C    3.848 --     4 O    1.445     5 C    1.346     2 O    0.916
     4   8 O    1.775 --     3 C    1.445     5 C    0.109
     5   6 C    3.828 --     3 C    1.346     6 N    1.186    23 C    0.914
                             4 O    0.109
     6   7 N    3.049 --     7 C    1.620     5 C    1.186
     7   6 C    3.896 --     6 N    1.620    20 N    1.005     8 C    0.979
     8   6 C    3.923 --     9 C    0.995    10 C    0.986     7 C    0.979
                            11 N    0.898
     9   6 C    3.994 --     8 C    0.995    30 H    0.985    29 H    0.985
                            31 H    0.985
    10   6 C    3.990 --    34 H    0.986     8 C    0.986    33 H    0.985
                            32 H    0.983
    11   7 N    3.337 --    12 C    1.271    35 H    0.902     8 C    0.898
                            13 O    0.174
    12   6 C    3.889 --    13 O    1.537    11 N    1.271    14 C    1.007
    13   8 O    1.843 --    12 C    1.537    11 N    0.174
    14   6 C    3.823 --    15 N    1.586    19 O    1.033    12 C    1.007
    15   7 N    2.940 --    14 C    1.586    16 N    1.191
    16   7 N    2.980 --    17 C    1.619    15 N    1.191
    17   6 C    3.859 --    16 N    1.619    19 O    1.068    18 C    1.029
    18   6 C    3.989 --    17 C    1.029    38 H    0.983    36 H    0.967
                            37 H    0.963
    19   8 O    2.289 --    17 C    1.068    14 C    1.033
    20   7 N    3.344 --    21 C    1.170     7 C    1.005    39 H    0.914
                            22 O    0.116
    21   6 C    3.808 --    22 O    1.562    20 N    1.170    23 C    0.877
    22   8 O    1.831 --    21 C    1.562    20 N    0.116
    23   6 C    3.960 --    25 O    1.121    24 C    0.951     5 C    0.914
                            21 C    0.877
    24   6 C    3.990 --    42 H    0.990    41 H    0.987    40 H    0.987
                            23 C    0.951
    25   8 O    1.398 --    23 C    1.121
    26   1 H    1.022 --     1 C    0.980
    27   1 H    1.021 --     1 C    0.986
    28   1 H    1.023 --     1 C    0.980
    29   1 H    1.018 --     9 C    0.985
    30   1 H    1.017 --     9 C    0.985
    31   1 H    1.014 --     9 C    0.985
    32   1 H    1.014 --    10 C    0.983
    33   1 H    1.008 --    10 C    0.985
    34   1 H    1.007 --    10 C    0.986
    35   1 H    0.950 --    11 N    0.902
    36   1 H    0.998 --    18 C    0.967
    37   1 H    0.997 --    18 C    0.963
    38   1 H    1.000 --    18 C    0.983
    39   1 H    0.965 --    20 N    0.914
    40   1 H    1.036 --    24 C    0.987
    41   1 H    1.026 --    24 C    0.987
    42   1 H    1.017 --    24 C    0.990
 ---------------------------------------------------------------------------

           -------------------------------------------------
          | TOTAL ENERGY              -83.612444255646 Eh   |
          | GRADIENT NORM               0.000575483461 Eh/α |
          | HOMO-LUMO GAP               0.150429475697 eV   |
           -------------------------------------------------

 * finished run on 2023/06/21 at 17:28:44.092
