   * xtb version 6.5.1 (579679a) compiled by 'ehlert@majestix' on 2022-07-11
          program call               : /lustre/hpc/kemi/ree/PhD/git/ReactivityQM/dep/xtb-6.5.1/bin/xtb --gfn 1 /lustre/hpc/kemi/ree/PhD/git/ReactivityQM/calculations/R02deprot/reac01prodN11/conf17/R02deprot_reac01prodN11_conf17_gfn1.xyz --opt --vfukui --chrg 0 --uhf 0 --alpb DMSO

   ID    Z sym.   atoms
    1    6 C      1, 3, 5, 6, 8, 11-15, 17, 19, 22, 23
    2    8 O      2, 4, 7, 9, 18, 24
    3    7 N      10, 16, 20, 21, 25
    4    1 H      26-42

      * Solvation model:               ALPB
        Solvent                        DMSO
        Solvent mass                       7.8130E+01 g/mol
          :  Hamiltonian                  GFN1-xTB          :
 * total energy  :   -82.9181340 Eh     change       -0.4249046E-11 Eh
 * total energy  :   -82.9322310 Eh     change       -0.1409696E-01 Eh
 * total energy  :   -82.9378598 Eh     change       -0.5628791E-02 Eh
 * total energy  :   -82.9389944 Eh     change       -0.1134604E-02 Eh
 * total energy  :   -82.9398004 Eh     change       -0.8060604E-03 Eh
 * total energy  :   -82.9402039 Eh     change       -0.4034684E-03 Eh
 * total energy  :   -82.9404827 Eh     change       -0.2788214E-03 Eh
 * total energy  :   -82.9406708 Eh     change       -0.1880881E-03 Eh
 * total energy  :   -82.9408395 Eh     change       -0.1686933E-03 Eh
 * total energy  :   -82.9409881 Eh     change       -0.1486026E-03 Eh
 * total energy  :   -82.9413798 Eh     change       -0.4701738E-05 Eh
 * total energy  :   -82.9413939 Eh     change       -0.1403768E-04 Eh
 * total energy  :   -82.9414022 Eh     change       -0.8273857E-05 Eh
 * total energy  :   -82.9414191 Eh     change       -0.1695963E-04 Eh
 * total energy  :   -82.9414305 Eh     change       -0.1136594E-04 Eh
 * total energy  :   -82.9414402 Eh     change       -0.9677191E-05 Eh
 * total energy  :   -82.9414509 Eh     change       -0.1078523E-04 Eh
 * total energy  :   -82.9414573 Eh     change       -0.6339268E-05 Eh
 * total energy  :   -82.9414611 Eh     change       -0.3862594E-05 Eh
   *** GEOMETRY OPTIMIZATION CONVERGED AFTER 32 ITERATIONS ***

 final structure:
================
42
 xtb: 6.5.1 (579679a)
C           -5.78365060761245        2.06119470709819        0.42230162709928
O           -4.51243743931149        1.42419241507598        0.22435202767369
C           -4.44769468711762        0.13457673579811        0.46178287413691
O           -5.38844786920267       -0.54089032242483        0.83442241251756
C           -3.08749059381674       -0.45659600878608        0.23444065720784
C           -2.86865052513648       -1.83553535115834        0.51916754454990
O           -3.81588308694044       -2.61543197436495        0.92966640729468
C           -1.49946510667144       -2.41926794552818        0.35728388432695
O           -1.27123978739288       -3.58842130122563        0.65359828228570
N           -0.58286971992055       -1.56851059951788       -0.12950485530815
C           -0.86018308500754       -0.23481128586019       -0.46942455330018
C           -0.64354793728282       -0.09862197242308       -1.99912813670355
C            0.18402553452622        0.67799864930955        0.29374762447728
C           -0.10124321005826        0.59354509313878        1.79649797935544
C            0.11569391240723        2.12214894317044       -0.19276619657916
N            1.47936546097421        0.07719171033166        0.01271231118582
C            2.66623089393834        0.66301237981242        0.28182080148206
O            2.83067197739256        1.81283572554635        0.64607357291352
C            3.78394527822786       -0.28911117795086        0.04915918767238
N            3.67391228551635       -1.54224052508043       -0.27384378257958
N            4.94032918415169       -2.03171348472978       -0.38553590064608
C            5.74279044478630       -1.04514394613310       -0.12253303868965
C            7.22206718401227       -1.06031290898633       -0.11619108562406
O            5.07279988391810        0.08109926945157        0.16204186207414
N           -2.14062657610583        0.30890214146334       -0.21947161557096
H           -6.13052485804572        1.88354718246972        1.44167358754354
H           -5.62574937438289        3.12301251119958        0.24864569032156
H           -6.51002687104924        1.65960691258619       -0.28626142600616
H           -4.68535860726866       -2.13876616066548        1.01557028675349
H           -1.26181408223256       -0.84117083690553       -2.49829213700064
H            0.40363073530680       -0.28149294425791       -2.22693625479368
H           -0.93424223297674        0.89356253980927       -2.33146229464304
H           -1.07582874561636        1.02739281961536        2.01146212092326
H           -0.08799671198465       -0.44263778360234        2.13075501826825
H            0.66338466284628        1.15098458086787        2.33621760613985
H            0.57539428346142        2.22767067805414       -1.17328063745108
H            0.64175351366067        2.77187435605978        0.50491141885861
H           -0.92448600079083        2.43835381312617       -0.24631586800145
H            1.46682834742775       -0.92908245631878       -0.12985948611253
H            7.59384606399149       -0.76597173874111        0.86459103306263
H            7.57899625673689       -2.05800555957220       -0.35773842105522
H            7.60379281264042       -0.34896887975453       -0.84805812805753

          :  Hamiltonian                  GFN1-xTB          :
         :: total energy             -82.941461144989 Eh    ::
         :: gradient norm              0.000841088717 Eh/a0 ::
         :: HOMO-LUMO gap              0.864541283644 eV    ::
         :: SCC energy               -83.703547689331 Eh    ::
         :: -> Gsolv                  -0.055470649311 Eh    ::
         :: repulsion energy           0.789198247949 Eh    ::

    * Orbital Energies and Occupations

         #    Occupation            Energy/Eh            Energy/eV
      -------------------------------------------------------------
         1        2.0000           -0.8648836             -23.5347
       ...           ...                  ...                  ...
        55        2.0000           -0.5070665             -13.7980
        56        2.0000           -0.5047231             -13.7342
        57        2.0000           -0.5025955             -13.6763
        58        2.0000           -0.4965966             -13.5131
        59        2.0000           -0.4894324             -13.3181
        60        2.0000           -0.4836338             -13.1603
        61        2.0000           -0.4669730             -12.7070
        62        2.0000           -0.4619313             -12.5698
        63        2.0000           -0.4579550             -12.4616
        64        2.0000           -0.4535835             -12.3426
        65        2.0000           -0.4487864             -12.2121
        66        2.0000           -0.4286049             -11.6629
        67        2.0000           -0.4227586             -11.5038 (HOMO)
        68        0.0000           -0.3909873             -10.6393 (LUMO)
        69                         -0.3278678              -8.9217
        70                         -0.3120772              -8.4921
        71                         -0.2580553              -7.0220
        72                         -0.2390344              -6.5045
        73                         -0.2008567              -5.4656
        74                         -0.1847105              -5.0262
        75                         -0.1439139              -3.9161
        76                         -0.1433039              -3.8995
        77                         -0.1372514              -3.7348
        78                         -0.1249800              -3.4009
       ...                                ...                  ...
       134                          0.7250060              19.7284
      -------------------------------------------------------------
                  HL-Gap            0.0317713 Eh            0.8645 eV

Wiberg/Mayer (AO) data.
largest (>0.10) Wiberg bond orders for each atom

     #   Z sym  total        # sym  WBO       # sym  WBO       # sym  WBO
 ---------------------------------------------------------------------------
     1   6 C    3.853 --    27 H    0.985    26 H    0.978    28 H    0.978
                             2 O    0.879
     2   8 O    2.241 --     3 C    1.171     1 C    0.879     4 O    0.139
     3   6 C    3.848 --     4 O    1.619     2 O    1.171     5 C    0.976
     4   8 O    1.965 --     3 C    1.619     2 O    0.139
     5   6 C    3.968 --    25 N    1.571     6 C    1.196     3 C    0.976
     6   6 C    3.830 --     7 O    1.287     5 C    1.196     8 C    0.997
                            10 N    0.162
     7   8 O    2.228 --     6 C    1.287    29 H    0.738
     8   6 C    3.934 --     9 O    1.539    10 N    1.297     6 C    0.997
     9   8 O    1.842 --     8 C    1.539    10 N    0.164
    10   7 N    3.030 --     8 C    1.297    11 C    1.065     9 O    0.164
                             6 C    0.162    25 N    0.155
    11   6 C    3.941 --    10 N    1.065    25 N    1.037    12 C    0.890
                            13 C    0.852
    12   6 C    3.976 --    32 H    0.984    30 H    0.983    31 H    0.980
                            11 C    0.890
    13   6 C    3.926 --    15 C    1.003    14 C    0.987    16 N    0.941
                            11 C    0.852
    14   6 C    3.990 --    13 C    0.987    33 H    0.984    34 H    0.983
                            35 H    0.980
    15   6 C    3.989 --    13 C    1.003    36 H    0.982    38 H    0.982
                            37 H    0.971
    16   7 N    3.350 --    17 C    1.242    13 C    0.941    39 H    0.880
                            18 O    0.172
    17   6 C    3.915 --    18 O    1.599    16 N    1.242    19 C    0.988
    18   8 O    1.913 --    17 C    1.599    16 N    0.172
    19   6 C    3.874 --    20 N    1.611    24 O    1.063    17 C    0.988
    20   7 N    3.016 --    19 C    1.611    21 N    1.200
    21   7 N    2.980 --    22 C    1.605    20 N    1.200
    22   6 C    3.870 --    21 N    1.605    24 O    1.083    23 C    1.031
    23   6 C    3.986 --    22 C    1.031    41 H    0.983    40 H    0.964
                            42 H    0.963
    24   8 O    2.330 --    22 C    1.083    19 C    1.063
    25   7 N    3.032 --     5 C    1.571    11 C    1.037    10 N    0.155
    26   1 H    1.003 --     1 C    0.978
    27   1 H    1.008 --     1 C    0.985
    28   1 H    1.003 --     1 C    0.978
    29   1 H    0.832 --     7 O    0.738
    30   1 H    1.001 --    12 C    0.983
    31   1 H    1.005 --    12 C    0.980
    32   1 H    1.003 --    12 C    0.984
    33   1 H    1.003 --    14 C    0.984
    34   1 H    1.005 --    14 C    0.983
    35   1 H    1.001 --    14 C    0.980
    36   1 H    1.002 --    15 C    0.982
    37   1 H    1.010 --    15 C    0.971
    38   1 H    1.010 --    15 C    0.982
    39   1 H    0.970 --    16 N    0.880
    40   1 H    0.997 --    23 C    0.964
    41   1 H    0.998 --    23 C    0.983
    42   1 H    0.997 --    23 C    0.963
 ---------------------------------------------------------------------------

           -------------------------------------------------
          | TOTAL ENERGY              -82.941461144989 Eh   |
          | GRADIENT NORM               0.000841088717 Eh/α |
          | HOMO-LUMO GAP               0.864541283644 eV   |
           -------------------------------------------------

 * finished run on 2023/06/20 at 18:18:17.319
