   * xtb version 6.5.1 (579679a) compiled by 'ehlert@majestix' on 2022-07-11
          program call               : /lustre/hpc/kemi/ree/PhD/git/ReactivityQM/dep/xtb-6.5.1/bin/xtb --gfn 1 /lustre/hpc/kemi/ree/PhD/git/ReactivityQM/calculations/RaltegravirCLI/reac02prodN15/conf09/RaltegravirCLI_reac02prodN15_conf09_gfn1.xyz --opt --vfukui --chrg 1 --uhf 0 --alpb DMSO

   ID    Z sym.   atoms
    1    6 C      1, 3-6, 9, 10, 13-18, 20-22, 24
    2    7 N      2, 7, 8, 12
    3    8 O      11, 23, 25
    4    9 F      19
    5    1 H      26-47

      * Solvation model:               ALPB
        Solvent                        DMSO
        Solvent mass                       7.8130E+01 g/mol
          :  Hamiltonian                  GFN1-xTB          :
 * total energy  :   -79.5026023 Eh     change       -0.8483880E-11 Eh
 * total energy  :   -79.5124658 Eh     change       -0.9863517E-02 Eh
 * total energy  :   -79.5154550 Eh     change       -0.2989211E-02 Eh
 * total energy  :   -79.5160895 Eh     change       -0.6344895E-03 Eh
 * total energy  :   -79.5164629 Eh     change       -0.3733406E-03 Eh
 * total energy  :   -79.5166297 Eh     change       -0.1668672E-03 Eh
 * total energy  :   -79.5167856 Eh     change       -0.1558879E-03 Eh
 * total energy  :   -79.5169197 Eh     change       -0.1340446E-03 Eh
 * total energy  :   -79.5170275 Eh     change       -0.1078334E-03 Eh
 * total energy  :   -79.5171081 Eh     change       -0.8053925E-04 Eh
 * total energy  :   -79.5180876 Eh     change       -0.2818382E-04 Eh
 * total energy  :   -79.5181114 Eh     change       -0.2375705E-04 Eh
 * total energy  :   -79.5181283 Eh     change       -0.1693295E-04 Eh
 * total energy  :   -79.5181448 Eh     change       -0.1652008E-04 Eh
 * total energy  :   -79.5181618 Eh     change       -0.1693918E-04 Eh
 * total energy  :   -79.5181721 Eh     change       -0.1036706E-04 Eh
 * total energy  :   -79.5181738 Eh     change       -0.1672986E-05 Eh
 * total energy  :   -79.5181801 Eh     change       -0.6299858E-05 Eh
 * total energy  :   -79.5181842 Eh     change       -0.4088244E-05 Eh
   *** GEOMETRY OPTIMIZATION CONVERGED AFTER 39 ITERATIONS ***

 final structure:
================
47
 xtb: 6.5.1 (579679a)
C            4.04513995519487        0.07774109093227        1.35717034108881
N            2.70397952563682       -0.19846402046053        0.82775457171461
C            2.27001527147506        0.23329795024612       -0.40283039729081
C            3.16525384800855        1.00712104826472       -1.36085615152159
C            4.05063955828868        0.00130898385766       -2.11328425076607
C            2.28600516568893        1.76612406015640       -2.36974230991171
N            4.00452113302214        1.94812699134843       -0.63181180275962
N            1.08202045600733       -0.03982034781238       -0.84514451580265
C            0.18728484967512       -0.76580413781495       -0.10579146473062
C           -1.09365934699641       -0.95193924636394       -0.77120440387316
O           -1.42528459815655       -0.53119094320017       -1.83536608776731
N           -2.09858034834527       -1.80762407047040       -0.01629317667997
C           -1.87623451788607       -3.21787833295408       -0.42649119566524
C           -3.50097159718665       -1.35995815351622       -0.29733696334351
C           -3.71877541800681        0.01391257348144        0.28035260227475
C           -3.85590141862977        0.16667472411290        1.65994619865240
C           -4.05505955312839        1.42370309807162        2.21056891673271
C           -4.11670932937820        2.51146423718796        1.35632545998082
F           -4.31136130673710        3.72678046122621        1.87907096611046
C           -3.98479362504839        2.39259698784088       -0.01677971516039
C           -3.78087063691094        1.12914396802475       -0.55237987936243
C            0.54858593534150       -1.20615921508698        1.14019712632746
O           -0.24358438538739       -1.91426157356286        1.94780327444057
C            1.87575343610329       -0.90804023650100        1.66880021262899
O            2.19949657121270       -1.28769560300359        2.78599262656099
H            4.78515292601790       -0.03318069202395        0.57185428816146
H            4.07787736748064        1.09444667066812        1.74504885567217
H            4.24253067330919       -0.63175239337505        2.15998676198661
H            4.71327803323336       -0.52678976258299       -1.43013769291375
H            3.42635085696290       -0.72689189105141       -2.62947125714472
H            4.65626041534996        0.53141742376569       -2.84686199913635
H            1.60060823743968        2.42840952712652       -1.84326627552656
H            2.92239945745897        2.36032348501469       -3.02314113714681
H            1.70626894173974        1.06890216413272       -2.97296781601913
H            4.70178399555070        2.32497805143478       -1.25957147341677
H            3.43728813219920        2.71811413588157       -0.30210194095927
H           -1.92476119257887       -1.74576011446026        0.99072592426305
H           -0.86605416870741       -3.49703826999373       -0.13851419653042
H           -2.00934527984949       -3.29502664385827       -1.50281864751351
H           -2.60057399319174       -3.83676406216405        0.09587381791309
H           -4.15368850964795       -2.09720090660144        0.17117561173084
H           -3.63619931129255       -1.37965584607508       -1.37955286103216
H           -3.80873524219065       -0.70158704306036        2.30533338651196
H           -4.16247959833118        1.55704929360302        3.27877260200024
H           -4.03783826361822        3.26902156067100       -0.65078805090624
H           -3.66528793711324        1.00875189508664       -1.62335166910522
H            0.23825383592559       -2.09892387615135        2.78337378723428

          :  Hamiltonian                  GFN1-xTB          :
         :: total energy             -79.518184178198 Eh    ::
         :: gradient norm              0.000985494403 Eh/a0 ::
         :: HOMO-LUMO gap              1.402120054021 eV    ::
         :: SCC energy               -80.414800292269 Eh    ::
         :: -> Gsolv                  -0.105911200127 Eh    ::
         :: repulsion energy           0.928304424057 Eh    ::

    * Orbital Energies and Occupations

         #    Occupation            Energy/Eh            Energy/eV
      -------------------------------------------------------------
         1        2.0000           -0.8865867             -24.1253
       ...           ...                  ...                  ...
        55        2.0000           -0.5205738             -14.1655
        56        2.0000           -0.5136304             -13.9766
        57        2.0000           -0.5111797             -13.9099
        58        2.0000           -0.5070853             -13.7985
        59        2.0000           -0.5031182             -13.6905
        60        2.0000           -0.4904725             -13.3464
        61        2.0000           -0.4885319             -13.2936
        62        2.0000           -0.4809887             -13.0884
        63        2.0000           -0.4691823             -12.7671
        64        2.0000           -0.4682153             -12.7408
        65        2.0000           -0.4573827             -12.4460
        66        2.0000           -0.4526201             -12.3164
        67        2.0000           -0.4228999             -11.5077 (HOMO)
        68                         -0.3713730             -10.1056 (LUMO)
        69                         -0.3044724              -8.2851
        70                         -0.2912216              -7.9245
        71                         -0.2889448              -7.8626
        72                         -0.2813242              -7.6552
        73                         -0.1878894              -5.1127
        74                         -0.1691602              -4.6031
        75                         -0.1661926              -4.5223
        76                         -0.1487269              -4.0471
        77                         -0.1471970              -4.0054
        78                         -0.1411208              -3.8401
       ...                                ...                  ...
       144                          0.7193578              19.5747
      -------------------------------------------------------------
                  HL-Gap            0.0515270 Eh            1.4021 eV

Wiberg/Mayer (AO) data.
largest (>0.10) Wiberg bond orders for each atom

     #   Z sym  total        # sym  WBO       # sym  WBO       # sym  WBO
 ---------------------------------------------------------------------------
     1   6 C    3.908 --    26 H    0.976    28 H    0.975    27 H    0.972
                             2 N    0.918
     2   7 N    3.530 --     3 C    1.170    24 C    1.153     1 C    0.918
                            25 O    0.143
     3   6 C    3.912 --     8 N    1.564     2 N    1.170     4 C    0.977
     4   6 C    3.964 --     7 N    0.988     6 C    0.987     5 C    0.977
                             3 C    0.977
     5   6 C    3.992 --    30 H    0.985    31 H    0.981    29 H    0.980
                             4 C    0.977
     6   6 C    3.993 --     4 C    0.987    33 H    0.985    32 H    0.985
                            34 H    0.983
     7   7 N    2.976 --     4 C    0.988    36 H    0.939    35 H    0.935
     8   7 N    3.026 --     3 C    1.564     9 C    1.175
     9   6 C    3.966 --    22 C    1.452     8 N    1.175    10 C    1.085
    10   6 C    3.853 --    11 O    1.794     9 C    1.085    12 N    0.842
    11   8 O    2.052 --    10 C    1.794
    12   7 N    3.607 --    13 C    0.901    14 C    0.885    37 H    0.867
                            10 C    0.842
    13   6 C    3.892 --    39 H    0.984    38 H    0.980    40 H    0.979
                            12 N    0.901
    14   6 C    3.898 --    15 C    1.005    42 H    0.972    41 H    0.969
                            12 N    0.885
    15   6 C    3.984 --    21 C    1.418    16 C    1.413    14 C    1.005
    16   6 C    3.994 --    17 C    1.449    15 C    1.413    43 H    0.969
                            20 C    0.110
    17   6 C    3.991 --    16 C    1.449    18 C    1.395    44 H    0.967
                            21 C    0.109
    18   6 C    3.865 --    20 C    1.398    17 C    1.395    19 F    0.938
    19   9 F    1.071 --    18 C    0.938
    20   6 C    3.991 --    21 C    1.445    18 C    1.398    45 H    0.968
                            16 C    0.110
    21   6 C    3.992 --    20 C    1.445    15 C    1.418    46 H    0.968
                            17 C    0.109
    22   6 C    3.912 --     9 C    1.452    23 O    1.112    24 C    1.060
    23   8 O    2.111 --    22 C    1.112    47 H    0.773
    24   6 C    3.923 --    25 O    1.567     2 N    1.153    22 C    1.060
    25   8 O    1.917 --    24 C    1.567     2 N    0.143
    26   1 H    1.020 --     1 C    0.976
    27   1 H    1.014 --     1 C    0.972
    28   1 H    1.005 --     1 C    0.975
    29   1 H    1.003 --     5 C    0.980
    30   1 H    1.002 --     5 C    0.985
    31   1 H    0.998 --     5 C    0.981
    32   1 H    1.006 --     6 C    0.985
    33   1 H    1.002 --     6 C    0.985
    34   1 H    1.012 --     6 C    0.983
    35   1 H    0.950 --     7 N    0.935
    36   1 H    0.954 --     7 N    0.939
    37   1 H    0.941 --    12 N    0.867
    38   1 H    0.994 --    13 C    0.980
    39   1 H    0.992 --    13 C    0.984
    40   1 H    0.990 --    13 C    0.979
    41   1 H    0.995 --    14 C    0.969
    42   1 H    1.000 --    14 C    0.972
    43   1 H    0.995 --    16 C    0.969
    44   1 H    0.995 --    17 C    0.967
    45   1 H    0.996 --    20 C    0.968
    46   1 H    1.001 --    21 C    0.968
    47   1 H    0.819 --    23 O    0.773
 ---------------------------------------------------------------------------

           -------------------------------------------------
          | TOTAL ENERGY              -79.518184178198 Eh   |
          | GRADIENT NORM               0.000985494403 Eh/α |
          | HOMO-LUMO GAP               1.402120054021 eV   |
           -------------------------------------------------

 * finished run on 2023/06/20 at 15:37:50.079
