   * xtb version 6.5.1 (579679a) compiled by 'ehlert@majestix' on 2022-07-11
          program call               : /lustre/hpc/kemi/ree/PhD/git/ReactivityQM/dep/xtb-6.5.1/bin/xtb --gfn 1 /lustre/hpc/kemi/ree/PhD/git/ReactivityQM/calculations/RaltegravirCLI/reac02prodE03/conf02/RaltegravirCLI_reac02prodE03_conf02_gfn1.xyz --opt --vfukui --chrg -1 --uhf 0 --alpb DMSO

   ID    Z sym.   atoms
    1    6 C      1, 3, 5, 7, 8, 11-15, 17, 18, 20-24
    2    7 N      2, 10, 19, 25
    3    8 O      4, 6, 9
    4    9 F      16
    5    1 H      26-47

      * Solvation model:               ALPB
        Solvent                        DMSO
        Solvent mass                       7.8130E+01 g/mol
          :  Hamiltonian                  GFN1-xTB          :
 * total energy  :   -80.1264480 Eh     change       -0.9160317E-10 Eh
 * total energy  :   -80.1374248 Eh     change       -0.1097678E-01 Eh
 * total energy  :   -80.1421104 Eh     change       -0.4685648E-02 Eh
 * total energy  :   -80.1442624 Eh     change       -0.2151974E-02 Eh
 * total energy  :   -80.1457383 Eh     change       -0.1475907E-02 Eh
 * total energy  :   -80.1468800 Eh     change       -0.1141658E-02 Eh
 * total energy  :   -80.1480512 Eh     change       -0.1171249E-02 Eh
 * total energy  :   -80.1494903 Eh     change       -0.1439085E-02 Eh
 * total energy  :   -80.1513673 Eh     change       -0.1877021E-02 Eh
 * total energy  :   -80.1532513 Eh     change       -0.1883938E-02 Eh
 * total energy  :   -80.1672121 Eh     change       -0.1322277E-04 Eh
 * total energy  :   -80.1672225 Eh     change       -0.1034475E-04 Eh
 * total energy  :   -80.1672315 Eh     change       -0.8997529E-05 Eh
 * total energy  :   -80.1672412 Eh     change       -0.9727286E-05 Eh
 * total energy  :   -80.1672494 Eh     change       -0.8228479E-05 Eh
 * total energy  :   -80.1672560 Eh     change       -0.6605871E-05 Eh
 * total energy  :   -80.1672632 Eh     change       -0.7110286E-05 Eh
 * total energy  :   -80.1672727 Eh     change       -0.9567039E-05 Eh
 * total energy  :   -80.1672762 Eh     change       -0.3519400E-05 Eh
   *** GEOMETRY OPTIMIZATION CONVERGED AFTER 68 ITERATIONS ***

 final structure:
================
47
 xtb: 6.5.1 (579679a)
C           -3.54592538230172       -2.25949021394486       -1.45092559523205
N           -2.27802042664963       -1.67285600146129       -1.02716936507842
C           -1.14035003438868       -2.06003069093774       -1.73358162561542
O           -1.16525248511600       -3.01401574970859       -2.58090687837006
C           -0.03705550115407       -1.19856309385276       -1.55446039161800
O            0.94525955464679       -1.27714507000885       -2.52689479450149
C           -0.03743657307218       -0.22496305113551       -0.54578835675991
C            0.70900829079856        0.99105732982052       -0.45311805970128
O            0.54659530086741        1.84324483214608        0.44413218231891
N            1.63650965626357        1.23684671393772       -1.47369529395346
C            2.67638542669315        2.22502128991568       -1.21633302968377
C            3.79820946208363        1.61590976220615       -0.40184430209911
C            4.92637689511304        1.10082444805696       -1.03712154615997
C            5.94080141283397        0.49618528541757       -0.30638891063369
C            5.79842453763086        0.41706136907961        1.06632317533578
F            6.77700484800264       -0.16883407641765        1.78440237007621
C            4.69478200989964        0.91849090844466        1.73254252139633
C            3.69144533024207        1.51845133471423        0.98523010067835
N           -0.94098022237292       -0.50901168841208        0.55725541154384
C           -0.48405448622983       -1.64131817692482        1.39518959430383
C           -2.22488923976780       -0.74453864069995       -0.02832928877058
C           -3.35782660436563        0.19336406746312        0.33268572093110
C           -2.79085269551824        1.42636800021433        1.06082884412938
C           -4.37416512367526       -0.50025904836068        1.26202777048141
N           -4.07994163536245        0.62502573034749       -0.87609301444536
H           -4.26521052835929       -1.47743380638729       -1.69854301566550
H           -3.95129914434416       -2.88346070458420       -0.65171749386955
H           -3.36669131798130       -2.88147741666585       -2.32992913778331
H            0.69149482171685       -2.01989066095845       -3.10558999490259
H            1.97955289085045        0.42293471622265       -1.96832785390911
H            3.05947771438949        2.58085519956647       -2.17759779789405
H            2.22841966868972        3.06935554206500       -0.68161868090882
H            5.02174417907281        1.17602267855725       -2.11443446667082
H            6.82305032241948        0.09680829898148       -0.78879636872070
H            4.62713733538978        0.83913269932670        2.80994321075636
H            2.81475017340566        1.91671094544431        1.48554583340290
H           -0.39009840247019       -2.57244697895972        0.82157032167216
H            0.48582200132679       -1.38717969896126        1.82455046452280
H           -1.20834372575939       -1.78668309026980        2.19762893624804
H           -3.59559188923986        2.13044633210919        1.26995230742211
H           -2.03776812886327        1.92168103858757        0.44732279762205
H           -2.32570703048532        1.12944096401668        2.00079667831552
H           -3.86021831552267       -0.90953088323160        2.13107691803052
H           -5.12471522982888        0.21357734372708        1.60198384122086
H           -4.88122524752453       -1.31134204393006        0.74242518587119
H           -3.49955341355416        1.26585114390997       -1.40437435654700
H           -4.90907804843169        1.12980081153926       -0.59722056677616

          :  Hamiltonian                  GFN1-xTB          :
         :: total energy             -80.167276238201 Eh    ::
         :: gradient norm              0.000320366999 Eh/a0 ::
         :: HOMO-LUMO gap              0.925024044216 eV    ::
         :: SCC energy               -81.011786239297 Eh    ::
         :: -> Gsolv                  -0.100928072307 Eh    ::
         :: repulsion energy           0.876533947628 Eh    ::

    * Orbital Energies and Occupations

         #    Occupation            Energy/Eh            Energy/eV
      -------------------------------------------------------------
         1        2.0000           -0.8537674             -23.2322
       ...           ...                  ...                  ...
        56        2.0000           -0.4601269             -12.5207
        57        2.0000           -0.4588577             -12.4862
        58        2.0000           -0.4509070             -12.2698
        59        2.0000           -0.4389087             -11.9433
        60        2.0000           -0.4258101             -11.5869
        61        2.0000           -0.4130234             -11.2389
        62        2.0000           -0.4062511             -11.0547
        63        2.0000           -0.3934357             -10.7059
        64        2.0000           -0.3918720             -10.6634
        65        2.0000           -0.3846493             -10.4668
        66        2.0000           -0.3665896              -9.9754
        67        2.0000           -0.3616014              -9.8397
        68        2.0000           -0.2948763              -8.0240 (HOMO)
        69                         -0.2608822              -7.0990 (LUMO)
        70                         -0.2561992              -6.9715
        71                         -0.2516473              -6.8477
        72                         -0.1713481              -4.6626
        73                         -0.1327425              -3.6121
        74                         -0.1202483              -3.2721
        75                         -0.1160499              -3.1579
        76                         -0.1048599              -2.8534
        77                         -0.1031078              -2.8057
        78                         -0.0975222              -2.6537
        79                         -0.0940495              -2.5592
       ...                                ...                  ...
       144                          0.6779657              18.4484
      -------------------------------------------------------------
                  HL-Gap            0.0339940 Eh            0.9250 eV

Wiberg/Mayer (AO) data.
largest (>0.10) Wiberg bond orders for each atom

     #   Z sym  total        # sym  WBO       # sym  WBO       # sym  WBO
 ---------------------------------------------------------------------------
     1   6 C    3.952 --    27 H    0.982    28 H    0.977    26 H    0.974
                             2 N    0.949
     2   7 N    3.505 --    21 C    1.215     3 C    1.091     1 C    0.949
                             4 O    0.111
     3   6 C    3.918 --     4 O    1.322     5 C    1.253     2 N    1.091
                            21 C    0.120
     4   8 O    1.695 --     3 C    1.322     2 N    0.111
     5   6 C    3.887 --     7 C    1.336     3 C    1.253     6 O    0.993
                            21 C    0.130
     6   8 O    1.995 --     5 C    0.993    29 H    0.832
     7   6 C    3.903 --     5 C    1.336     8 C    1.203    19 N    0.954
                            21 C    0.136
     8   6 C    3.909 --     9 O    1.468     7 C    1.203    10 N    1.090
     9   8 O    1.808 --     8 C    1.468    10 N    0.101
    10   7 N    3.196 --     8 C    1.090    11 C    0.961    30 H    0.912
                             9 O    0.101
    11   6 C    3.969 --    12 C    0.995    31 H    0.979    32 H    0.971
                            10 N    0.961
    12   6 C    3.985 --    13 C    1.418    18 C    1.411    11 C    0.995
    13   6 C    3.994 --    14 C    1.440    12 C    1.418    33 H    0.972
                            17 C    0.109
    14   6 C    3.992 --    13 C    1.440    15 C    1.404    34 H    0.970
                            18 C    0.111
    15   6 C    3.855 --    14 C    1.404    17 C    1.400    16 F    0.915
    16   9 F    1.039 --    15 C    0.915
    17   6 C    3.992 --    18 C    1.446    15 C    1.400    35 H    0.971
                            13 C    0.109
    18   6 C    3.991 --    17 C    1.446    12 C    1.411    36 H    0.968
                            14 C    0.111
    19   7 N    3.045 --    21 C    0.988    20 C    0.960     7 C    0.954
    20   6 C    3.986 --    39 H    0.989    38 H    0.988    37 H    0.982
                            19 N    0.960
    21   6 C    3.856 --     2 N    1.215    22 C    0.993    19 N    0.988
                             7 C    0.136     5 C    0.130     3 C    0.120
    22   6 C    3.963 --    21 C    0.993    23 C    0.989    24 C    0.981
                            25 N    0.966
    23   6 C    3.996 --    22 C    0.989    40 H    0.987    42 H    0.984
                            41 H    0.982
    24   6 C    3.990 --    43 H    0.986    44 H    0.985    45 H    0.983
                            22 C    0.981
    25   7 N    2.985 --    22 C    0.966    47 H    0.950    46 H    0.949
    26   1 H    1.034 --     1 C    0.974
    27   1 H    1.011 --     1 C    0.982
    28   1 H    1.023 --     1 C    0.977
    29   1 H    0.886 --     6 O    0.832
    30   1 H    0.972 --    10 N    0.912
    31   1 H    1.010 --    11 C    0.979
    32   1 H    1.021 --    11 C    0.971
    33   1 H    1.001 --    13 C    0.972
    34   1 H    0.999 --    14 C    0.970
    35   1 H    1.000 --    17 C    0.971
    36   1 H    1.017 --    18 C    0.968
    37   1 H    1.010 --    20 C    0.982
    38   1 H    1.020 --    20 C    0.988
    39   1 H    1.024 --    20 C    0.989
    40   1 H    1.007 --    23 C    0.987
    41   1 H    1.025 --    23 C    0.982
    42   1 H    1.019 --    23 C    0.984
    43   1 H    1.012 --    24 C    0.986
    44   1 H    1.003 --    24 C    0.985
    45   1 H    1.011 --    24 C    0.983
    46   1 H    0.970 --    25 N    0.949
    47   1 H    0.965 --    25 N    0.950
 ---------------------------------------------------------------------------

           -------------------------------------------------
          | TOTAL ENERGY              -80.167276238201 Eh   |
          | GRADIENT NORM               0.000320366999 Eh/α |
          | HOMO-LUMO GAP               0.925024044216 eV   |
           -------------------------------------------------

 * finished run on 2023/06/20 at 14:59:39.617
