   * xtb version 6.5.1 (579679a) compiled by 'ehlert@majestix' on 2022-07-11
          program call               : /lustre/hpc/kemi/ree/PhD/git/ReactivityQM/dep/xtb-6.5.1/bin/xtb --gfn 1 /lustre/hpc/kemi/ree/PhD/git/ReactivityQM/calculations/R02deprot/reac01prodN01/conf20/R02deprot_reac01prodN01_conf20_gfn1.xyz --opt --vfukui --chrg 0 --uhf 0 --alpb DMSO

   ID    Z sym.   atoms
    1    6 C      1, 3, 5, 7-10, 12, 14, 17, 18, 20, 22, 24
    2    8 O      2, 4, 13, 19, 23, 25
    3    7 N      6, 11, 15, 16, 21
    4    1 H      26-42

      * Solvation model:               ALPB
        Solvent                        DMSO
        Solvent mass                       7.8130E+01 g/mol
          :  Hamiltonian                  GFN1-xTB          :
 * total energy  :   -82.8712833 Eh     change       -0.4901324E-10 Eh
 * total energy  :   -82.8867288 Eh     change       -0.1544544E-01 Eh
 * total energy  :   -82.8933177 Eh     change       -0.6588890E-02 Eh
 * total energy  :   -82.8950366 Eh     change       -0.1718957E-02 Eh
 * total energy  :   -82.8966573 Eh     change       -0.1620646E-02 Eh
 * total energy  :   -82.8975467 Eh     change       -0.8894016E-03 Eh
 * total energy  :   -82.8984665 Eh     change       -0.9198042E-03 Eh
 * total energy  :   -82.8993161 Eh     change       -0.8496072E-03 Eh
 * total energy  :   -82.8999593 Eh     change       -0.6431874E-03 Eh
 * total energy  :   -82.9004366 Eh     change       -0.4772985E-03 Eh
 * total energy  :   -82.9076771 Eh     change       -0.2223014E-04 Eh
 * total energy  :   -82.9077004 Eh     change       -0.2333904E-04 Eh
 * total energy  :   -82.9077185 Eh     change       -0.1806447E-04 Eh
 * total energy  :   -82.9077307 Eh     change       -0.1225997E-04 Eh
 * total energy  :   -82.9077422 Eh     change       -0.1149480E-04 Eh
 * total energy  :   -82.9077490 Eh     change       -0.6741139E-05 Eh
 * total energy  :   -82.9077545 Eh     change       -0.5499758E-05 Eh
 * total energy  :   -82.9077603 Eh     change       -0.5868600E-05 Eh
 * total energy  :   -82.9077633 Eh     change       -0.2982341E-05 Eh
   *** GEOMETRY OPTIMIZATION CONVERGED AFTER 62 ITERATIONS ***

 final structure:
================
42
 xtb: 6.5.1 (579679a)
C            6.29026215669702        0.14924880728891       -0.22618035937290
O            4.86376802845135        0.08609093679950       -0.21520717905483
C            4.28277786367494        0.03487504262895        0.98665405896085
O            4.93538098925690        0.03408571322494        2.02106646728345
C            2.81268367887078       -0.01248792572020        0.94302759037036
N            2.22163021525834       -0.01957202103078       -0.29411227440926
C            0.91401987035094       -0.06841710139165       -0.30531704872110
C            0.22131363920443       -0.07278516186270       -1.66643750869753
C            0.79854416299617       -1.17533644190437       -2.55879506896433
C            0.37697001825426        1.30453056931325       -2.31268468274620
N           -1.18833786190907       -0.37451640674123       -1.36395482590169
C           -2.28111273375958        0.11286106222651       -1.93656402269636
O           -2.39913833414887        0.69593256287265       -2.99405783328990
C           -3.51632336328503       -0.21737052672761       -1.10548776014673
N           -4.60767473093080       -0.75560322965307       -1.48688414033871
N           -5.42464834452001       -0.93569276091547       -0.39820506010781
C           -4.82637647947863       -0.49937716841057        0.64063647498557
C           -5.27828080782578       -0.46191653758957        2.04036731018867
O           -3.56297304760209       -0.01187579816460        0.28408175235145
C           -2.66463821695748        0.76255503162088        1.14975259079323
N            0.10326422385034       -0.09187254953606        0.75005963501002
C            0.60124551496933       -0.06528985205013        2.01714187776723
O           -0.15601932009880       -0.05258302563955        3.00092449081425
C            2.06639937665076       -0.04434311235019        2.10291560542576
O            2.61260341611492       -0.04436373621335        3.33388854980087
H            6.71194274842838       -0.73699390986468        0.25496618580814
H            6.63224927147944        1.04206530244414        0.30364637068172
H            6.59456229634373        0.19167004946698       -1.27039614233717
H            0.61588692339443       -2.15105126258422       -2.11075813321546
H            1.87379333363676       -1.02527486269441       -2.65308518472173
H            0.34015235305225       -1.14616393299872       -3.54636383049602
H            1.43945260567059        1.54352572186171       -2.35328283967649
H           -0.02984650714935        1.31503437299780       -3.32234666919776
H           -0.13193159395095        2.05910384502515       -1.71473539955286
H           -1.28527632772020       -0.80443968513360       -0.44849044383993
H           -4.56349827213326       -0.97429467214681        2.68443761613801
H           -6.24955618208315       -0.94748278006706        2.10869574434755
H           -5.36501472525167        0.56935688389423        2.38408349980308
H           -2.18527223677916        0.07854930060252        1.85293025119644
H           -1.91774006634884        1.21527806849772        0.50341132444980
H           -3.26788702643540        1.51299161208337        1.65419131926578
H            3.59264349176182       -0.01864842147478        3.26646669204210

          :  Hamiltonian                  GFN1-xTB          :
         :: total energy             -82.907763301335 Eh    ::
         :: gradient norm              0.000572510886 Eh/a0 ::
         :: HOMO-LUMO gap              1.132400822884 eV    ::
         :: SCC energy               -83.680539709611 Eh    ::
         :: -> Gsolv                  -0.070557208053 Eh    ::
         :: repulsion energy           0.800289545183 Eh    ::

    * Orbital Energies and Occupations

         #    Occupation            Energy/Eh            Energy/eV
      -------------------------------------------------------------
         1        2.0000           -0.9552570             -25.9939
       ...           ...                  ...                  ...
        55        2.0000           -0.5007034             -13.6248
        56        2.0000           -0.4987027             -13.5704
        57        2.0000           -0.4922252             -13.3941
        58        2.0000           -0.4874457             -13.2641
        59        2.0000           -0.4839408             -13.1687
        60        2.0000           -0.4761673             -12.9572
        61        2.0000           -0.4625478             -12.5866
        62        2.0000           -0.4575714             -12.4512
        63        2.0000           -0.4479995             -12.1907
        64        2.0000           -0.4325476             -11.7702
        65        2.0000           -0.4150431             -11.2939
        66        2.0000           -0.3883101             -10.5665
        67        2.0000           -0.3831459             -10.4259 (HOMO)
        68                         -0.3415309              -9.2935 (LUMO)
        69                         -0.3013076              -8.1990
        70                         -0.2895881              -7.8801
        71                         -0.2556674              -6.9571
        72                         -0.2401875              -6.5358
        73                         -0.2025538              -5.5118
        74                         -0.1734622              -4.7201
        75                         -0.1655967              -4.5061
        76                         -0.1295358              -3.5248
        77                         -0.1216835              -3.3112
        78                         -0.1194169              -3.2495
       ...                                ...                  ...
       134                          0.7277382              19.8028
      -------------------------------------------------------------
                  HL-Gap            0.0416150 Eh            1.1324 eV

Wiberg/Mayer (AO) data.
largest (>0.10) Wiberg bond orders for each atom

     #   Z sym  total        # sym  WBO       # sym  WBO       # sym  WBO
 ---------------------------------------------------------------------------
     1   6 C    3.879 --    28 H    0.987    26 H    0.980    27 H    0.980
                             2 O    0.905
     2   8 O    2.198 --     3 C    1.107     1 C    0.905     4 O    0.121
     3   6 C    3.838 --     4 O    1.590     2 O    1.107     5 C    1.044
     4   8 O    1.926 --     3 C    1.590     2 O    0.121
     5   6 C    3.962 --    24 C    1.461     6 N    1.197     3 C    1.044
     6   7 N    2.998 --     7 C    1.480     5 C    1.197
     7   6 C    3.958 --     6 N    1.480    21 N    1.350     8 C    0.963
     8   6 C    3.910 --    10 C    0.989     9 C    0.987     7 C    0.963
                            11 N    0.896
     9   6 C    3.992 --     8 C    0.987    31 H    0.986    29 H    0.985
                            30 H    0.982
    10   6 C    3.991 --     8 C    0.989    34 H    0.985    32 H    0.983
                            33 H    0.982
    11   7 N    3.396 --    12 C    1.333     8 C    0.896    35 H    0.871
                            13 O    0.202
    12   6 C    3.928 --    13 O    1.600    11 N    1.333    14 C    0.919
    13   8 O    1.927 --    12 C    1.600    11 N    0.202
    14   6 C    3.788 --    15 N    1.743    12 C    0.919    19 O    0.870
    15   7 N    3.031 --    14 C    1.743    16 N    1.130
    16   7 N    3.020 --    17 C    1.713    15 N    1.130
    17   6 C    3.810 --    16 N    1.713    18 C    1.042    19 O    0.880
    18   6 C    3.972 --    17 C    1.042    37 H    0.972    36 H    0.955
                            38 H    0.950
    19   8 O    2.639 --    17 C    0.880    14 C    0.870    20 C    0.741
    20   6 C    3.717 --    41 H    0.974    40 H    0.968    39 H    0.956
                            19 O    0.741
    21   7 N    3.035 --     7 C    1.350    22 C    1.220    23 O    0.125
    22   6 C    3.926 --    23 O    1.497    21 N    1.220    24 C    1.072
    23   8 O    1.826 --    22 C    1.497    21 N    0.125
    24   6 C    3.910 --     5 C    1.461    25 O    1.091    22 C    1.072
    25   8 O    2.063 --    24 C    1.091    42 H    0.794
    26   1 H    1.009 --     1 C    0.980
    27   1 H    1.009 --     1 C    0.980
    28   1 H    1.012 --     1 C    0.987
    29   1 H    1.004 --     9 C    0.985
    30   1 H    1.012 --     9 C    0.982
    31   1 H    1.002 --     9 C    0.986
    32   1 H    1.009 --    10 C    0.983
    33   1 H    1.010 --    10 C    0.982
    34   1 H    1.002 --    10 C    0.985
    35   1 H    0.961 --    11 N    0.871
    36   1 H    0.989 --    18 C    0.955
    37   1 H    0.991 --    18 C    0.972
    38   1 H    0.990 --    18 C    0.950
    39   1 H    1.036 --    20 C    0.956
    40   1 H    1.023 --    20 C    0.968
    41   1 H    0.992 --    20 C    0.974
    42   1 H    0.868 --    25 O    0.794
 ---------------------------------------------------------------------------

           -------------------------------------------------
          | TOTAL ENERGY              -82.907763301335 Eh   |
          | GRADIENT NORM               0.000572510886 Eh/α |
          | HOMO-LUMO GAP               1.132400822884 eV   |
           -------------------------------------------------

 * finished run on 2023/06/20 at 18:04:28.382
