   * xtb version 6.5.1 (579679a) compiled by 'ehlert@majestix' on 2022-07-11
          program call               : /lustre/hpc/kemi/ree/PhD/git/ReactivityQM/dep/xtb-6.5.1/bin/xtb --gfn 1 /lustre/hpc/kemi/ree/PhD/git/ReactivityQM/calculations/R03/reac02prodN03/conf07/R03_reac02prodN03_conf07_gfn1.xyz --opt --vfukui --chrg 1 --uhf 0 --alpb DMSO

   ID    Z sym.   atoms
    1    6 C      1, 3, 5, 6, 8-11, 13, 15, 18, 19, 22, 23, 25
    2    8 O      2, 4, 14, 20, 24, 26
    3    7 N      7, 12, 16, 17, 21
    4    1 H      27-46

      * Solvation model:               ALPB
        Solvent                        DMSO
        Solvent mass                       7.8130E+01 g/mol
          :  Hamiltonian                  GFN1-xTB          :
 * total energy  :   -86.3086216 Eh     change       -0.1303135E-10 Eh
 * total energy  :   -86.3341898 Eh     change       -0.2556825E-01 Eh
 * total energy  :   -86.3420822 Eh     change       -0.7892383E-02 Eh
 * total energy  :   -86.3440454 Eh     change       -0.1963169E-02 Eh
 * total energy  :   -86.3450684 Eh     change       -0.1023051E-02 Eh
 * total energy  :   -86.3454649 Eh     change       -0.3964383E-03 Eh
 * total energy  :   -86.3457881 Eh     change       -0.3232467E-03 Eh
 * total energy  :   -86.3460417 Eh     change       -0.2535679E-03 Eh
 * total energy  :   -86.3462112 Eh     change       -0.1695566E-03 Eh
 * total energy  :   -86.3463294 Eh     change       -0.1181760E-03 Eh
 * total energy  :   -86.3469197 Eh     change       -0.6416402E-05 Eh
 * total energy  :   -86.3469263 Eh     change       -0.6605467E-05 Eh
 * total energy  :   -86.3469344 Eh     change       -0.8077239E-05 Eh
 * total energy  :   -86.3469444 Eh     change       -0.1003395E-04 Eh
 * total energy  :   -86.3469532 Eh     change       -0.8713920E-05 Eh
 * total energy  :   -86.3469475 Eh     change        0.5619001E-05 Eh
 * total energy  :   -86.3469671 Eh     change       -0.1953123E-04 Eh
 * total energy  :   -86.3469729 Eh     change       -0.5789899E-05 Eh
 * total energy  :   -86.3469775 Eh     change       -0.4692048E-05 Eh
   *** GEOMETRY OPTIMIZATION CONVERGED AFTER 39 ITERATIONS ***

 final structure:
================
46
 xtb: 6.5.1 (579679a)
C           -5.47527695384508        1.56950682644057        2.28429739008167
O           -4.48542969672266        0.63598023379408        1.81523698489496
C           -3.49482353575779        1.04486123524323        1.10227125631046
O           -3.46871357617266        2.30609504680049        0.84143057924288
C           -2.46279478981005        3.01522725429210        0.10414933271809
C           -2.53031838014757        0.04983492908213        0.68401379416803
N           -1.51467326176075        0.43882001104717       -0.15455852820034
C           -0.60904767557972       -0.39573858163866       -0.56223262049678
C            0.43372874399563        0.14307975908052       -1.53443229568348
C            0.21355469473736       -0.49729556636944       -2.91389319952949
C            0.31640364550302        1.66649107809472       -1.65851741004980
N            1.75905304673501       -0.16648019509351       -0.98763505793321
C            2.91006728462690        0.09684528316274       -1.66162181330103
O            2.98429812127164        0.43718882131842       -2.82681808207709
C            4.10967730114670       -0.11316339586999       -0.81767063124180
N            5.35241190497204        0.03848126680781       -1.15270413847018
N            6.09610597480284       -0.25990520949435       -0.05202903047829
C            5.26240374856883       -0.57594897947417        0.88933504229495
C            5.57228441623198       -0.97995557188772        2.27755876139094
O            3.98725964249301       -0.50341178578477        0.47059456854542
N           -0.61254146068491       -1.71525233127831       -0.18433505015297
C            0.36236371679429       -2.73293046979521       -0.59872578751137
C           -1.59586246264359       -2.22185961232139        0.63652865307066
O           -1.64592495051705       -3.39320311163893        0.97470002851924
C           -2.60313947835109       -1.26462453671501        1.09586540179513
O           -3.52716384136935       -1.75580822048949        1.89517129496688
H           -5.95804496248661        2.04714490754010        1.43116842975458
H           -6.18781921715611        0.98215825107607        2.85869144418381
H           -4.99462364555912        2.32331810339710        2.90828543361760
H           -2.46149663833250        2.67862089371088       -0.93184153402221
H           -2.74368830245427        4.06571863236292        0.16799739444578
H           -1.48511208337784        2.84678085502746        0.55351060000316
H            0.48240589516178       -1.55019219073272       -2.91413087975957
H           -0.83759239065267       -0.40046525504651       -3.18137858863470
H            0.81494389436083        0.01731460369513       -3.66111808821443
H            0.42963117270408        2.13357583586225       -0.68274718279764
H            1.09803505198862        2.03392846211980       -2.32212370708914
H           -0.65313817493666        1.93078769057687       -2.07445097892899
H            1.82131685452951       -0.24129407839836        0.01472410846280
H            5.06311059757322       -0.31921146135955        2.97795693527537
H            5.21779045858903       -1.99462256850674        2.45600155593654
H            6.64604391124307       -0.93435452882628        2.44295788666461
H           -0.10164697395016       -3.37475087037317       -1.34729350539935
H            1.25758529033383       -2.26873483623465       -0.99258190827240
H            0.60828005447096       -3.32910182757754        0.27956494897609
H           -3.34988297055188       -2.70810879562470        2.05083019293252

          :  Hamiltonian                  GFN1-xTB          :
         :: total energy             -86.346977544499 Eh    ::
         :: gradient norm              0.000521762035 Eh/a0 ::
         :: HOMO-LUMO gap              1.997448096313 eV    ::
         :: SCC energy               -87.177354708600 Eh    ::
         :: -> Gsolv                  -0.112413958539 Eh    ::
         :: repulsion energy           0.859798466372 Eh    ::

    * Orbital Energies and Occupations

         #    Occupation            Energy/Eh            Energy/eV
      -------------------------------------------------------------
         1        2.0000           -0.9121550             -24.8210
       ...           ...                  ...                  ...
        58        2.0000           -0.5256903             -14.3048
        59        2.0000           -0.5191713             -14.1274
        60        2.0000           -0.5135404             -13.9741
        61        2.0000           -0.5093334             -13.8597
        62        2.0000           -0.5027789             -13.6813
        63        2.0000           -0.4922655             -13.3952
        64        2.0000           -0.4843093             -13.1787
        65        2.0000           -0.4805404             -13.0762
        66        2.0000           -0.4727513             -12.8642
        67        2.0000           -0.4663917             -12.6912
        68        2.0000           -0.4612679             -12.5517
        69        2.0000           -0.4568340             -12.4311
        70        2.0000           -0.4536482             -12.3444 (HOMO)
        71                         -0.3802433             -10.3469 (LUMO)
        72                         -0.3183074              -8.6616
        73                         -0.3170880              -8.6284
        74                         -0.2900322              -7.8922
        75                         -0.2603431              -7.0843
        76                         -0.2055670              -5.5938
        77                         -0.1973207              -5.3694
        78                         -0.1702843              -4.6337
        79                         -0.1612899              -4.3889
        80                         -0.1499477              -4.0803
        81                         -0.1438168              -3.9135
       ...                                ...                  ...
       144                          0.7277896              19.8042
      -------------------------------------------------------------
                  HL-Gap            0.0734049 Eh            1.9974 eV

Wiberg/Mayer (AO) data.
largest (>0.10) Wiberg bond orders for each atom

     #   Z sym  total        # sym  WBO       # sym  WBO       # sym  WBO
 ---------------------------------------------------------------------------
     1   6 C    3.824 --    28 H    0.982    27 H    0.972    29 H    0.972
                             2 O    0.855
     2   8 O    2.310 --     3 C    1.262     1 C    0.855
     3   6 C    3.815 --     2 O    1.262     4 O    1.251     6 C    1.117
     4   8 O    2.308 --     3 C    1.251     5 C    0.850
     5   6 C    3.815 --    31 H    0.978    32 H    0.972    30 H    0.969
                             4 O    0.850
     6   6 C    3.956 --    25 C    1.414     7 N    1.162     3 C    1.117
     7   7 N    3.036 --     8 C    1.569     6 C    1.162
     8   6 C    3.920 --     7 N    1.569    21 N    1.173     9 C    0.976
     9   6 C    3.935 --    11 C    0.990    10 C    0.979     8 C    0.976
                            12 N    0.927
    10   6 C    3.984 --    34 H    0.984    33 H    0.980     9 C    0.979
                            35 H    0.975
    11   6 C    3.987 --     9 C    0.990    36 H    0.982    38 H    0.981
                            37 H    0.979
    12   7 N    3.326 --    13 C    1.219     9 C    0.927    39 H    0.893
                            14 O    0.167
    13   6 C    3.912 --    14 O    1.607    12 N    1.219    15 C    0.997
    14   8 O    1.921 --    13 C    1.607    12 N    0.167
    15   6 C    3.874 --    16 N    1.621    20 O    1.045    13 C    0.997
    16   7 N    3.002 --    15 C    1.621    17 N    1.201
    17   7 N    2.983 --    18 C    1.608    16 N    1.201
    18   6 C    3.867 --    17 N    1.608    20 O    1.071    19 C    1.032
    19   6 C    3.985 --    18 C    1.032    42 H    0.982    40 H    0.963
                            41 H    0.961
    20   8 O    2.314 --    18 C    1.071    15 C    1.045
    21   7 N    3.525 --     8 C    1.173    23 C    1.146    22 C    0.915
                            24 O    0.142
    22   6 C    3.903 --    44 H    0.974    45 H    0.972    43 H    0.971
                            21 N    0.915
    23   6 C    3.918 --    24 O    1.588    21 N    1.146    25 C    1.044
    24   8 O    1.933 --    23 C    1.588    21 N    0.142
    25   6 C    3.913 --     6 C    1.414    26 O    1.175    23 C    1.044
    26   8 O    2.146 --    25 C    1.175    46 H    0.780
    27   1 H    0.998 --     1 C    0.972
    28   1 H    1.002 --     1 C    0.982
    29   1 H    0.998 --     1 C    0.972
    30   1 H    1.013 --     5 C    0.969
    31   1 H    1.001 --     5 C    0.978
    32   1 H    1.012 --     5 C    0.972
    33   1 H    1.000 --    10 C    0.980
    34   1 H    1.000 --    10 C    0.984
    35   1 H    1.010 --    10 C    0.975
    36   1 H    1.004 --    11 C    0.982
    37   1 H    1.003 --    11 C    0.979
    38   1 H    1.006 --    11 C    0.981
    39   1 H    0.936 --    12 N    0.893
    40   1 H    0.996 --    19 C    0.963
    41   1 H    0.996 --    19 C    0.961
    42   1 H    0.998 --    19 C    0.982
    43   1 H    0.998 --    22 C    0.971
    44   1 H    1.007 --    22 C    0.974
    45   1 H    1.000 --    22 C    0.972
    46   1 H    0.824 --    26 O    0.780
 ---------------------------------------------------------------------------

           -------------------------------------------------
          | TOTAL ENERGY              -86.346977544499 Eh   |
          | GRADIENT NORM               0.000521762035 Eh/α |
          | HOMO-LUMO GAP               1.997448096313 eV   |
           -------------------------------------------------

 * finished run on 2023/06/20 at 15:38:36.412
