   * xtb version 6.5.1 (579679a) compiled by 'ehlert@majestix' on 2022-07-11
          program call               : /lustre/hpc/kemi/ree/PhD/git/ReactivityQM/dep/xtb-6.5.1/bin/xtb --gfn 1 /lustre/hpc/kemi/ree/PhD/git/ReactivityQM/calculations/R02oxygendeprot/reac01prodE09/conf15/R02oxygendeprot_reac01prodE09_conf15_gfn1.xyz --opt --vfukui --chrg -2 --uhf 0 --alpb DMSO

   ID    Z sym.   atoms
    1    6 C      1, 3, 5, 7-10, 12, 14, 16, 17, 20, 22, 24
    2    8 O      2, 4, 13, 15, 23, 25
    3    7 N      6, 11, 18, 19, 21
    4    1 H      26-42

      * Solvation model:               ALPB
        Solvent                        DMSO
        Solvent mass                       7.8130E+01 g/mol
          :  Hamiltonian                  GFN1-xTB          :
 * total energy  :   -83.5960827 Eh     change       -0.1048761E-10 Eh
 * total energy  :   -83.6111910 Eh     change       -0.1510825E-01 Eh
 * total energy  :   -83.6165161 Eh     change       -0.5325076E-02 Eh
 * total energy  :   -83.6174992 Eh     change       -0.9831792E-03 Eh
 * total energy  :   -83.6184171 Eh     change       -0.9178131E-03 Eh
 * total energy  :   -83.6195731 Eh     change       -0.1156047E-02 Eh
 * total energy  :   -83.6213510 Eh     change       -0.1777874E-02 Eh
 * total energy  :   -83.6229000 Eh     change       -0.1548984E-02 Eh
 * total energy  :   -83.6251588 Eh     change       -0.2258795E-02 Eh
 * total energy  :   -83.6270675 Eh     change       -0.1908733E-02 Eh
 * total energy  :   -83.6347376 Eh     change       -0.5926678E-04 Eh
 * total energy  :   -83.6348006 Eh     change       -0.6296769E-04 Eh
 * total energy  :   -83.6348364 Eh     change       -0.3574427E-04 Eh
 * total energy  :   -83.6348588 Eh     change       -0.2246630E-04 Eh
 * total energy  :   -83.6348678 Eh     change       -0.9003618E-05 Eh
 * total energy  :   -83.6348810 Eh     change       -0.1318685E-04 Eh
 * total energy  :   -83.6348900 Eh     change       -0.8987894E-05 Eh
 * total energy  :   -83.6348960 Eh     change       -0.6045823E-05 Eh
 * total energy  :   -83.6348998 Eh     change       -0.3787777E-05 Eh
   *** GEOMETRY OPTIMIZATION CONVERGED AFTER 45 ITERATIONS ***

 final structure:
================
42
 xtb: 6.5.1 (579679a)
C            6.85479526377296        1.49069900597239       -1.29250985012033
O            5.63678701420064        1.72638376231853       -0.60551794021150
C            4.69645894334618        0.74671888126846       -0.71468328931407
O            4.92805120905921       -0.25775446889811       -1.38191628313414
C            3.46219480495464        1.00473167742496        0.00466852944717
N            2.54007429487807       -0.02269604462952       -0.12592853362137
C            1.39638221991087        0.05261327192014        0.44772014764107
C            0.40109007373459       -1.09507962255972        0.39448788025343
C            0.65785404382421       -1.95134800641081        1.64903896767537
C            0.63898772360699       -1.91799475416245       -0.88217995803701
N           -0.93628381544371       -0.50573610174154        0.44219339389920
C           -2.08039070345748       -1.40229233956050        0.30308684982146
O           -1.97169735905539       -2.63895033144217        0.57123547537163
C           -3.26029959063784       -0.74530822896759        0.08129416710934
O           -3.33682325196051        0.60500413057374       -0.38431566427599
C           -4.52817976281069        0.68519504209531       -0.98513061939999
C           -4.92702782463794        1.98422593278861       -1.59919202586245
N           -5.25646458059857       -0.36554821758389       -0.99090351737494
N           -4.51348971813383       -1.39759957577783       -0.30946662908955
C           -5.30611057624373       -1.81599273206969        0.85885569183344
N            1.04540152111525        1.13776002284628        1.22429482896045
C            1.85401780856691        2.21479721112677        1.44608538758358
O            1.46379081621304        3.14373345860890        2.15644289022083
C            3.20929912177994        2.16785285035113        0.77709408589240
O            3.98948578217828        3.12798073977701        0.94582115950804
H            6.68068128947532        1.37186541899367       -2.36709772572055
H            7.34694092732685        0.58792593515581       -0.91549490403039
H            7.49422837721203        2.35562015185080       -1.11863253254902
H            1.70775020378791       -2.24390613859336        1.68349156563470
H            0.42351588268790       -1.37237445124527        2.54223078215399
H            0.04215531421489       -2.84893871921141        1.64017625968686
H           -0.00439195145656       -2.79672436928210       -0.89112569433847
H            1.68071419333410       -2.23752193654694       -0.92281645975844
H            0.42617477117348       -1.31148864251854       -1.76261076067759
H           -1.01628812611987        0.23682419391492       -0.24829723213618
H           -4.25254018979043        2.24102951709720       -2.41636325936546
H           -5.94232341139005        1.91243584184105       -1.98143782946900
H           -4.87553688685735        2.77848327483138       -0.85494421563062
H           -4.75634828817383       -2.61151615363620        1.36134363586166
H           -5.47062228191372       -0.98586084393104        1.55397162231690
H           -6.26628249795768       -2.19606143296453        0.51206059919583
H            0.12426821628574        1.14881379097469        1.64151700404219

          :  Hamiltonian                  GFN1-xTB          :
         :: total energy             -83.634899829666 Eh    ::
         :: gradient norm              0.000498051653 Eh/a0 ::
         :: HOMO-LUMO gap              0.794502034718 eV    ::
         :: SCC energy               -84.376433231709 Eh    ::
         :: -> Gsolv                  -0.259540772314 Eh    ::
         :: repulsion energy           0.766777649261 Eh    ::

    * Orbital Energies and Occupations

         #    Occupation            Energy/Eh            Energy/eV
      -------------------------------------------------------------
         1        2.0000           -0.7901717             -21.5017
       ...           ...                  ...                  ...
        56        2.0000           -0.4472647             -12.1707
        57        2.0000           -0.4419710             -12.0266
        58        2.0000           -0.4270077             -11.6195
        59        2.0000           -0.4238839             -11.5345
        60        2.0000           -0.4177228             -11.3668
        61        2.0000           -0.4102198             -11.1626
        62        2.0000           -0.3999074             -10.8820
        63        2.0000           -0.3812054             -10.3731
        64        2.0000           -0.3789732             -10.3124
        65        2.0000           -0.3665224              -9.9736
        66        2.0000           -0.3595344              -9.7834
        67        2.0000           -0.3520206              -9.5790
        68        2.0000           -0.2881683              -7.8415 (HOMO)
        69        0.0000           -0.2589709              -7.0470 (LUMO)
        70                         -0.2203664              -5.9965
        71                         -0.2046679              -5.5693
        72                         -0.1859403              -5.0597
        73                         -0.1329107              -3.6167
        74                         -0.1198701              -3.2618
        75                         -0.1180108              -3.2112
        76                         -0.0971415              -2.6434
        77                         -0.0918922              -2.5005
        78                         -0.0893823              -2.4322
        79                         -0.0883083              -2.4030
       ...                                ...                  ...
       134                          0.7585537              20.6413
      -------------------------------------------------------------
                  HL-Gap            0.0291974 Eh            0.7945 eV

Wiberg/Mayer (AO) data.
largest (>0.10) Wiberg bond orders for each atom

     #   Z sym  total        # sym  WBO       # sym  WBO       # sym  WBO
 ---------------------------------------------------------------------------
     1   6 C    3.903 --    28 H    0.987    27 H    0.980    26 H    0.980
                             2 O    0.930
     2   8 O    2.153 --     3 C    1.036     1 C    0.930     4 O    0.106
     3   6 C    3.848 --     4 O    1.566     5 C    1.127     2 O    1.036
     4   8 O    1.844 --     3 C    1.566     2 O    0.106
     5   6 C    3.918 --    24 C    1.279     6 N    1.144     3 C    1.127
                            25 O    0.130
     6   7 N    3.023 --     7 C    1.635     5 C    1.144
     7   6 C    3.925 --     6 N    1.635    21 N    1.096     8 C    0.975
     8   6 C    3.966 --    10 C    0.987     9 C    0.980     7 C    0.975
                            11 N    0.970
     9   6 C    3.993 --    29 H    0.989    30 H    0.987     8 C    0.980
                            31 H    0.977
    10   6 C    3.996 --     8 C    0.987    34 H    0.987    33 H    0.985
                            32 H    0.983
    11   7 N    3.080 --     8 C    0.970    12 C    0.948    35 H    0.937
    12   6 C    3.927 --    14 C    1.505    13 O    1.347    11 N    0.948
    13   8 O    1.712 --    12 C    1.347    14 C    0.169
    14   6 C    3.644 --    12 C    1.505    19 N    0.948    15 O    0.871
                            13 O    0.169
    15   8 O    2.188 --    16 C    1.090    14 C    0.871    18 N    0.133
    16   6 C    3.907 --    18 N    1.709    15 O    1.090    17 C    1.014
    17   6 C    3.995 --    16 C    1.014    37 H    0.987    38 H    0.974
                            36 H    0.972
    18   7 N    2.946 --    16 C    1.709    19 N    0.985    15 O    0.133
    19   7 N    3.060 --    18 N    0.985    20 C    0.970    14 C    0.948
    20   6 C    3.982 --    41 H    0.989    39 H    0.987    40 H    0.983
                            19 N    0.970
    21   7 N    3.439 --    22 C    1.179     7 C    1.096    42 H    0.892
                            23 O    0.136
    22   6 C    3.884 --    23 O    1.559    21 N    1.179    24 C    0.972
    23   8 O    1.840 --    22 C    1.559    21 N    0.136
    24   6 C    3.944 --    25 O    1.504     5 C    1.279    22 C    0.972
    25   8 O    1.810 --    24 C    1.504     5 C    0.130
    26   1 H    1.015 --     1 C    0.980
    27   1 H    1.015 --     1 C    0.980
    28   1 H    1.016 --     1 C    0.987
    29   1 H    1.009 --     9 C    0.989
    30   1 H    1.011 --     9 C    0.987
    31   1 H    1.031 --     9 C    0.977
    32   1 H    1.023 --    10 C    0.983
    33   1 H    1.020 --    10 C    0.985
    34   1 H    1.009 --    10 C    0.987
    35   1 H    0.978 --    11 N    0.937
    36   1 H    1.004 --    17 C    0.972
    37   1 H    1.006 --    17 C    0.987
    38   1 H    1.003 --    17 C    0.974
    39   1 H    1.031 --    20 C    0.987
    40   1 H    1.022 --    20 C    0.983
    41   1 H    1.025 --    20 C    0.989
    42   1 H    0.963 --    21 N    0.892
 ---------------------------------------------------------------------------

           -------------------------------------------------
          | TOTAL ENERGY              -83.634899829666 Eh   |
          | GRADIENT NORM               0.000498051653 Eh/α |
          | HOMO-LUMO GAP               0.794502034718 eV   |
           -------------------------------------------------

 * finished run on 2023/06/21 at 17:10:43.273
