   * xtb version 6.5.1 (579679a) compiled by 'ehlert@majestix' on 2022-07-11
          program call               : /lustre/hpc/kemi/ree/PhD/git/ReactivityQM/dep/xtb-6.5.1/bin/xtb --gfn 1 /lustre/hpc/kemi/ree/PhD/git/ReactivityQM/calculations/R02deprot/reac01prodN01/conf16/R02deprot_reac01prodN01_conf16_gfn1.xyz --opt --vfukui --chrg 0 --uhf 0 --alpb DMSO

   ID    Z sym.   atoms
    1    6 C      1, 3, 5, 7-10, 12, 14, 17, 18, 20, 22, 24
    2    8 O      2, 4, 13, 19, 23, 25
    3    7 N      6, 11, 15, 16, 21
    4    1 H      26-42

      * Solvation model:               ALPB
        Solvent                        DMSO
        Solvent mass                       7.8130E+01 g/mol
          :  Hamiltonian                  GFN1-xTB          :
 * total energy  :   -82.8756741 Eh     change       -0.8952838E-12 Eh
 * total energy  :   -82.8937682 Eh     change       -0.1809403E-01 Eh
 * total energy  :   -82.9027602 Eh     change       -0.8992066E-02 Eh
 * total energy  :   -82.9056376 Eh     change       -0.2877372E-02 Eh
 * total energy  :   -82.9075515 Eh     change       -0.1913889E-02 Eh
 * total energy  :   -82.9084421 Eh     change       -0.8905726E-03 Eh
 * total energy  :   -82.9090023 Eh     change       -0.5602578E-03 Eh
 * total energy  :   -82.9093712 Eh     change       -0.3688182E-03 Eh
 * total energy  :   -82.9096222 Eh     change       -0.2510531E-03 Eh
 * total energy  :   -82.9098655 Eh     change       -0.2433370E-03 Eh
 * total energy  :   -82.9122970 Eh     change       -0.9168923E-05 Eh
 * total energy  :   -82.9123113 Eh     change       -0.1425918E-04 Eh
 * total energy  :   -82.9123164 Eh     change       -0.5150180E-05 Eh
 * total energy  :   -82.9123246 Eh     change       -0.8203104E-05 Eh
 * total energy  :   -82.9123303 Eh     change       -0.5693214E-05 Eh
 * total energy  :   -82.9123413 Eh     change       -0.1100071E-04 Eh
 * total energy  :   -82.9123479 Eh     change       -0.6610819E-05 Eh
 * total energy  :   -82.9123561 Eh     change       -0.8110797E-05 Eh
 * total energy  :   -82.9123587 Eh     change       -0.2695551E-05 Eh
   *** GEOMETRY OPTIMIZATION CONVERGED AFTER 44 ITERATIONS ***

 final structure:
================
42
 xtb: 6.5.1 (579679a)
C           -4.86429372213559        3.31302803218436        0.07668031219180
O           -4.60750947666889        1.93077627405921       -0.16009864079916
C           -3.32894158817767        1.53613935645669       -0.06025725910385
O           -2.43330410829245        2.31343497238234        0.21344694710668
C           -3.12891317958195        0.09263353775246       -0.31040914974862
N           -1.82424453479984       -0.32074749424703       -0.19267993968298
C           -1.56356205488651       -1.59197063860109       -0.39228315959055
C           -0.11078990273582       -2.02587564530586       -0.24212063158072
C            0.37580799654531       -2.68386976699778       -1.53732482420581
C            0.02007088751464       -2.98487691592727        0.94669488927139
N            0.65411133020345       -0.80168833661621        0.01669484986562
C            1.96224427790109       -0.73584368191959        0.18677622705955
O            2.76902360646908       -1.65404365589868        0.17849684906486
C            2.40598054541964        0.68320608279213        0.40127730833964
N            1.71201668638083        1.75566977996009        0.43559251653453
N            2.54960370193054        2.81924044350702        0.64091075740105
C            3.74903313764034        2.39272356912855        0.72963372753581
C            4.99470433569496        3.14660732639355        0.93872482457517
O            3.75425205344877        0.99899198604212        0.58556932720233
C            4.87234776229306        0.05796875649157        0.62581920587928
N           -2.41718642297678       -2.56169803281568       -0.70540231454870
C           -3.72587083020421       -2.23531206883750       -0.84593143792472
O           -4.62495748664749       -3.04284556883365       -1.14259576162828
C           -4.09024168875631       -0.82764908526597       -0.63156235047379
O           -5.40410412305201       -0.55970207891848       -0.78011820100908
H           -4.30447073661141        3.93160869301828       -0.63005783151005
H           -5.93382082772574        3.46377549180269       -0.05997678273406
H           -4.57427433463692        3.58477095546977        1.09534789484768
H           -0.29427227722854       -3.50788783757950       -1.78197190522496
H            1.38756871545787       -3.06618346877880       -1.41803417854848
H            0.36291554630763       -1.96044281061182       -2.35157742856428
H            1.04267379695840       -3.34605349945049        1.03701489190350
H           -0.26024146215140       -2.47710328972047        1.86878492238150
H           -0.64817294331852       -3.83109219155563        0.78782149641321
H            0.07503956830453        0.04280766124784        0.05936404943883
H            4.75214436581982        4.20560578960737        1.00614053785901
H            5.48637238328470        2.82791818588848        1.85783578430424
H            5.68245908030341        2.98365278582371        0.10887172258224
H            4.68928791519350       -0.63132659569150        1.44737078092054
H            5.76993150040101        0.64583919035219        0.78612476003660
H            4.89592137683901       -0.46203915945319       -0.32950905847961
H           -5.82434286973597       -1.41814604733154       -1.00676572734707

          :  Hamiltonian                  GFN1-xTB          :
         :: total energy             -82.912358746154 Eh    ::
         :: gradient norm              0.000437031931 Eh/a0 ::
         :: HOMO-LUMO gap              0.724814140090 eV    ::
         :: SCC energy               -83.689138686711 Eh    ::
         :: -> Gsolv                  -0.097119610887 Eh    ::
         :: repulsion energy           0.802484242745 Eh    ::

    * Orbital Energies and Occupations

         #    Occupation            Energy/Eh            Energy/eV
      -------------------------------------------------------------
         1        2.0000           -0.9614174             -26.1615
       ...           ...                  ...                  ...
        55        2.0000           -0.4983827             -13.5617
        56        2.0000           -0.4966025             -13.5132
        57        2.0000           -0.4898470             -13.3294
        58        2.0000           -0.4852004             -13.2030
        59        2.0000           -0.4836468             -13.1607
        60        2.0000           -0.4720582             -12.8454
        61        2.0000           -0.4587705             -12.4838
        62        2.0000           -0.4581096             -12.4658
        63        2.0000           -0.4466015             -12.1526
        64        2.0000           -0.4275205             -11.6334
        65        2.0000           -0.4140713             -11.2675
        66        2.0000           -0.3831290             -10.4255
        67        2.0000           -0.3802330             -10.3467 (HOMO)
        68        0.0000           -0.3535966              -9.6219 (LUMO)
        69                         -0.3067167              -8.3462
        70                         -0.2841194              -7.7313
        71                         -0.2381041              -6.4791
        72                         -0.2305582              -6.2738
        73                         -0.1975836              -5.3765
        74                         -0.1860708              -5.0632
        75                         -0.1726762              -4.6988
        76                         -0.1320214              -3.5925
        77                         -0.1183291              -3.2199
        78                         -0.1175847              -3.1996
       ...                                ...                  ...
       134                          0.7357265              20.0201
      -------------------------------------------------------------
                  HL-Gap            0.0266364 Eh            0.7248 eV

Wiberg/Mayer (AO) data.
largest (>0.10) Wiberg bond orders for each atom

     #   Z sym  total        # sym  WBO       # sym  WBO       # sym  WBO
 ---------------------------------------------------------------------------
     1   6 C    3.885 --    27 H    0.986    28 H    0.980    26 H    0.980
                             2 O    0.910
     2   8 O    2.187 --     3 C    1.089     1 C    0.910     4 O    0.124
     3   6 C    3.839 --     4 O    1.628     2 O    1.089     5 C    1.029
     4   8 O    1.891 --     3 C    1.628     2 O    0.124
     5   6 C    3.960 --    24 C    1.486     6 N    1.184     3 C    1.029
     6   7 N    3.038 --     7 C    1.467     5 C    1.184
     7   6 C    3.960 --     6 N    1.467    21 N    1.368     8 C    0.969
     8   6 C    3.912 --     9 C    0.984    10 C    0.982     7 C    0.969
                            11 N    0.905
     9   6 C    3.991 --    31 H    0.986     8 C    0.984    30 H    0.984
                            29 H    0.982
    10   6 C    3.991 --    33 H    0.986    32 H    0.984    34 H    0.983
                             8 C    0.982
    11   7 N    3.429 --    12 C    1.352     8 C    0.905    35 H    0.855
                            13 O    0.204
    12   6 C    3.933 --    13 O    1.547    11 N    1.352    14 C    0.960
    13   8 O    1.913 --    12 C    1.547    11 N    0.204
    14   6 C    3.791 --    15 N    1.710    12 C    0.960    19 O    0.880
    15   7 N    3.040 --    14 C    1.710    16 N    1.141
    16   7 N    3.025 --    17 C    1.705    15 N    1.141
    17   6 C    3.806 --    16 N    1.705    18 C    1.042    19 O    0.874
    18   6 C    3.971 --    17 C    1.042    36 H    0.970    38 H    0.953
                            37 H    0.952
    19   8 O    2.652 --    14 C    0.880    17 C    0.874    20 C    0.751
    20   6 C    3.729 --    40 H    0.975    39 H    0.968    41 H    0.968
                            19 O    0.751
    21   7 N    2.983 --     7 C    1.368    22 C    1.245    23 O    0.123
    22   6 C    3.929 --    23 O    1.482    21 N    1.245    24 C    1.065
    23   8 O    1.820 --    22 C    1.482    21 N    0.123
    24   6 C    3.907 --     5 C    1.486    25 O    1.079    22 C    1.065
    25   8 O    2.054 --    24 C    1.079    42 H    0.811
    26   1 H    1.011 --     1 C    0.980
    27   1 H    1.013 --     1 C    0.986
    28   1 H    1.010 --     1 C    0.980
    29   1 H    1.014 --     9 C    0.982
    30   1 H    1.008 --     9 C    0.984
    31   1 H    1.004 --     9 C    0.986
    32   1 H    1.007 --    10 C    0.984
    33   1 H    1.004 --    10 C    0.986
    34   1 H    1.011 --    10 C    0.983
    35   1 H    0.972 --    11 N    0.855
    36   1 H    0.990 --    18 C    0.970
    37   1 H    0.989 --    18 C    0.952
    38   1 H    0.989 --    18 C    0.953
    39   1 H    1.001 --    20 C    0.968
    40   1 H    0.991 --    20 C    0.975
    41   1 H    1.002 --    20 C    0.968
    42   1 H    0.873 --    25 O    0.811
 ---------------------------------------------------------------------------

           -------------------------------------------------
          | TOTAL ENERGY              -82.912358746154 Eh   |
          | GRADIENT NORM               0.000437031931 Eh/α |
          | HOMO-LUMO GAP               0.724814140090 eV   |
           -------------------------------------------------

 * finished run on 2023/06/20 at 18:04:25.850
