   * xtb version 6.5.1 (579679a) compiled by 'ehlert@majestix' on 2022-07-11
          program call               : /lustre/hpc/kemi/ree/PhD/git/ReactivityQM/dep/xtb-6.5.1/bin/xtb --gfn 1 /lustre/hpc/kemi/ree/PhD/git/ReactivityQM/calculations/R03/reac02prodE04/conf06/R03_reac02prodE04_conf06_gfn1.xyz --opt --vfukui --chrg -1 --uhf 0 --alpb DMSO

   ID    Z sym.   atoms
    1    6 C      1, 3, 5, 6, 8-11, 13, 15, 18, 19, 22, 23, 25
    2    8 O      2, 4, 14, 20, 24, 26
    3    7 N      7, 12, 16, 17, 21
    4    1 H      27-46

      * Solvation model:               ALPB
        Solvent                        DMSO
        Solvent mass                       7.8130E+01 g/mol
          :  Hamiltonian                  GFN1-xTB          :
 * total energy  :   -87.0218945 Eh     change       -0.4928324E-10 Eh
 * total energy  :   -87.0375049 Eh     change       -0.1561034E-01 Eh
 * total energy  :   -87.0442211 Eh     change       -0.6716192E-02 Eh
 * total energy  :   -87.0459163 Eh     change       -0.1695203E-02 Eh
 * total energy  :   -87.0470565 Eh     change       -0.1140189E-02 Eh
 * total energy  :   -87.0474855 Eh     change       -0.4290373E-03 Eh
 * total energy  :   -87.0477688 Eh     change       -0.2832988E-03 Eh
 * total energy  :   -87.0479927 Eh     change       -0.2239114E-03 Eh
 * total energy  :   -87.0481974 Eh     change       -0.2047372E-03 Eh
 * total energy  :   -87.0484372 Eh     change       -0.2397656E-03 Eh
 * total energy  :   -87.0511363 Eh     change       -0.2620299E-04 Eh
 * total energy  :   -87.0511552 Eh     change       -0.1896707E-04 Eh
 * total energy  :   -87.0511908 Eh     change       -0.3556881E-04 Eh
 * total energy  :   -87.0512103 Eh     change       -0.1953659E-04 Eh
 * total energy  :   -87.0512206 Eh     change       -0.1025261E-04 Eh
 * total energy  :   -87.0512312 Eh     change       -0.1059895E-04 Eh
 * total energy  :   -87.0512366 Eh     change       -0.5360192E-05 Eh
 * total energy  :   -87.0512409 Eh     change       -0.4369939E-05 Eh
 * total energy  :   -87.0512450 Eh     change       -0.4062533E-05 Eh
   *** GEOMETRY OPTIMIZATION CONVERGED AFTER 46 ITERATIONS ***

 final structure:
================
46
 xtb: 6.5.1 (579679a)
C           -3.55691866343048        3.07533142112677       -2.25252918284152
O           -3.13603060133348        2.50386840692354       -1.01578071519480
C           -2.29681476544551        1.45211115898980       -1.09224844446337
O           -1.88869942677378        1.02899019598089       -2.15738750828632
C           -2.06714240188968        0.78490069793285        0.27260894557395
C           -2.00956751027495        1.81629387164252        1.40668498803760
N           -0.81195008496554        0.05338177429579        0.23679330237254
C           -0.76279141836808       -1.16727954911431       -0.17621232106964
C            0.66245427947159       -1.76501013509320       -0.20143787396434
C            1.05731799566252       -2.41599154283357       -1.53414007799263
C            0.83310694293404       -2.73176297230078        0.98061436188202
N            1.55992273252114       -0.62365093906172        0.01270513146280
C            2.88664940901000       -0.67465085441620        0.15250631654200
O            3.59141070437242       -1.67333466275545        0.08207357781415
C            3.44332240025884        0.68930222779691        0.39271211822390
N            2.76438711562004        1.79282581916683        0.47715050086113
N            3.66619640754334        2.79614365934242        0.68556499676009
C            4.83674702550541        2.23899172332195        0.71360849620158
C            6.14698369699488        2.89956919798487        0.90387725727530
O            4.76425224478517        0.91105879510930        0.53545938277087
N           -1.85698853174709       -1.90951717267169       -0.47906524368919
C           -1.83867163273539       -3.22751988881767       -1.09292647444558
C           -3.18290950735373       -1.45201830881131       -0.02357946780439
O           -4.13036277067193       -2.28981055528634       -0.00409500399315
C           -3.22459692637177       -0.15987505980510        0.39059719809515
O           -4.43923093425033        0.38901384942206        0.86879851183245
H           -4.12453438421819        2.34682205713683       -2.83795933735290
H           -4.18668886440368        3.92874240369867       -2.00905864642386
H           -2.69221434781345        3.40479601172455       -2.83512391647424
H           -1.20864133905441        2.53182932168527        1.22328635638433
H           -1.81456863453254        1.30294382504071        2.34756859267827
H           -2.95606256489396        2.34904763547836        1.48240476350471
H            0.65746656680869       -3.42192531107242       -1.61830341749367
H            2.14209607785820       -2.49141819684882       -1.59162431041579
H            0.70501268604318       -1.81378845076789       -2.37087145670640
H            0.13946738509139       -3.56518631756561        0.90271126789516
H            0.64429463818012       -2.20437572753042        1.91514309977450
H            1.84777953018916       -3.12644549380954        0.99455030925872
H            1.07261986013974        0.26339312273385        0.16750847660369
H            6.66194562461985        2.47075560505760        1.76292242859803
H            5.99979079301183        3.96494662913243        1.06130782188537
H            6.77270885842285        2.74528888756485        0.02505611422871
H           -2.86334330310408       -3.60774565153535       -1.09367925771154
H           -1.49111422930755       -3.16742937129507       -2.12598602519833
H           -1.21853284181783       -3.93196608054099       -0.53842029678156
H           -5.09755529029046       -0.31964605635360        0.81107766177815

          :  Hamiltonian                  GFN1-xTB          :
         :: total energy             -87.051244992208 Eh    ::
         :: gradient norm              0.000999347873 Eh/a0 ::
         :: HOMO-LUMO gap              0.397321075303 eV    ::
         :: SCC energy               -87.848743279209 Eh    ::
         :: -> Gsolv                  -0.113645013608 Eh    ::
         :: repulsion energy           0.827439110031 Eh    ::

    * Orbital Energies and Occupations

         #    Occupation            Energy/Eh            Energy/eV
      -------------------------------------------------------------
         1        2.0000           -0.8565296             -23.3074
       ...           ...                  ...                  ...
        59        2.0000           -0.4735713             -12.8865
        60        2.0000           -0.4678540             -12.7310
        61        2.0000           -0.4634647             -12.6115
        62        2.0000           -0.4577893             -12.4571
        63        2.0000           -0.4525087             -12.3134
        64        2.0000           -0.4510816             -12.2746
        65        2.0000           -0.4409201             -11.9980
        66        2.0000           -0.4376998             -11.9104
        67        2.0000           -0.4297323             -11.6936
        68        2.0000           -0.3970971             -10.8056
        69        2.0000           -0.3861727             -10.5083
        70        2.0000           -0.3767013             -10.2506
        71        1.9991           -0.3125541              -8.5050 (HOMO)
        72        0.0009           -0.2979528              -8.1077 (LUMO)
        73                         -0.2508336              -6.8255
        74                         -0.2375046              -6.4628
        75                         -0.2222133              -6.0467
        76                         -0.1864444              -5.0734
        77                         -0.1407147              -3.8290
        78                         -0.1333510              -3.6287
        79                         -0.1297795              -3.5315
        80                         -0.1252601              -3.4085
        81                         -0.1140743              -3.1041
        82                         -0.1001699              -2.7258
       ...                                ...                  ...
       144                          0.7308612              19.8877
      -------------------------------------------------------------
                  HL-Gap            0.0146013 Eh            0.3973 eV

Wiberg/Mayer (AO) data.
largest (>0.10) Wiberg bond orders for each atom

     #   Z sym  total        # sym  WBO       # sym  WBO       # sym  WBO
 ---------------------------------------------------------------------------
     1   6 C    3.890 --    28 H    0.987    29 H    0.981    27 H    0.981
                             2 O    0.911
     2   8 O    2.177 --     3 C    1.074     1 C    0.911     4 O    0.117
     3   6 C    3.812 --     4 O    1.636     2 O    1.074     5 C    0.917
     4   8 O    1.894 --     3 C    1.636     2 O    0.117
     5   6 C    3.964 --     6 C    0.987     7 N    0.972    25 C    0.958
                             3 C    0.917
     6   6 C    3.996 --    30 H    0.988     5 C    0.987    31 H    0.987
                            32 H    0.985
     7   7 N    3.011 --     8 C    1.626     5 C    0.972    21 N    0.172
     8   6 C    3.949 --     7 N    1.626    21 N    1.222     9 C    0.959
     9   6 C    3.931 --    10 C    0.990    11 C    0.983     8 C    0.959
                            12 N    0.925
    10   6 C    3.993 --     9 C    0.990    35 H    0.985    33 H    0.982
                            34 H    0.979
    11   6 C    3.993 --    37 H    0.986     9 C    0.983    38 H    0.981
                            36 H    0.980
    12   7 N    3.384 --    13 C    1.304     9 C    0.925    39 H    0.857
                            14 O    0.189
    13   6 C    3.924 --    14 O    1.558    12 N    1.304    15 C    0.980
    14   8 O    1.884 --    13 C    1.558    12 N    0.189
    15   6 C    3.868 --    16 N    1.618    20 O    1.061    13 C    0.980
    16   7 N    3.009 --    15 C    1.618    17 N    1.191
    17   7 N    2.980 --    18 C    1.614    16 N    1.191
    18   6 C    3.874 --    17 N    1.614    20 O    1.080    19 C    1.030
    19   6 C    3.988 --    18 C    1.030    41 H    0.983    40 H    0.965
                            42 H    0.964
    20   8 O    2.324 --    18 C    1.080    15 C    1.061
    21   7 N    3.376 --     8 C    1.222    22 C    0.957    23 C    0.886
                             7 N    0.172
    22   6 C    3.955 --    44 H    0.982    45 H    0.977    43 H    0.969
                            21 N    0.957
    23   6 C    3.917 --    25 C    1.521    24 O    1.360    21 N    0.886
    24   8 O    1.735 --    23 C    1.360    25 C    0.168
    25   6 C    3.801 --    23 C    1.521     5 C    0.958    26 O    0.948
                            24 O    0.168
    26   8 O    1.920 --    25 C    0.948    46 H    0.855
    27   1 H    1.010 --     1 C    0.981
    28   1 H    1.014 --     1 C    0.987
    29   1 H    1.012 --     1 C    0.981
    30   1 H    1.010 --     6 C    0.988
    31   1 H    1.013 --     6 C    0.987
    32   1 H    1.016 --     6 C    0.985
    33   1 H    1.007 --    10 C    0.982
    34   1 H    1.010 --    10 C    0.979
    35   1 H    1.004 --    10 C    0.985
    36   1 H    1.006 --    11 C    0.980
    37   1 H    1.005 --    11 C    0.986
    38   1 H    1.010 --    11 C    0.981
    39   1 H    0.983 --    12 N    0.857
    40   1 H    0.998 --    19 C    0.965
    41   1 H    0.999 --    19 C    0.983
    42   1 H    0.998 --    19 C    0.964
    43   1 H    1.022 --    22 C    0.969
    44   1 H    1.011 --    22 C    0.982
    45   1 H    1.011 --    22 C    0.977
    46   1 H    0.891 --    26 O    0.855
 ---------------------------------------------------------------------------

           -------------------------------------------------
          | TOTAL ENERGY              -87.051244992208 Eh   |
          | GRADIENT NORM               0.000999347873 Eh/α |
          | HOMO-LUMO GAP               0.397321075303 eV   |
           -------------------------------------------------

 * finished run on 2023/06/20 at 15:17:52.866
