   * xtb version 6.5.1 (579679a) compiled by 'ehlert@majestix' on 2022-07-11
          program call               : /lustre/hpc/kemi/ree/PhD/git/ReactivityQM/dep/xtb-6.5.1/bin/xtb --gfn 1 /lustre/hpc/kemi/ree/PhD/git/ReactivityQM/calculations/R03/reac01prodE04/conf02/R03_reac01prodE04_conf02_gfn1.xyz --opt --vfukui --chrg -1 --uhf 0 --alpb DMSO

   ID    Z sym.   atoms
    1    6 C      1, 2, 4-7, 9, 10
    2    9 F      3
    3    7 N      8
    4    1 H      11-21

      * Solvation model:               ALPB
        Solvent                        DMSO
        Solvent mass                       7.8130E+01 g/mol
          :  Hamiltonian                  GFN1-xTB          :
 * total energy  :   -31.4663407 Eh     change       -0.1192291E-10 Eh
 * total energy  :   -31.4723309 Eh     change       -0.5990131E-02 Eh
 * total energy  :   -31.4755263 Eh     change       -0.3195401E-02 Eh
 * total energy  :   -31.4776436 Eh     change       -0.2117348E-02 Eh
 * total energy  :   -31.4805818 Eh     change       -0.2938209E-02 Eh
 * total energy  :   -31.4870624 Eh     change       -0.6480544E-02 Eh
 * total energy  :   -31.4939479 Eh     change       -0.6885560E-02 Eh
 * total energy  :   -31.4977728 Eh     change       -0.3824923E-02 Eh
 * total energy  :   -31.5001615 Eh     change       -0.2388644E-02 Eh
 * total energy  :   -31.5023918 Eh     change       -0.2230276E-02 Eh
 * total energy  :   -31.5112119 Eh     change       -0.1137314E-04 Eh
 * total energy  :   -31.5112256 Eh     change       -0.1370009E-04 Eh
 * total energy  :   -31.5112500 Eh     change       -0.2443476E-04 Eh
 * total energy  :   -31.5112543 Eh     change       -0.4277809E-05 Eh
 * total energy  :   -31.5113125 Eh     change       -0.5825892E-04 Eh
 * total energy  :   -31.5113282 Eh     change       -0.1570296E-04 Eh
 * total energy  :   -31.5113410 Eh     change       -0.1273302E-04 Eh
 * total energy  :   -31.5113628 Eh     change       -0.2185836E-04 Eh
 * total energy  :   -31.5113677 Eh     change       -0.4866947E-05 Eh
   *** GEOMETRY OPTIMIZATION CONVERGED AFTER 72 ITERATIONS ***

 final structure:
================
21
 xtb: 6.5.1 (579679a)
C            3.01453529190187        0.24072458735700       -0.39831688014419
C            1.53104869285090        0.06623252994118       -0.26563474284559
F            4.40042913793074       -0.56447945343155        2.20800901378361
C            0.92265096241264       -1.14799319179081       -0.58244130701314
C           -0.44639563297136       -1.31671295535256       -0.43466428920708
C           -1.24773942017730       -0.27875595674599        0.03781951725420
C           -2.73989547206891       -0.49735801507769        0.21271587756413
N           -3.55369186352419        0.68489755307451       -0.05443044770359
C           -0.64219295817896        0.93551816940477        0.35175971997330
C            0.72637758054056        1.10534573209341        0.20048704592433
H            3.50796394143326       -0.04759080225883        0.54461577035219
H            3.26737603595088        1.28022850216963       -0.60943795324928
H            3.41130705917806       -0.38996719810530       -1.19462689527167
H            1.52153393511383       -1.97196239839502       -0.95886241933451
H           -0.89853103929578       -2.26917260316072       -0.69288072990649
H           -2.94268123928961       -0.82228364585479        1.24158918689823
H           -3.07035136525658       -1.30177062183140       -0.45548027395554
H           -3.38303386154333        1.39204738581081        0.64831963390130
H           -3.30534658644242        1.07496080471227       -0.95379399518576
H           -1.24436903192603        1.76243602880100        0.71179147435905
H            1.17100983333041        2.06565354856661        0.44346269381339

          :  Hamiltonian                  GFN1-xTB          :
         :: total energy             -31.511367688796 Eh    ::
         :: gradient norm              0.000708092605 Eh/a0 ::
         :: HOMO-LUMO gap              2.427217652579 eV    ::
         :: SCC energy               -31.914035273567 Eh    ::
         :: -> Gsolv                  -0.124419779485 Eh    ::
         :: repulsion energy           0.412329156858 Eh    ::

    * Orbital Energies and Occupations

         #    Occupation            Energy/Eh            Energy/eV
      -------------------------------------------------------------
         1        2.0000           -0.7392675             -20.1165
       ...           ...                  ...                  ...
        16        2.0000           -0.5033846             -13.6978
        17        2.0000           -0.4950890             -13.4721
        18        2.0000           -0.4888159             -13.3014
        19        2.0000           -0.4759043             -12.9500
        20        2.0000           -0.4677675             -12.7286
        21        2.0000           -0.4515651             -12.2877
        22        2.0000           -0.4447501             -12.1023
        23        2.0000           -0.4194890             -11.4149
        24        2.0000           -0.4046296             -11.0105
        25        2.0000           -0.3948332             -10.7440
        26        2.0000           -0.3309991              -9.0069
        27        2.0000           -0.3309965              -9.0069
        28        2.0000           -0.3305359              -8.9943 (HOMO)
        29                         -0.2413373              -6.5671 (LUMO)
        30                         -0.2371143              -6.4522
        31                         -0.1173820              -3.1941
        32                         -0.1093065              -2.9744
        33                         -0.0991230              -2.6973
        34                         -0.0932472              -2.5374
        35                         -0.0856513              -2.3307
        36                         -0.0769202              -2.0931
        37                         -0.0676877              -1.8419
        38                         -0.0511990              -1.3932
        39                         -0.0451968              -1.2299
       ...                                ...                  ...
        62                          0.6651703              18.1002
      -------------------------------------------------------------
                  HL-Gap            0.0891986 Eh            2.4272 eV

Wiberg/Mayer (AO) data.
largest (>0.10) Wiberg bond orders for each atom

     #   Z sym  total        # sym  WBO       # sym  WBO       # sym  WBO
 ---------------------------------------------------------------------------
     1   6 C    3.989 --     2 C    1.031    12 H    0.984    13 H    0.984
                            11 H    0.930
     2   6 C    3.987 --    10 C    1.406     4 C    1.405     1 C    1.031
                             6 C    0.106
     3   9 F    0.096
     4   6 C    3.995 --     5 C    1.453     2 C    1.405    14 H    0.973
                             9 C    0.107
     5   6 C    3.995 --     4 C    1.453     6 C    1.411    15 H    0.973
                            10 C    0.108
     6   6 C    3.987 --     9 C    1.414     5 C    1.411     7 C    0.994
                             2 C    0.106
     7   6 C    3.977 --     8 N    0.996     6 C    0.994    17 H    0.978
                            16 H    0.969
     8   7 N    2.953 --     7 C    0.996    19 H    0.950    18 H    0.948
     9   6 C    3.996 --    10 C    1.451     6 C    1.414    20 H    0.971
                             4 C    0.107
    10   6 C    3.995 --     9 C    1.451     2 C    1.406    21 H    0.973
                             5 C    0.108
    11   1 H    1.039 --     1 C    0.930
    12   1 H    1.006 --     1 C    0.984
    13   1 H    1.007 --     1 C    0.984
    14   1 H    1.003 --     4 C    0.973
    15   1 H    1.003 --     5 C    0.973
    16   1 H    1.012 --     7 C    0.969
    17   1 H    1.014 --     7 C    0.978
    18   1 H    0.965 --     8 N    0.948
    19   1 H    0.964 --     8 N    0.950
    20   1 H    1.005 --     9 C    0.971
    21   1 H    1.003 --    10 C    0.973
 ---------------------------------------------------------------------------

           -------------------------------------------------
          | TOTAL ENERGY              -31.511367688796 Eh   |
          | GRADIENT NORM               0.000708092605 Eh/α |
          | HOMO-LUMO GAP               2.427217652579 eV   |
           -------------------------------------------------

 * finished run on 2023/06/20 at 15:13:50.349
