   * xtb version 6.5.1 (579679a) compiled by 'ehlert@majestix' on 2022-07-11
          program call               : /lustre/hpc/kemi/ree/PhD/git/ReactivityQM/dep/xtb-6.5.1/bin/xtb --gfn 1 /lustre/hpc/kemi/ree/PhD/git/ReactivityQM/calculations/R01/reac01prodE05/conf06/R01_reac01prodE05_conf06_gfn1.xyz --opt --vfukui --chrg -1 --uhf 0 --alpb DMSO

   ID    Z sym.   atoms
    1    6 C      1, 3, 5, 8-10
    2    8 O      2, 4, 11
    3    7 N      6, 7
    4    1 H      12-20

      * Solvation model:               ALPB
        Solvent                        DMSO
        Solvent mass                       7.8130E+01 g/mol
          :  Hamiltonian                  GFN1-xTB          :
 * total energy  :   -38.2528977 Eh     change       -0.4696687E-11 Eh
 * total energy  :   -38.2704644 Eh     change       -0.1756677E-01 Eh
 * total energy  :   -38.2762905 Eh     change       -0.5826101E-02 Eh
 * total energy  :   -38.2769757 Eh     change       -0.6851326E-03 Eh
 * total energy  :   -38.2773592 Eh     change       -0.3835004E-03 Eh
 * total energy  :   -38.2774182 Eh     change       -0.5905205E-04 Eh
 * total energy  :   -38.2774552 Eh     change       -0.3700712E-04 Eh
 * total energy  :   -38.2774674 Eh     change       -0.1216497E-04 Eh
 * total energy  :   -38.2774760 Eh     change       -0.8641399E-05 Eh
 * total energy  :   -38.2774849 Eh     change       -0.8866075E-05 Eh
 * total energy  :   -38.2774821 Eh     change        0.2842013E-05 Eh
 * total energy  :   -38.2774879 Eh     change       -0.5865541E-05 Eh
 * total energy  :   -38.2774925 Eh     change       -0.4562484E-05 Eh
   *** GEOMETRY OPTIMIZATION CONVERGED AFTER 13 ITERATIONS ***

 final structure:
================
20
 xtb: 6.5.1 (579679a)
C            4.09424100262007       -0.73476089657981       -0.01646313289335
O            2.70260637585244       -0.81625193144495       -0.19719275475067
C            1.99506889421387        0.39575920022647        0.19225085164917
O            2.68139019629468        1.37900729415849        0.62421462819068
C            0.65687519031962        0.26631277590057        0.01958160510518
N           -0.08109055502852       -0.85326177056357       -0.46446999481471
N           -1.33650724083681       -0.42920164443713       -0.42018344165097
C           -2.38373803522247       -1.32060642023868       -0.85898288668839
C           -1.49685529475045        0.80384390298616        0.00972798657621
C           -2.76905803850336        1.54680397694178        0.19944648866086
O           -0.28437706867889        1.35073485060694        0.33623601854049
H            4.36343587440974       -0.57144949848682        1.03821340600847
H            4.52689615126761       -1.68399092864780       -0.34462843566075
H            4.53977963916041        0.07853172546630       -0.60921789072614
H           -1.95908211507896       -2.31737498396224       -0.95711908693985
H           -3.19153069998965       -1.33011518683974       -0.12926279739144
H           -2.77415139215910       -0.99203899623852       -1.82231382354434
H           -3.41364590396923        1.44406220745930       -0.67419873554595
H           -3.32440500091285        1.18262279186774        1.06829470238610
H           -2.54585297900815        2.60137253182519        0.35154929348941

          :  Hamiltonian                  GFN1-xTB          :
         :: total energy             -38.277492483234 Eh    ::
         :: gradient norm              0.000830105450 Eh/a0 ::
         :: HOMO-LUMO gap              0.966671215953 eV    ::
         :: SCC energy               -38.591063205201 Eh    ::
         :: -> Gsolv                  -0.121529616794 Eh    ::
         :: repulsion energy           0.321720249093 Eh    ::

    * Orbital Energies and Occupations

         #    Occupation            Energy/Eh            Energy/eV
      -------------------------------------------------------------
         1        2.0000           -0.8003054             -21.7774
       ...           ...                  ...                  ...
        19        2.0000           -0.5142953             -13.9947
        20        2.0000           -0.5092030             -13.8561
        21        2.0000           -0.5042556             -13.7215
        22        2.0000           -0.4878306             -13.2745
        23        2.0000           -0.4667765             -12.7016
        24        2.0000           -0.4597660             -12.5109
        25        2.0000           -0.4553917             -12.3918
        26        2.0000           -0.4387142             -11.9380
        27        2.0000           -0.4071459             -11.0790
        28        2.0000           -0.4023633             -10.9489
        29        2.0000           -0.3698890             -10.0652
        30        2.0000           -0.3650355              -9.9331
        31        2.0000           -0.2579022              -7.0179 (HOMO)
        32                         -0.2223776              -6.0512 (LUMO)
        33                         -0.1399524              -3.8083
        34                         -0.1244755              -3.3872
        35                         -0.0996806              -2.7124
        36                         -0.0993095              -2.7023
        37                         -0.0805547              -2.1920
        38                         -0.0704595              -1.9173
        39                         -0.0538041              -1.4641
        40                         -0.0483265              -1.3150
        41                         -0.0390087              -1.0615
        42                         -0.0354788              -0.9654
       ...                                ...                  ...
        62                          0.7130475              19.4030
      -------------------------------------------------------------
                  HL-Gap            0.0355245 Eh            0.9667 eV

Wiberg/Mayer (AO) data.
largest (>0.10) Wiberg bond orders for each atom

     #   Z sym  total        # sym  WBO       # sym  WBO       # sym  WBO
 ---------------------------------------------------------------------------
     1   6 C    3.932 --    13 H    0.986    12 H    0.980    14 H    0.979
                             2 O    0.970
     2   8 O    1.993 --     1 C    0.970     3 C    0.848
     3   6 C    3.876 --     5 C    1.544     4 O    1.318     2 O    0.848
     4   8 O    1.650 --     3 C    1.318     5 C    0.166
     5   6 C    3.708 --     3 C    1.544     6 N    1.057    11 O    0.837
                             4 O    0.166
     6   7 N    2.754 --     7 N    1.183     5 C    1.057     9 C    0.328
     7   7 N    3.635 --     9 C    1.376     6 N    1.183     8 C    0.952
     8   6 C    3.956 --    15 H    0.985    16 H    0.984    17 H    0.980
                             7 N    0.952
     9   6 C    3.868 --     7 N    1.376    11 O    1.031    10 C    1.024
                             6 N    0.328
    10   6 C    3.994 --     9 C    1.024    20 H    0.982    18 H    0.978
                            19 H    0.969
    11   8 O    2.088 --     9 C    1.031     5 C    0.837
    12   1 H    1.027 --     1 C    0.980
    13   1 H    1.023 --     1 C    0.986
    14   1 H    1.028 --     1 C    0.979
    15   1 H    1.014 --     8 C    0.985
    16   1 H    1.003 --     8 C    0.984
    17   1 H    1.003 --     8 C    0.980
    18   1 H    1.004 --    10 C    0.978
    19   1 H    1.004 --    10 C    0.969
    20   1 H    1.003 --    10 C    0.982
 ---------------------------------------------------------------------------

           -------------------------------------------------
          | TOTAL ENERGY              -38.277492483234 Eh   |
          | GRADIENT NORM               0.000830105450 Eh/α |
          | HOMO-LUMO GAP               0.966671215953 eV   |
           -------------------------------------------------

 * finished run on 2023/06/20 at 14:54:00.636
