   * xtb version 6.5.1 (579679a) compiled by 'ehlert@majestix' on 2022-07-11
          program call               : /lustre/hpc/kemi/ree/PhD/git/ReactivityQM/dep/xtb-6.5.1/bin/xtb --gfn 1 /lustre/hpc/kemi/ree/PhD/git/ReactivityQM/calculations/R02deprot/reac01prodN15/conf12/R02deprot_reac01prodN15_conf12_gfn1.xyz --opt --vfukui --chrg 0 --uhf 0 --alpb DMSO

   ID    Z sym.   atoms
    1    6 C      1, 3, 5, 6, 8, 9, 12-15, 17, 19, 22, 23
    2    8 O      2, 4, 7, 10, 18, 24
    3    7 N      11, 16, 20, 21, 25
    4    1 H      26-42

      * Solvation model:               ALPB
        Solvent                        DMSO
        Solvent mass                       7.8130E+01 g/mol
          :  Hamiltonian                  GFN1-xTB          :
 * total energy  :   -82.8564940 Eh     change       -0.9840875E-09 Eh
 * total energy  :   -82.8756309 Eh     change       -0.1913692E-01 Eh
 * total energy  :   -82.8928778 Eh     change       -0.1724686E-01 Eh
 * total energy  :   -82.9034138 Eh     change       -0.1053602E-01 Eh
 * total energy  :   -82.9339302 Eh     change       -0.3051643E-01 Eh
 * total energy  :   -82.8953200 Eh     change        0.3861026E-01 Eh
 * total energy  :   -82.9514478 Eh     change       -0.5612786E-01 Eh
 * total energy  :   -82.9296428 Eh     change        0.2180504E-01 Eh
 * total energy  :   -82.9526004 Eh     change       -0.2295763E-01 Eh
 * total energy  :   -82.9509204 Eh     change        0.1680009E-02 Eh
 * total energy  :   -82.9814740 Eh     change       -0.8423296E-05 Eh
 * total energy  :   -82.9814801 Eh     change       -0.6072885E-05 Eh
 * total energy  :   -82.9814850 Eh     change       -0.4867786E-05 Eh
 * total energy  :   -82.9814946 Eh     change       -0.9624451E-05 Eh
 * total energy  :   -82.9815004 Eh     change       -0.5858367E-05 Eh
 * total energy  :   -82.9815103 Eh     change       -0.9831719E-05 Eh
 * total energy  :   -82.9815096 Eh     change        0.6698753E-06 Eh
 * total energy  :   -82.9815149 Eh     change       -0.5330681E-05 Eh
 * total energy  :   -82.9815179 Eh     change       -0.2998369E-05 Eh
   *** GEOMETRY OPTIMIZATION CONVERGED AFTER 94 ITERATIONS ***

 final structure:
================
42
 xtb: 6.5.1 (579679a)
C            6.27419068461508        2.22003856205961        0.48536749314053
O            5.28838800170605        1.21233852156192        0.24694526744928
C            4.06132085147743        1.45731367043860        0.71937227202648
O            3.77854798265362        2.47823422025751        1.30868755072475
C            3.08634209026431        0.37660640042349        0.44148580202403
C            3.40620123142236       -0.84294396092503       -0.06816020971365
O            4.62731221525031       -1.18729655426706       -0.45661145335451
C            1.42614621736377       -1.46202928046315       -1.05233456820223
C            1.35977851166524       -2.22027912442927       -2.32748921330244
O            2.47282336841790       -1.84149267606702       -0.20192510338173
N            0.60229085458539       -0.56323488738427       -0.73429379141968
C            0.72504475356410        0.20657090819861        0.42273002043003
C           -0.57232670313629        0.64569892508924        1.08187809753597
C           -0.64731895904460        2.18015367937702        1.07031638690515
C           -0.58777009086091        0.10589517619338        2.51986282536402
N           -1.69025475478160        0.08621248400115        0.32709534692660
C           -2.98249244266316        0.26749426157243        0.64976238982925
O           -3.39810676379556        0.90787579336192        1.60148535493653
C           -3.87246546721617       -0.42591401922500       -0.32064430682517
N           -3.49096218574017       -1.10288264457614       -1.36214110460622
N           -4.62235869469914       -1.56151368972824       -1.96876373976038
C           -5.62176926569210       -1.13431368472922       -1.25831293041457
C           -7.06337453240356       -1.36331368416644       -1.50002985760956
O           -5.21298329626151       -0.41113508534333       -0.20500521293535
N            1.80558981530229        0.67971038888563        0.90772131435929
H            6.44708998008933        2.33184235548632        1.55882374100857
H            5.94562898891663        3.17648512737083        0.07086809916774
H            7.18431551555876        1.88699206994040       -0.00966647314227
H            4.68307179886459       -2.12911670429527       -0.66091056783756
H            2.28709962814334       -2.08207806548143       -2.88181724661802
H            1.25798392210637       -3.28410460403907       -2.11415608676894
H            0.51802125507110       -1.87750271344826       -2.92374857498771
H           -0.69734909812361        2.54079050117710        0.04379699210228
H            0.24583691997615        2.58288873374816        1.54660520611699
H           -1.52848319712268        2.51950656796775        1.61196458081136
H           -1.46708390234968        0.46515759724531        3.05129145543758
H           -0.59835245779661       -0.98291102936478        2.50620859687110
H            0.30884294193836        0.44612205582082        3.03614170014067
H           -1.46249218564628       -0.45960254405794       -0.49448890707436
H           -7.50787823663562       -1.87585935708886       -0.64706036574813
H           -7.19137937157466       -1.96705853226612       -2.39499348757271
H           -7.57666692342985       -0.41011015882762       -1.62585829203151

          :  Hamiltonian                  GFN1-xTB          :
         :: total energy             -82.981517930906 Eh    ::
         :: gradient norm              0.000365619756 Eh/a0 ::
         :: HOMO-LUMO gap              2.716789519038 eV    ::
         :: SCC energy               -83.765680064181 Eh    ::
         :: -> Gsolv                  -0.055728827755 Eh    ::
         :: repulsion energy           0.809379995976 Eh    ::

    * Orbital Energies and Occupations

         #    Occupation            Energy/Eh            Energy/eV
      -------------------------------------------------------------
         1        2.0000           -0.8625857             -23.4722
       ...           ...                  ...                  ...
        55        2.0000           -0.5014255             -13.6445
        56        2.0000           -0.4963331             -13.5059
        57        2.0000           -0.4935212             -13.4294
        58        2.0000           -0.4879478             -13.2777
        59        2.0000           -0.4819756             -13.1152
        60        2.0000           -0.4800402             -13.0626
        61        2.0000           -0.4707971             -12.8110
        62        2.0000           -0.4610347             -12.5454
        63        2.0000           -0.4586929             -12.4817
        64        2.0000           -0.4500616             -12.2468
        65        2.0000           -0.4447241             -12.1016
        66        2.0000           -0.4359787             -11.8636
        67        2.0000           -0.4166215             -11.3368 (HOMO)
        68                         -0.3167814              -8.6201 (LUMO)
        69                         -0.3077476              -8.3742
        70                         -0.2922431              -7.9523
        71                         -0.2561571              -6.9704
        72                         -0.2460979              -6.6967
        73                         -0.1958686              -5.3299
        74                         -0.1825717              -4.9680
        75                         -0.1450799              -3.9478
        76                         -0.1422972              -3.8721
        77                         -0.1365092              -3.7146
        78                         -0.1194462              -3.2503
       ...                                ...                  ...
       134                          0.7250597              19.7299
      -------------------------------------------------------------
                  HL-Gap            0.0998402 Eh            2.7168 eV

Wiberg/Mayer (AO) data.
largest (>0.10) Wiberg bond orders for each atom

     #   Z sym  total        # sym  WBO       # sym  WBO       # sym  WBO
 ---------------------------------------------------------------------------
     1   6 C    3.875 --    28 H    0.986    26 H    0.980    27 H    0.980
                             2 O    0.900
     2   8 O    2.187 --     3 C    1.097     1 C    0.900     4 O    0.127
     3   6 C    3.856 --     4 O    1.641     2 O    1.097     5 C    1.030
     4   8 O    1.912 --     3 C    1.641     2 O    0.127
     5   6 C    3.938 --     6 C    1.543    25 N    1.086     3 C    1.030
     6   6 C    3.845 --     5 C    1.543     7 O    1.116    10 O    0.964
     7   8 O    2.097 --     6 C    1.116    29 H    0.802
     8   6 C    3.875 --    11 N    1.766     9 C    1.029    10 O    0.909
     9   6 C    3.987 --     8 C    1.029    32 H    0.981    30 H    0.958
                            31 H    0.958
    10   8 O    2.096 --     6 C    0.964     8 C    0.909
    11   7 N    3.121 --     8 C    1.766    12 C    1.068
    12   6 C    3.939 --    25 N    1.707    11 N    1.068    13 C    0.978
    13   6 C    3.934 --    15 C    0.979    14 C    0.978    12 C    0.978
                            16 N    0.929
    14   6 C    3.990 --    33 H    0.986    34 H    0.984    35 H    0.981
                            13 C    0.978
    15   6 C    3.990 --    37 H    0.986    38 H    0.985    36 H    0.981
                            13 C    0.979
    16   7 N    3.360 --    17 C    1.270    13 C    0.929    39 H    0.881
                            18 O    0.182
    17   6 C    3.920 --    18 O    1.583    16 N    1.270    19 C    0.986
    18   8 O    1.901 --    17 C    1.583    16 N    0.182
    19   6 C    3.873 --    20 N    1.613    24 O    1.064    17 C    0.986
    20   7 N    3.014 --    19 C    1.613    21 N    1.197
    21   7 N    2.980 --    22 C    1.608    20 N    1.197
    22   6 C    3.871 --    21 N    1.608    24 O    1.082    23 C    1.031
    23   6 C    3.987 --    22 C    1.031    41 H    0.983    42 H    0.964
                            40 H    0.964
    24   8 O    2.329 --    22 C    1.082    19 C    1.064
    25   7 N    3.062 --    12 C    1.707     5 C    1.086
    26   1 H    1.008 --     1 C    0.980
    27   1 H    1.009 --     1 C    0.980
    28   1 H    1.011 --     1 C    0.986
    29   1 H    0.830 --     7 O    0.802
    30   1 H    0.997 --     9 C    0.958
    31   1 H    0.996 --     9 C    0.958
    32   1 H    1.000 --     9 C    0.981
    33   1 H    1.003 --    14 C    0.986
    34   1 H    1.011 --    14 C    0.984
    35   1 H    1.009 --    14 C    0.981
    36   1 H    1.009 --    15 C    0.981
    37   1 H    1.003 --    15 C    0.986
    38   1 H    1.009 --    15 C    0.985
    39   1 H    0.968 --    16 N    0.881
    40   1 H    0.997 --    23 C    0.964
    41   1 H    0.999 --    23 C    0.983
    42   1 H    0.997 --    23 C    0.964
 ---------------------------------------------------------------------------

           -------------------------------------------------
          | TOTAL ENERGY              -82.981517930906 Eh   |
          | GRADIENT NORM               0.000365619756 Eh/α |
          | HOMO-LUMO GAP               2.716789519038 eV   |
           -------------------------------------------------

 * finished run on 2023/06/20 at 18:24:07.643
