                         Program Version 5.0.1 -  RELEASE  -
|  1> # ORCA input file
|  2> ! SP r2SCAN-3c CPCM
|  3>
|  4> %maxcore 1875.0
|  5> %pal nprocs 4 end
|  6> %cpcm smd true SMDsolvent "DMSO" end
|  7>
|  8> *xyz 1 1
|  9> C      -5.749660    0.934172   -3.003877
| 10> O      -4.604137    0.530344   -2.240350
| 11> C      -4.784877    0.357637   -0.944882
| 12> O      -5.850663    0.526124   -0.381303
| 13> C      -3.562904   -0.069643   -0.214791
| 14> N      -2.413947   -0.215681   -0.919474
| 15> C      -1.320136   -0.611812   -0.337328
| 16> C      -0.122449   -0.762797   -1.262506
| 17> C       0.062055   -2.230920   -1.658607
| 18> C      -0.339003    0.091588   -2.521024
| 19> N       1.103958   -0.289694   -0.613929
| 20> C       1.162283    0.914552   -0.020959
| 21> O       0.237435    1.681046    0.143720
| 22> C       2.544562    1.228331    0.476245
| 23> N       2.908250    2.394089    1.083933
| 24> N       4.139273    2.314101    1.368468
| 25> C       4.660363    1.056057    0.951043
| 26> C       5.146042    0.242687    2.157191
| 27> C       5.750963    1.235210   -0.111095
| 28> O       3.525639    0.409588    0.368642
| 29> N      -1.282486   -0.925644    0.986946
| 30> C      -0.110436   -1.452462    1.683487
| 31> C      -2.386088   -0.741156    1.832115
| 32> O      -2.296677   -0.969727    3.024245
| 33> C      -3.599030   -0.292501    1.146074
| 34> O      -4.676727   -0.137795    1.899630
| 35> H      -6.521549    0.163990   -2.947010
| 36> H      -5.407946    1.057817   -4.029011
| 37> H      -6.143396    1.874939   -2.613389
| 38> H       0.896672   -2.318896   -2.351224
| 39> H       0.258977   -2.855739   -0.790913
| 40> H      -0.843512   -2.585286   -2.148965
| 41> H      -0.521956    1.128531   -2.244362
| 42> H       0.547111    0.034929   -3.148862
| 43> H      -1.198233   -0.285663   -3.072094
| 44> H       1.950059   -0.814660   -0.754873
| 45> H       5.979104    0.764770    2.621733
| 46> H       5.464672   -0.737370    1.811098
| 47> H       4.330148    0.134674    2.868545
| 48> H       6.585247    1.776577    0.328628
| 49> H       6.077351    0.253498   -0.444799
| 50> H       5.344599    1.793582   -0.951448
| 51> H       0.364209   -0.648259    2.245305
| 52> H       0.593707   -1.876815    0.981271
| 53> H      -0.449193   -2.222450    2.376727
| 54> H      -5.447672    0.146135    1.350654
| 55> **                         ****END OF INPUT****

CARTESIAN COORDINATES (ANGSTROEM)
---------------------------------
  C     -5.749660    0.934172   -3.003877
  O     -4.604137    0.530344   -2.240350
  C     -4.784877    0.357637   -0.944882
  O     -5.850663    0.526124   -0.381303
  C     -3.562904   -0.069643   -0.214791
  N     -2.413947   -0.215681   -0.919474
  C     -1.320136   -0.611812   -0.337328
  C     -0.122449   -0.762797   -1.262506
  C      0.062055   -2.230920   -1.658607
  C     -0.339003    0.091588   -2.521024
  N      1.103958   -0.289694   -0.613929
  C      1.162283    0.914552   -0.020959
  O      0.237435    1.681046    0.143720
  C      2.544562    1.228331    0.476245
  N      2.908250    2.394089    1.083933
  N      4.139273    2.314101    1.368468
  C      4.660363    1.056057    0.951043
  C      5.146042    0.242687    2.157191
  C      5.750963    1.235210   -0.111095
  O      3.525639    0.409588    0.368642
  N     -1.282486   -0.925644    0.986946
  C     -0.110436   -1.452462    1.683487
  C     -2.386088   -0.741156    1.832115
  O     -2.296677   -0.969727    3.024245
  C     -3.599030   -0.292501    1.146074
  O     -4.676727   -0.137795    1.899630
  H     -6.521549    0.163990   -2.947010
  H     -5.407946    1.057817   -4.029011
  H     -6.143396    1.874939   -2.613389
  H      0.896672   -2.318896   -2.351224
  H      0.258977   -2.855739   -0.790913
  H     -0.843512   -2.585286   -2.148965
  H     -0.521956    1.128531   -2.244362
  H      0.547111    0.034929   -3.148862
  H     -1.198233   -0.285663   -3.072094
  H      1.950059   -0.814660   -0.754873
  H      5.979104    0.764770    2.621733
  H      5.464672   -0.737370    1.811098
  H      4.330148    0.134674    2.868545
  H      6.585247    1.776577    0.328628
  H      6.077351    0.253498   -0.444799
  H      5.344599    1.793582   -0.951448
  H      0.364209   -0.648259    2.245305
  H      0.593707   -1.876815    0.981271
  H     -0.449193   -2.222450    2.376727
  H     -5.447672    0.146135    1.350654

 Total Charge           Charge          ....    1
 Multiplicity           Mult            ....    1
 Number of Electrons    NEL             ....  192
 Basis Dimension        Dim             ....  649

ORBITAL ENERGIES
----------------

  NO   OCC          E(Eh)            E(eV)
   0   2.0000     -19.115888      -520.1698
   1   2.0000     -19.017105      -517.4817
   2   2.0000     -19.009118      -517.2644
   3   2.0000     -18.968629      -516.1626
   4   2.0000     -18.963744      -516.0297
   5   2.0000     -18.941688      -515.4295
   6   2.0000     -14.286669      -388.7600
   7   2.0000     -14.275619      -388.4594
   8   2.0000     -14.249071      -387.7369
   9   2.0000     -14.234191      -387.3320
  10   2.0000     -14.174676      -385.7126
  11   2.0000     -10.232328      -278.4358
  12   2.0000     -10.190682      -277.3026
  13   2.0000     -10.189043      -277.2580
  14   2.0000     -10.181302      -277.0473
  15   2.0000     -10.156308      -276.3672
  16   2.0000     -10.140458      -275.9359
  17   2.0000     -10.136104      -275.8174
  18   2.0000     -10.121315      -275.4150
  19   2.0000     -10.103350      -274.9261
  20   2.0000     -10.083914      -274.3972
  21   2.0000     -10.069871      -274.0151
  22   2.0000     -10.062397      -273.8117
  23   2.0000     -10.061868      -273.7973
  24   2.0000     -10.036525      -273.1077
  25   2.0000     -10.027642      -272.8660
  26   2.0000      -1.209447       -32.9107
  27   2.0000      -1.097330       -29.8599
  28   2.0000      -1.065830       -29.0027
  29   2.0000      -1.060837       -28.8668
  30   2.0000      -1.060063       -28.8458
  31   2.0000      -1.032884       -28.1062
  32   2.0000      -1.005860       -27.3708
  33   2.0000      -0.979703       -26.6591
  34   2.0000      -0.943457       -25.6728
  35   2.0000      -0.899786       -24.4844
  36   2.0000      -0.875403       -23.8209
  37   2.0000      -0.804087       -21.8803
  38   2.0000      -0.759869       -20.6771
  39   2.0000      -0.748507       -20.3679
  40   2.0000      -0.730971       -19.8907
  41   2.0000      -0.703595       -19.1458
  42   2.0000      -0.699041       -19.0219
  43   2.0000      -0.696769       -18.9601
  44   2.0000      -0.673989       -18.3402
  45   2.0000      -0.654147       -17.8003
  46   2.0000      -0.648746       -17.6533
  47   2.0000      -0.643696       -17.5159
  48   2.0000      -0.629072       -17.1179
  49   2.0000      -0.584128       -15.8949
  50   2.0000      -0.569960       -15.5094
  51   2.0000      -0.566395       -15.4124
  52   2.0000      -0.550858       -14.9896
  53   2.0000      -0.538195       -14.6450
  54   2.0000      -0.528774       -14.3887
  55   2.0000      -0.505212       -13.7475
  56   2.0000      -0.489755       -13.3269
  57   2.0000      -0.483745       -13.1634
  58   2.0000      -0.476105       -12.9555
  59   2.0000      -0.464728       -12.6459
  60   2.0000      -0.463034       -12.5998
  61   2.0000      -0.462234       -12.5780
  62   2.0000      -0.449281       -12.2256
  63   2.0000      -0.448177       -12.1955
  64   2.0000      -0.437072       -11.8933
  65   2.0000      -0.429403       -11.6847
  66   2.0000      -0.424647       -11.5552
  67   2.0000      -0.417818       -11.3694
  68   2.0000      -0.412086       -11.2134
  69   2.0000      -0.404899       -11.0179
  70   2.0000      -0.403310       -10.9746
  71   2.0000      -0.396640       -10.7931
  72   2.0000      -0.396124       -10.7791
  73   2.0000      -0.390803       -10.6343
  74   2.0000      -0.383702       -10.4411
  75   2.0000      -0.380141       -10.3442
  76   2.0000      -0.379247       -10.3198
  77   2.0000      -0.378303       -10.2941
  78   2.0000      -0.373873       -10.1736
  79   2.0000      -0.369252       -10.0478
  80   2.0000      -0.363257        -9.8847
  81   2.0000      -0.358301        -9.7499
  82   2.0000      -0.356965        -9.7135
  83   2.0000      -0.350205        -9.5296
  84   2.0000      -0.347212        -9.4481
  85   2.0000      -0.335181        -9.1207
  86   2.0000      -0.333375        -9.0716
  87   2.0000      -0.301445        -8.2027
  88   2.0000      -0.294274        -8.0076
  89   2.0000      -0.287639        -7.8270
  90   2.0000      -0.285405        -7.7663
  91   2.0000      -0.275339        -7.4923
  92   2.0000      -0.271356        -7.3840
  93   2.0000      -0.254436        -6.9236
  94   2.0000      -0.249411        -6.7868
  95   2.0000      -0.217259        -5.9119
  96   0.0000      -0.215164        -5.8549
  97   0.0000      -0.110857        -3.0166
  98   0.0000      -0.101793        -2.7699
  99   0.0000      -0.050005        -1.3607
 100   0.0000       0.000427         0.0116

MULLIKEN ATOMIC CHARGES
-----------------------
   0 C :   -0.308791
   1 O :   -0.183269
   2 C :    0.210857
   3 O :   -0.478056
   4 C :    0.136660
   5 N :   -0.089125
   6 C :    0.086070
   7 C :   -0.013125
   8 C :   -0.488394
   9 C :   -0.583176
  10 N :   -0.113602
  11 C :   -0.113813
  12 O :   -0.399245
  13 C :    0.568662
  14 N :   -0.016166
  15 N :   -0.032221
  16 C :    0.066206
  17 C :   -0.418423
  18 C :   -0.420073
  19 O :   -0.009630
  20 N :    0.275384
  21 C :   -0.443020
  22 C :    0.144984
  23 O :   -0.420506
  24 C :    0.076513
  25 O :   -0.344554
  26 H :    0.182657
  27 H :    0.182409
  28 H :    0.181727
  29 H :    0.196922
  30 H :    0.190705
  31 H :    0.204807
  32 H :    0.200829
  33 H :    0.189773
  34 H :    0.196586
  35 H :    0.334091
  36 H :    0.216131
  37 H :    0.213175
  38 H :    0.196700
  39 H :    0.215935
  40 H :    0.212881
  41 H :    0.197175
  42 H :    0.213090
  43 H :    0.205046
  44 H :    0.198574
  45 H :    0.380639
Sum of atomic charges:    1.0000000

LOEWDIN ATOMIC CHARGES
----------------------
   0 C :   -0.028759
   1 O :   -0.550412
   2 C :    0.409298
   3 O :   -0.456096
   4 C :    0.211852
   5 N :   -0.551643
   6 C :    0.379104
   7 C :    0.114471
   8 C :   -0.331052
   9 C :   -0.320933
  10 N :   -0.556130
  11 C :    0.372462
  12 O :   -0.395186
  13 C :    0.546281
  14 N :   -0.198253
  15 N :   -0.204757
  16 C :    0.274768
  17 C :   -0.269164
  18 C :   -0.271015
  19 O :   -0.363313
  20 N :   -0.627212
  21 C :   -0.061592
  22 C :    0.387649
  23 O :   -0.435131
  24 C :    0.297856
  25 O :   -0.418970
  26 H :    0.185893
  27 H :    0.189665
  28 H :    0.186064
  29 H :    0.179341
  30 H :    0.174999
  31 H :    0.183440
  32 H :    0.182654
  33 H :    0.172180
  34 H :    0.183777
  35 H :    0.307951
  36 H :    0.198292
  37 H :    0.193537
  38 H :    0.189427
  39 H :    0.198213
  40 H :    0.193392
  41 H :    0.189259
  42 H :    0.201649
  43 H :    0.206056
  44 H :    0.210523
  45 H :    0.319565

  Mayer bond orders larger than 0.100000
B(  0-C ,  1-O ) :   0.8195 B(  0-C , 26-H ) :   0.9527 B(  0-C , 27-H ) :   0.9599
B(  0-C , 28-H ) :   0.9536 B(  1-O ,  2-C ) :   1.2156 B(  2-C ,  3-O ) :   1.7243
B(  2-C ,  4-C ) :   1.0572 B(  4-C ,  5-N ) :   1.0679 B(  4-C , 24-C ) :   1.2507
B(  5-N ,  6-C ) :   1.5944 B(  6-C ,  7-C ) :   0.7814 B(  6-C , 20-N ) :   1.2617
B(  6-C , 24-C ) :   0.1105 B(  7-C ,  8-C ) :   0.9970 B(  7-C ,  9-C ) :   0.9240
B(  7-C , 10-N ) :   0.7755 B(  8-C , 29-H ) :   0.9603 B(  8-C , 30-H ) :   0.9265
B(  8-C , 31-H ) :   0.9619 B(  9-C , 32-H ) :   0.9545 B(  9-C , 33-H ) :   0.9679
B(  9-C , 34-H ) :   0.9535 B( 10-N , 11-C ) :   1.1860 B( 10-N , 12-O ) :   0.1071
B( 10-N , 35-H ) :   0.8884 B( 11-C , 12-O ) :   1.8096 B( 11-C , 13-C ) :   0.8883
B( 11-C , 15-N ) :   0.1160 B( 13-C , 14-N ) :   1.1549 B( 13-C , 19-O ) :   1.3227
B( 14-N , 15-N ) :   1.6761 B( 15-N , 16-C ) :   0.7981 B( 16-C , 17-C ) :   0.9545
B( 16-C , 18-C ) :   0.9570 B( 16-C , 19-O ) :   0.7227 B( 17-C , 36-H ) :   0.9347
B( 17-C , 37-H ) :   0.9430 B( 17-C , 38-H ) :   0.9167 B( 18-C , 39-H ) :   0.9353
B( 18-C , 40-H ) :   0.9431 B( 18-C , 41-H ) :   0.9171 B( 20-N , 21-C ) :   0.8484
B( 20-N , 22-C ) :   1.0445 B( 21-C , 42-H ) :   0.9299 B( 21-C , 43-H ) :   0.9264
B( 21-C , 44-H ) :   0.9310 B( 22-C , 23-O ) :   1.8865 B( 22-C , 24-C ) :   1.0024
B( 24-C , 25-O ) :   1.1581 B( 25-O , 45-H ) :   0.7622

Dispersion correction           -0.021089357
FINAL SINGLE POINT ENERGY     -1308.321325544490

DIPOLE MOMENT
-------------
                                X             Y             Z
Electronic contribution:    -11.78432       6.87142       9.95647
Nuclear contribution   :     20.02198      -8.55877     -12.18364
                        -----------------------------------------
Total Dipole Moment    :      8.23766      -1.68735      -2.22718
                        -----------------------------------------
Magnitude (a.u.)       :      8.69865
Magnitude (Debye)      :     22.11021

Rotational constants in cm-1:     0.014303     0.003425     0.003159
Rotational constants in MHz :   428.789622   102.680566    94.716412

                             ****ORCA TERMINATED NORMALLY****
TOTAL RUN TIME: 0 days 0 hours 2 minutes 50 seconds 308 msec
