   * xtb version 6.5.1 (579679a) compiled by 'ehlert@majestix' on 2022-07-11
          program call               : /lustre/hpc/kemi/ree/PhD/git/ReactivityQM/dep/xtb-6.5.1/bin/xtb --gfn 1 /lustre/hpc/kemi/ree/PhD/git/ReactivityQM/calculations/R03/reac02prodN13/conf17/R03_reac02prodN13_conf17_gfn1.xyz --opt --vfukui --chrg 1 --uhf 0 --alpb DMSO

   ID    Z sym.   atoms
    1    6 C      1, 3, 5, 7-10, 12, 14, 17-19, 22, 23, 25
    2    8 O      2, 4, 13, 20, 24, 26
    3    7 N      6, 11, 15, 16, 21
    4    1 H      27-46

      * Solvation model:               ALPB
        Solvent                        DMSO
        Solvent mass                       7.8130E+01 g/mol
          :  Hamiltonian                  GFN1-xTB          :
 * total energy  :   -86.2840858 Eh     change       -0.6396874E-09 Eh
 * total energy  :   -86.2979403 Eh     change       -0.1385448E-01 Eh
 * total energy  :   -86.3032660 Eh     change       -0.5325680E-02 Eh
 * total energy  :   -86.3042972 Eh     change       -0.1031231E-02 Eh
 * total energy  :   -86.3051240 Eh     change       -0.8267628E-03 Eh
 * total energy  :   -86.3054749 Eh     change       -0.3509024E-03 Eh
 * total energy  :   -86.3057547 Eh     change       -0.2798138E-03 Eh
 * total energy  :   -86.3059569 Eh     change       -0.2022350E-03 Eh
 * total energy  :   -86.3060846 Eh     change       -0.1276967E-03 Eh
 * total energy  :   -86.3061664 Eh     change       -0.8176497E-04 Eh
 * total energy  :   -86.3065545 Eh     change       -0.3396617E-04 Eh
 * total energy  :   -86.3065780 Eh     change       -0.2341444E-04 Eh
 * total energy  :   -86.3066138 Eh     change       -0.3588854E-04 Eh
 * total energy  :   -86.3066224 Eh     change       -0.8574729E-05 Eh
 * total energy  :   -86.3066313 Eh     change       -0.8870905E-05 Eh
 * total energy  :   -86.3066373 Eh     change       -0.5987155E-05 Eh
 * total energy  :   -86.3066437 Eh     change       -0.6399337E-05 Eh
 * total energy  :   -86.3066488 Eh     change       -0.5103103E-05 Eh
 * total energy  :   -86.3066526 Eh     change       -0.3810812E-05 Eh
   *** GEOMETRY OPTIMIZATION CONVERGED AFTER 27 ITERATIONS ***

 final structure:
================
46
 xtb: 6.5.1 (579679a)
C           -5.74966031276459        0.93417156096800       -3.00387712913645
O           -4.60413711465732        0.53034431458407       -2.24034968399186
C           -4.78487728384124        0.35763670383910       -0.94488198694064
O           -5.85066299821785        0.52612364301458       -0.38130273510412
C           -3.56290379241415       -0.06964298080660       -0.21479070726230
N           -2.41394667400455       -0.21568136825798       -0.91947400415990
C           -1.32013604648440       -0.61181153815312       -0.33732800704585
C           -0.12244900094877       -0.76279718550174       -1.26250598656532
C            0.06205455417490       -2.23091968069725       -1.65860687809845
C           -0.33900297363592        0.09158810786106       -2.52102352171022
N            1.10395833228675       -0.28969441119833       -0.61392884506849
C            1.16228327626651        0.91455239982202       -0.02095863929514
O            0.23743514415056        1.68104602349343        0.14372029366721
C            2.54456204018137        1.22833112304987        0.47624459197410
N            2.90825021834397        2.39408870199708        1.08393275840125
N            4.13927260448754        2.31410116231507        1.36846834716656
C            4.66036341460126        1.05605749326196        0.95104267079282
C            5.14604193330814        0.24268658398698        2.15719061639274
C            5.75096310832846        1.23521026167593       -0.11109506229632
O            3.52563871727154        0.40958760762306        0.36864220146112
N           -1.28248555410378       -0.92564437462743        0.98694586555720
C           -0.11043628917677       -1.45246154349600        1.68348703055449
C           -2.38608810372337       -0.74115613342158        1.83211514265958
O           -2.29667717010052       -0.96972722848976        3.02424532964959
C           -3.59903029600914       -0.29250093471871        1.14607350272468
O           -4.67672676938604       -0.13779508352858        1.89962959929778
H           -6.52154897138970        0.16399009478263       -2.94700979166140
H           -5.40794632597827        1.05781694550619       -4.02901058038126
H           -6.14339633800494        1.87493938042613       -2.61338870252530
H            0.89667154103235       -2.31889575894803       -2.35122363407585
H            0.25897653470680       -2.85573860469294       -0.79091286538243
H           -0.84351182941267       -2.58528570553512       -2.14896450214367
H           -0.52195577404984        1.12853113197925       -2.24436248264061
H            0.54711081321105        0.03492855144021       -3.14886191124045
H           -1.19823274774760       -0.28566276297136       -3.07209434971975
H            1.95005907544978       -0.81466016958911       -0.75487329582698
H            5.97910435410651        0.76477022653110        2.62173348395322
H            5.46467234455688       -0.73736984444428        1.81109767837979
H            4.33014827123728        0.13467396935674        2.86854511121237
H            6.58524725724167        1.77657748064306        0.32862780057371
H            6.07735079956946        0.25349826716757       -0.44479883155418
H            5.34459889191463        1.79358245811255       -0.95144848243534
H            0.36420865663988       -0.64825939296855        2.24530549930769
H            0.59370737211064       -1.87681495418274        0.98127123467082
H           -0.44919289269071       -2.22245041982281        2.37672702100750
H           -5.44767199643712        0.14613488261822        1.35065383685574

          :  Hamiltonian                  GFN1-xTB          :
         :: total energy             -86.306652589921 Eh    ::
         :: gradient norm              0.000563071130 Eh/a0 ::
         :: HOMO-LUMO gap              0.118187824370 eV    ::
         :: SCC energy               -87.126491349244 Eh    ::
         :: -> Gsolv                  -0.119830790782 Eh    ::
         :: repulsion energy           0.849590930406 Eh    ::

    * Orbital Energies and Occupations

         #    Occupation            Energy/Eh            Energy/eV
      -------------------------------------------------------------
         1        2.0000           -0.9309136             -25.3314
       ...           ...                  ...                  ...
        58        2.0000           -0.5366901             -14.6041
        59        2.0000           -0.5274576             -14.3529
        60        2.0000           -0.5239922             -14.2586
        61        2.0000           -0.5219845             -14.2039
        62        2.0000           -0.5145704             -14.0022
        63        2.0000           -0.5086985             -13.8424
        64        2.0000           -0.5046029             -13.7309
        65        2.0000           -0.5018716             -13.6566
        66        2.0000           -0.4949753             -13.4690
        67        2.0000           -0.4913000             -13.3690
        68        2.0000           -0.4766193             -12.9695
        69        2.0000           -0.4623394             -12.5809
        70        1.8154           -0.4447114             -12.1012 (HOMO)
        71        0.1846           -0.4403681             -11.9830 (LUMO)
        72                         -0.3568514              -9.7104
        73                         -0.3417904              -9.3006
        74                         -0.3043175              -8.2809
        75                         -0.2581278              -7.0240
        76                         -0.2571881              -6.9984
        77                         -0.1776058              -4.8329
        78                         -0.1601321              -4.3574
        79                         -0.1565979              -4.2612
        80                         -0.1542596              -4.1976
        81                         -0.1447183              -3.9380
       ...                                ...                  ...
       144                          0.7061279              19.2147
      -------------------------------------------------------------
                  HL-Gap            0.0043433 Eh            0.1182 eV

Wiberg/Mayer (AO) data.
largest (>0.10) Wiberg bond orders for each atom

     #   Z sym  total        # sym  WBO       # sym  WBO       # sym  WBO
 ---------------------------------------------------------------------------
     1   6 C    3.858 --    28 H    0.986    29 H    0.978    27 H    0.978
                             2 O    0.885
     2   8 O    2.226 --     3 C    1.151     1 C    0.885     4 O    0.135
     3   6 C    3.850 --     4 O    1.613     2 O    1.151     5 C    1.006
     4   8 O    1.948 --     3 C    1.613     2 O    0.135
     5   6 C    3.923 --    25 C    1.423     6 N    1.231     3 C    1.006
     6   7 N    2.984 --     7 C    1.510     5 C    1.231
     7   6 C    3.897 --     6 N    1.510    21 N    1.211     8 C    0.974
     8   6 C    3.914 --     9 C    0.982    10 C    0.976     7 C    0.974
                            11 N    0.915
     9   6 C    3.981 --     8 C    0.982    32 H    0.981    30 H    0.979
                            31 H    0.978
    10   6 C    3.978 --    34 H    0.984    33 H    0.981    35 H    0.980
                             8 C    0.976
    11   7 N    3.397 --    12 C    1.276     8 C    0.915    36 H    0.881
                            13 O    0.209
    12   6 C    3.924 --    13 O    1.606    11 N    1.276    14 C    0.958
    13   8 O    1.924 --    12 C    1.606    11 N    0.209
    14   6 C    3.720 --    20 O    1.297    15 N    1.233    12 C    0.958
    15   7 N    3.010 --    16 N    1.638    14 C    1.233
    16   7 N    2.880 --    15 N    1.638    17 C    1.053
    17   6 C    3.815 --    16 N    1.053    19 C    0.909    18 C    0.907
                            20 O    0.860
    18   6 C    3.939 --    39 H    0.980    37 H    0.978    38 H    0.976
                            17 C    0.907
    19   6 C    3.939 --    42 H    0.979    40 H    0.978    41 H    0.976
                            17 C    0.909
    20   8 O    2.334 --    14 C    1.297    17 C    0.860
    21   7 N    3.493 --     7 C    1.211    23 C    1.086    22 C    0.929
                            24 O    0.123
    22   6 C    3.915 --    44 H    0.977    43 H    0.973    45 H    0.972
                            21 N    0.929
    23   6 C    3.893 --    24 O    1.613    21 N    1.086    25 C    1.057
    24   8 O    1.886 --    23 C    1.613    21 N    0.123
    25   6 C    3.853 --     5 C    1.423    26 O    1.157    23 C    1.057
    26   8 O    2.087 --    25 C    1.157    46 H    0.765
    27   1 H    1.004 --     1 C    0.978
    28   1 H    1.009 --     1 C    0.986
    29   1 H    1.004 --     1 C    0.978
    30   1 H    0.993 --     9 C    0.979
    31   1 H    0.997 --     9 C    0.978
    32   1 H    0.997 --     9 C    0.981
    33   1 H    1.006 --    10 C    0.981
    34   1 H    0.998 --    10 C    0.984
    35   1 H    1.008 --    10 C    0.980
    36   1 H    0.919 --    11 N    0.881
    37   1 H    0.992 --    18 C    0.978
    38   1 H    0.991 --    18 C    0.976
    39   1 H    0.992 --    18 C    0.980
    40   1 H    0.992 --    19 C    0.978
    41   1 H    0.991 --    19 C    0.976
    42   1 H    0.991 --    19 C    0.979
    43   1 H    0.998 --    22 C    0.973
    44   1 H    1.004 --    22 C    0.977
    45   1 H    1.001 --    22 C    0.972
    46   1 H    0.842 --    26 O    0.765
 ---------------------------------------------------------------------------

           -------------------------------------------------
          | TOTAL ENERGY              -86.306652589921 Eh   |
          | GRADIENT NORM               0.000563071130 Eh/α |
          | HOMO-LUMO GAP               0.118187824370 eV   |
           -------------------------------------------------

 * finished run on 2023/06/20 at 15:48:52.562
