   * xtb version 6.5.1 (579679a) compiled by 'ehlert@majestix' on 2022-07-11
          program call               : /lustre/hpc/kemi/ree/PhD/git/ReactivityQM/dep/xtb-6.5.1/bin/xtb --gfn 1 /lustre/hpc/kemi/ree/PhD/git/ReactivityQM/calculations/R02/reac01prodN12/conf07/R02_reac01prodN12_conf07_gfn1.xyz --opt --vfukui --chrg 1 --uhf 0 --alpb DMSO

   ID    Z sym.   atoms
    1    6 C      1, 3, 5, 7-10, 12, 14, 15, 18, 19, 22, 24
    2    8 O      2, 4, 13, 20, 23, 25
    3    7 N      6, 11, 16, 17, 21
    4    1 H      26-43

      * Solvation model:               ALPB
        Solvent                        DMSO
        Solvent mass                       7.8130E+01 g/mol
          :  Hamiltonian                  GFN1-xTB          :
 * total energy  :   -83.1100232 Eh     change       -0.2486900E-11 Eh
 * total energy  :   -83.1251991 Eh     change       -0.1517588E-01 Eh
 * total energy  :   -83.1313893 Eh     change       -0.6190211E-02 Eh
 * total energy  :   -83.1326447 Eh     change       -0.1255327E-02 Eh
 * total energy  :   -83.1334658 Eh     change       -0.8211685E-03 Eh
 * total energy  :   -83.1339099 Eh     change       -0.4441124E-03 Eh
 * total energy  :   -83.1343535 Eh     change       -0.4435627E-03 Eh
 * total energy  :   -83.1347625 Eh     change       -0.4090187E-03 Eh
 * total energy  :   -83.1350558 Eh     change       -0.2932414E-03 Eh
 * total energy  :   -83.1352434 Eh     change       -0.1875874E-03 Eh
 * total energy  :   -83.1412796 Eh     change       -0.3185324E-04 Eh
 * total energy  :   -83.1413118 Eh     change       -0.3212106E-04 Eh
 * total energy  :   -83.1413294 Eh     change       -0.1767120E-04 Eh
 * total energy  :   -83.1413514 Eh     change       -0.2201011E-04 Eh
 * total energy  :   -83.1413766 Eh     change       -0.2510244E-04 Eh
 * total energy  :   -83.1413858 Eh     change       -0.9252150E-05 Eh
 * total energy  :   -83.1413921 Eh     change       -0.6323042E-05 Eh
 * total energy  :   -83.1413977 Eh     change       -0.5604032E-05 Eh
 * total energy  :   -83.1414026 Eh     change       -0.4830667E-05 Eh
   *** GEOMETRY OPTIMIZATION CONVERGED AFTER 117 ITERATIONS ***

 final structure:
================
43
 xtb: 6.5.1 (579679a)
C           -6.70159118595925        0.50871283005865       -0.17758068594275
O           -5.43700331332431        0.14626299165728        0.38669467216315
C           -4.40724175941715        0.07995621446270       -0.45093931689152
O           -4.49512698656114        0.30710327548661       -1.63578495457900
C           -3.12575714339433       -0.30436625927208        0.21679710862702
N           -2.06247416900027       -0.39499068187051       -0.65163073127978
C           -0.89973083842255       -0.71740524164445       -0.20986525814499
C            0.26839318733493       -0.85464674272898       -1.15930418114992
C           -0.00794580218990       -0.12627014992308       -2.47354925811527
C            0.57217932770610       -2.33670170028522       -1.39167325013642
N            1.46585453855117       -0.27292171861293       -0.50629130833817
C            1.46184265922141        0.96912354285167       -0.05798415370352
O            0.57044621579058        1.77283482836742       -0.06938745098693
C            2.84115990961061        1.38858050389849        0.64972982795914
C            2.50321263802021        1.67001930542347        2.11380559157580
N            3.36096287230986        2.48058182165241       -0.06982445976689
N            4.47379019466596        2.16709861332079       -0.58631614973956
C            4.75819998309942        0.88123908942071       -0.21900478490836
C            5.95184321664834        0.13552461849456       -0.59792848607117
O            3.81913286692314        0.38898605085797        0.51102303685913
N           -0.66155160047651       -0.99355848631454        1.10793468561729
C           -1.63558755389191       -0.91089107059272        2.07385676126879
O           -1.41594549123229       -1.12513318332604        3.25439701451122
C           -2.95442574119320       -0.54400084188193        1.55437573326553
O           -3.92640400519707       -0.46830403142827        2.46511800983063
H           -6.64436020702857        1.50907472243258       -0.61298733453643
H           -6.98550968042686       -0.20783199850326       -0.95191612626618
H           -7.42174887258239        0.49111352006454        0.63815340270771
H           -0.87302082333082       -0.58056743278320       -2.95506057147115
H            0.85626986169536       -0.20873379240205       -3.12857377240859
H           -0.22227646922252        0.92488917821960       -2.28558461874395
H           -0.28970425866172       -2.81682018082510       -1.85323810831058
H            1.43183775498011       -2.43919192184920       -2.05072883493565
H            0.78879889398921       -2.82922227400530       -0.44609737723728
H            2.28138203858865       -0.85057429589018       -0.41127145837843
H            2.13014840957717        0.75739569914184        2.57247071908589
H            1.74071918619831        2.44611989459909        2.14986897988320
H            3.40411858639135        1.99753489525865        2.62804332158000
H            6.83717874971425        0.68530892675692       -0.26763276437478
H            5.94060098692521       -0.86152186254044       -0.16526348573622
H            6.00965415525723        0.07651400563052       -1.68749829655376
H            0.26374934987957       -1.25193605127101        1.40780982623364
H           -3.56407168157379       -0.68838061011289        3.34283848753867

          :  Hamiltonian                  GFN1-xTB          :
         :: total energy             -83.141402561561 Eh    ::
         :: gradient norm              0.000882853648 Eh/a0 ::
         :: HOMO-LUMO gap              0.392419851208 eV    ::
         :: SCC energy               -83.937993674293 Eh    ::
         :: -> Gsolv                  -0.132565762415 Eh    ::
         :: repulsion energy           0.824035733030 Eh    ::

    * Orbital Energies and Occupations

         #    Occupation            Energy/Eh            Energy/eV
      -------------------------------------------------------------
         1        2.0000           -0.9372440             -25.5037
       ...           ...                  ...                  ...
        55        2.0000           -0.5359503             -14.5839
        56        2.0000           -0.5284008             -14.3785
        57        2.0000           -0.5220655             -14.2061
        58        2.0000           -0.5181648             -14.1000
        59        2.0000           -0.5162811             -14.0487
        60        2.0000           -0.5046235             -13.7315
        61        2.0000           -0.5019128             -13.6577
        62        2.0000           -0.5000794             -13.6079
        63        2.0000           -0.4977399             -13.5442
        64        2.0000           -0.4932658             -13.4224
        65        2.0000           -0.4708486             -12.8124
        66        2.0000           -0.4610529             -12.5459
        67        1.9990           -0.4427533             -12.0479 (HOMO)
        68        0.0010           -0.4283321             -11.6555 (LUMO)
        69                         -0.3333677              -9.0714
        70                         -0.3316383              -9.0243
        71                         -0.3034303              -8.2568
        72                         -0.2959710              -8.0538
        73                         -0.2484968              -6.7619
        74                         -0.1765139              -4.8032
        75                         -0.1687153              -4.5910
        76                         -0.1616219              -4.3980
        77                         -0.1514643              -4.1216
        78                         -0.1409473              -3.8354
       ...                                ...                  ...
       136                          0.7266314              19.7726
      -------------------------------------------------------------
                  HL-Gap            0.0144212 Eh            0.3924 eV

Wiberg/Mayer (AO) data.
largest (>0.10) Wiberg bond orders for each atom

     #   Z sym  total        # sym  WBO       # sym  WBO       # sym  WBO
 ---------------------------------------------------------------------------
     1   6 C    3.869 --    28 H    0.986    26 H    0.979    27 H    0.979
                             2 O    0.894
     2   8 O    2.208 --     3 C    1.122     1 C    0.894     4 O    0.136
     3   6 C    3.854 --     4 O    1.659     2 O    1.122     5 C    0.995
     4   8 O    1.921 --     3 C    1.659     2 O    0.136
     5   6 C    3.957 --    24 C    1.503     6 N    1.173     3 C    0.995
     6   7 N    3.024 --     7 C    1.603     5 C    1.173
     7   6 C    3.933 --     6 N    1.603    21 N    1.158     8 C    0.979
     8   6 C    3.910 --     9 C    0.994    10 C    0.981     7 C    0.979
                            11 N    0.882
     9   6 C    3.985 --     8 C    0.994    30 H    0.985    31 H    0.980
                            29 H    0.980
    10   6 C    3.979 --    34 H    0.982     8 C    0.981    33 H    0.981
                            32 H    0.979
    11   7 N    3.377 --    12 C    1.348     8 C    0.882    35 H    0.878
                            13 O    0.180
    12   6 C    3.910 --    13 O    1.662    11 N    1.348    14 C    0.751
    13   8 O    2.043 --    12 C    1.662    11 N    0.180
    14   6 C    3.840 --    16 N    1.103    15 C    0.915    20 O    0.907
                            12 C    0.751
    15   6 C    3.948 --    36 H    0.979    37 H    0.975    38 H    0.974
                            14 C    0.915
    16   7 N    2.994 --    17 N    1.633    14 C    1.103
    17   7 N    3.015 --    16 N    1.633    18 C    1.215
    18   6 C    3.798 --    20 O    1.270    17 N    1.215    19 C    1.081
    19   6 C    3.962 --    18 C    1.081    40 H    0.972    39 H    0.921
                            41 H    0.920
    20   8 O    2.371 --    18 C    1.270    14 C    0.907
    21   7 N    3.461 --     7 C    1.158    22 C    1.134    42 H    0.883
                            23 O    0.134
    22   6 C    3.907 --    23 O    1.588    21 N    1.134    24 C    1.055
    23   8 O    1.908 --    22 C    1.588    21 N    0.134
    24   6 C    3.913 --     5 C    1.503    25 O    1.118    22 C    1.055
    25   8 O    2.092 --    24 C    1.118    43 H    0.803
    26   1 H    1.007 --     1 C    0.979
    27   1 H    1.007 --     1 C    0.979
    28   1 H    1.010 --     1 C    0.986
    29   1 H    1.005 --     9 C    0.980
    30   1 H    0.999 --     9 C    0.985
    31   1 H    1.005 --     9 C    0.980
    32   1 H    0.995 --    10 C    0.979
    33   1 H    0.994 --    10 C    0.981
    34   1 H    0.995 --    10 C    0.982
    35   1 H    0.920 --    11 N    0.878
    36   1 H    0.991 --    15 C    0.979
    37   1 H    0.995 --    15 C    0.975
    38   1 H    0.989 --    15 C    0.974
    39   1 H    0.977 --    19 C    0.921
    40   1 H    0.985 --    19 C    0.972
    41   1 H    0.977 --    19 C    0.920
    42   1 H    0.927 --    21 N    0.883
    43   1 H    0.841 --    25 O    0.803
 ---------------------------------------------------------------------------

           -------------------------------------------------
          | TOTAL ENERGY              -83.141402561561 Eh   |
          | GRADIENT NORM               0.000882853648 Eh/α |
          | HOMO-LUMO GAP               0.392419851208 eV   |
           -------------------------------------------------

 * finished run on 2023/06/20 at 15:34:50.539
