   * xtb version 6.5.1 (579679a) compiled by 'ehlert@majestix' on 2022-07-11
          program call               : /lustre/hpc/kemi/ree/PhD/git/ReactivityQM/dep/xtb-6.5.1/bin/xtb --gfn 1 /lustre/hpc/kemi/ree/PhD/git/ReactivityQM/calculations/R03/reac02prodN16/conf10/R03_reac02prodN16_conf10_gfn1.xyz --opt --vfukui --chrg 1 --uhf 0 --alpb DMSO

   ID    Z sym.   atoms
    1    6 C      1, 2, 5, 6, 9-12, 14, 15, 18-20, 22, 25
    2    7 N      3, 4, 8, 13, 24
    3    8 O      7, 16, 17, 21, 23, 26
    4    1 H      27-46

      * Solvation model:               ALPB
        Solvent                        DMSO
        Solvent mass                       7.8130E+01 g/mol
          :  Hamiltonian                  GFN1-xTB          :
 * total energy  :   -86.2790460 Eh     change       -0.4860112E-10 Eh
 * total energy  :   -86.2934753 Eh     change       -0.1442934E-01 Eh
 * total energy  :   -86.2988897 Eh     change       -0.5414364E-02 Eh
 * total energy  :   -86.3000097 Eh     change       -0.1119954E-02 Eh
 * total energy  :   -86.3005404 Eh     change       -0.5307683E-03 Eh
 * total energy  :   -86.3007553 Eh     change       -0.2148916E-03 Eh
 * total energy  :   -86.3008802 Eh     change       -0.1248745E-03 Eh
 * total energy  :   -86.3009585 Eh     change       -0.7826940E-04 Eh
 * total energy  :   -86.3010210 Eh     change       -0.6252921E-04 Eh
 * total energy  :   -86.3010733 Eh     change       -0.5233084E-04 Eh
 * total energy  :   -86.3013627 Eh     change       -0.8808843E-05 Eh
 * total energy  :   -86.3013726 Eh     change       -0.9873290E-05 Eh
 * total energy  :   -86.3013808 Eh     change       -0.8169618E-05 Eh
 * total energy  :   -86.3013909 Eh     change       -0.1015944E-04 Eh
 * total energy  :   -86.3013997 Eh     change       -0.8788718E-05 Eh
 * total energy  :   -86.3014070 Eh     change       -0.7300379E-05 Eh
 * total energy  :   -86.3014086 Eh     change       -0.1602226E-05 Eh
 * total energy  :   -86.3014155 Eh     change       -0.6883423E-05 Eh
 * total energy  :   -86.3014204 Eh     change       -0.4849605E-05 Eh
   *** GEOMETRY OPTIMIZATION CONVERGED AFTER 32 ITERATIONS ***

 final structure:
================
46
 xtb: 6.5.1 (579679a)
C            7.24601064672289        1.07447550352295       -0.18163768035966
C            5.79010053784384        0.84158850380928       -0.30395063924732
N            4.96710002436821        1.38433303767453       -1.15176485651977
N            3.73557562723407        0.87373415753547       -0.87822059972743
C            3.88394203978919        0.05111779052595        0.11733650811272
C            2.81095824171441       -0.74023956331269        0.76538170656340
O            2.99633482717426       -1.50203458779339        1.69245782423013
N            1.61821909911003       -0.51250811356312        0.15021693314722
C            0.34136568092324       -0.97060590405716        0.70607969989678
C            0.12001645696670       -0.23628480836726        2.03350068710103
C            0.32742439864900       -2.48604747726161        0.95872982809687
C           -0.75574916837644       -0.61940720354318       -0.29251919506826
N           -1.78984316752553        0.01029078261572        0.17705628770045
C           -2.83475522421083        0.36727875462482       -0.63456765845688
C           -3.98508016940318        1.08912156737161       -0.13788023697719
O           -4.86489071072437        1.53910846948959       -0.81289250577827
O           -4.15691326250844        1.26510534341927        1.29488561873346
C           -5.25821729009582        2.12598145706691        1.73198160426911
C           -3.15475444327900        0.95564899926528        2.30646033763818
C           -2.80571153389028        0.06027738752898       -1.98582512603483
O           -3.73204238230719        0.36032368404596       -2.87186387933487
C           -1.66873582232701       -0.69746237914939       -2.52776741707196
O           -1.58088143694220       -1.05384007743644       -3.68626990032791
N           -0.66878531253871       -0.98684591340269       -1.60657960309561
C            0.43087375319941       -1.75385683224130       -2.20931147179510
O            5.16458889171499       -0.00876404782605        0.52243631068592
H            7.77698999433530        0.12245671936280       -0.18167619187897
H            7.58957761875268        1.68933177494007       -1.01061283208505
H            7.46207961089585        1.58197400534295        0.75975908388419
H            1.57767392828977        0.29106938058509       -0.46028109548361
H           -0.78986804616973       -0.59324542986754        2.50850625490915
H            0.96034708285414       -0.43455917708016        2.69731728906221
H            0.04361549372603        0.83575818645692        1.86490756434546
H            0.64196534040419       -3.04377795306718        0.08038162814203
H           -0.68564195540020       -2.78564939727748        1.22279528170076
H            0.99250111162396       -2.72861495904902        1.78522452587592
H           -6.00177107772188        2.12829678043786        0.93849726987934
H           -5.66274164431472        1.68351950576541        2.63834812472071
H           -4.86573080001899        3.12551203277940        1.91233685784335
H           -2.26050324344939        1.54076597110704        2.10810833753445
H           -3.58834701459368        1.21624774987109        3.26800584719720
H           -2.95182845873624       -0.11027230634038        2.25173533927210
H           -4.47985550926890        0.86640244640489       -2.49453130894717
H            0.06509823850754       -2.75363542683636       -2.44380434509991
H            0.72119664732873       -1.25442577184583       -3.13410365608855
H            1.27909038167579       -1.80763966223173       -1.53992255116628

          :  Hamiltonian                  GFN1-xTB          :
         :: total energy             -86.301420351297 Eh    ::
         :: gradient norm              0.000812542038 Eh/a0 ::
         :: HOMO-LUMO gap              2.148981982637 eV    ::
         :: SCC energy               -87.134596595520 Eh    ::
         :: -> Gsolv                  -0.118770813506 Eh    ::
         :: repulsion energy           0.863009332024 Eh    ::

    * Orbital Energies and Occupations

         #    Occupation            Energy/Eh            Energy/eV
      -------------------------------------------------------------
         1        2.0000           -0.9399699             -25.5779
       ...           ...                  ...                  ...
        58        2.0000           -0.5273190             -14.3491
        59        2.0000           -0.5195363             -14.1373
        60        2.0000           -0.5146980             -14.0056
        61        2.0000           -0.5112488             -13.9118
        62        2.0000           -0.5025008             -13.6737
        63        2.0000           -0.4898810             -13.3303
        64        2.0000           -0.4870508             -13.2533
        65        2.0000           -0.4785548             -13.0221
        66        2.0000           -0.4736851             -12.8896
        67        2.0000           -0.4673145             -12.7163
        68        2.0000           -0.4587433             -12.4830
        69        2.0000           -0.4582641             -12.4700
        70        2.0000           -0.4538331             -12.3494 (HOMO)
        71                         -0.3748595             -10.2004 (LUMO)
        72                         -0.3196726              -8.6987
        73                         -0.3155923              -8.5877
        74                         -0.2856599              -7.7732
        75                         -0.2615768              -7.1179
        76                         -0.2072446              -5.6394
        77                         -0.1969165              -5.3584
        78                         -0.1941370              -5.2827
        79                         -0.1725917              -4.6965
        80                         -0.1506159              -4.0985
        81                         -0.1439687              -3.9176
       ...                                ...                  ...
       144                          0.7234363              19.6857
      -------------------------------------------------------------
                  HL-Gap            0.0789736 Eh            2.1490 eV

Wiberg/Mayer (AO) data.
largest (>0.10) Wiberg bond orders for each atom

     #   Z sym  total        # sym  WBO       # sym  WBO       # sym  WBO
 ---------------------------------------------------------------------------
     1   6 C    3.985 --     2 C    1.032    28 H    0.982    27 H    0.966
                            29 H    0.959
     2   6 C    3.869 --     3 N    1.598    26 O    1.085     1 C    1.032
     3   7 N    2.981 --     2 C    1.598     4 N    1.205
     4   7 N    3.019 --     5 C    1.604     3 N    1.205
     5   6 C    3.878 --     4 N    1.604    26 O    1.066     6 C    0.994
     6   6 C    3.912 --     7 O    1.618     8 N    1.211     5 C    0.994
     7   8 O    1.932 --     6 C    1.618     8 N    0.167
     8   7 N    3.319 --     6 C    1.211     9 C    0.927    30 H    0.895
                             7 O    0.167
     9   6 C    3.935 --    10 C    0.990    11 C    0.979    12 C    0.976
                             8 N    0.927
    10   6 C    3.989 --     9 C    0.990    33 H    0.982    31 H    0.981
                            32 H    0.978
    11   6 C    3.985 --    35 H    0.984    34 H    0.980     9 C    0.979
                            36 H    0.975
    12   6 C    3.923 --    13 N    1.556    24 N    1.187     9 C    0.976
    13   7 N    3.040 --    12 C    1.556    14 C    1.167
    14   6 C    3.955 --    20 C    1.407    13 N    1.167    15 C    1.112
    15   6 C    3.798 --    16 O    1.716    14 C    1.112    17 O    0.820
    16   8 O    2.054 --    15 C    1.716
    17   8 O    2.531 --    15 C    0.820    19 C    0.791    18 C    0.787
    18   6 C    3.762 --    39 H    0.979    38 H    0.978    37 H    0.966
                            17 O    0.787
    19   6 C    3.768 --    40 H    0.976    41 H    0.974    42 H    0.972
                            17 O    0.791
    20   6 C    3.912 --    14 C    1.407    21 O    1.179    22 C    1.039
    21   8 O    2.150 --    20 C    1.179    43 H    0.770
    22   6 C    3.916 --    23 O    1.619    24 N    1.118    20 C    1.039
    23   8 O    1.935 --    22 C    1.619    24 N    0.141
    24   7 N    3.518 --    12 C    1.187    22 C    1.118    25 C    0.919
                            23 O    0.141
    25   6 C    3.907 --    46 H    0.974    45 H    0.973    44 H    0.972
                            24 N    0.919
    26   8 O    2.334 --     2 C    1.085     5 C    1.066
    27   1 H    0.996 --     1 C    0.966
    28   1 H    0.998 --     1 C    0.982
    29   1 H    0.996 --     1 C    0.959
    30   1 H    0.951 --     8 N    0.895
    31   1 H    1.004 --    10 C    0.981
    32   1 H    1.002 --    10 C    0.978
    33   1 H    1.004 --    10 C    0.982
    34   1 H    1.000 --    11 C    0.980
    35   1 H    1.000 --    11 C    0.984
    36   1 H    1.009 --    11 C    0.975
    37   1 H    0.996 --    18 C    0.966
    38   1 H    0.993 --    18 C    0.978
    39   1 H    0.990 --    18 C    0.979
    40   1 H    1.011 --    19 C    0.976
    41   1 H    0.992 --    19 C    0.974
    42   1 H    1.015 --    19 C    0.972
    43   1 H    0.829 --    21 O    0.770
    44   1 H    0.999 --    25 C    0.972
    45   1 H    1.002 --    25 C    0.973
    46   1 H    1.009 --    25 C    0.974
 ---------------------------------------------------------------------------

           -------------------------------------------------
          | TOTAL ENERGY              -86.301420351297 Eh   |
          | GRADIENT NORM               0.000812542038 Eh/α |
          | HOMO-LUMO GAP               2.148981982637 eV   |
           -------------------------------------------------

 * finished run on 2023/06/20 at 15:52:56.306
