   * xtb version 6.5.1 (579679a) compiled by 'ehlert@majestix' on 2022-07-11
          program call               : /lustre/hpc/kemi/ree/PhD/git/ReactivityQM/dep/xtb-6.5.1/bin/xtb --gfn 1 /lustre/hpc/kemi/ree/PhD/git/ReactivityQM/calculations/R02methylcation/reac01prodE06/conf05/R02methylcation_reac01prodE06_conf05_gfn1.xyz --opt --vfukui --chrg -2 --uhf 0 --alpb DMSO

   ID    Z sym.   atoms
    1    6 C      1, 3, 5, 6, 8, 11-15, 17, 19, 22, 23
    2    8 O      2, 4, 7, 9, 18, 24
    3    7 N      10, 16, 20, 21, 25
    4    1 H      26-42

      * Solvation model:               ALPB
        Solvent                        DMSO
        Solvent mass                       7.8130E+01 g/mol
          :  Hamiltonian                  GFN1-xTB          :
 * total energy  :   -83.6052035 Eh     change       -0.2404477E-10 Eh
 * total energy  :   -83.6160497 Eh     change       -0.1084615E-01 Eh
 * total energy  :   -83.6194260 Eh     change       -0.3376382E-02 Eh
 * total energy  :   -83.6199600 Eh     change       -0.5339228E-03 Eh
 * total energy  :   -83.6204022 Eh     change       -0.4422225E-03 Eh
 * total energy  :   -83.6207283 Eh     change       -0.3260695E-03 Eh
 * total energy  :   -83.6210696 Eh     change       -0.3413760E-03 Eh
 * total energy  :   -83.6213591 Eh     change       -0.2894803E-03 Eh
 * total energy  :   -83.6215308 Eh     change       -0.1716858E-03 Eh
 * total energy  :   -83.6216288 Eh     change       -0.9802620E-04 Eh
 * total energy  :   -83.6220053 Eh     change       -0.1447938E-04 Eh
 * total energy  :   -83.6220203 Eh     change       -0.1502466E-04 Eh
 * total energy  :   -83.6220252 Eh     change       -0.4903230E-05 Eh
 * total energy  :   -83.6220336 Eh     change       -0.8341081E-05 Eh
 * total energy  :   -83.6220386 Eh     change       -0.5027595E-05 Eh
 * total energy  :   -83.6220470 Eh     change       -0.8384521E-05 Eh
 * total energy  :   -83.6220539 Eh     change       -0.6878680E-05 Eh
 * total energy  :   -83.6220591 Eh     change       -0.5267659E-05 Eh
 * total energy  :   -83.6220624 Eh     change       -0.3243387E-05 Eh
   *** GEOMETRY OPTIMIZATION CONVERGED AFTER 30 ITERATIONS ***

 final structure:
================
42
 xtb: 6.5.1 (579679a)
C           -4.55583993296654        2.95440987797011       -1.84487029966478
O           -3.76226896237083        2.39473759686070       -0.81624842015568
C           -3.02049330424909        1.29728377337822       -1.17019660125981
O           -3.06922612265669        0.88838335974527       -2.33328544283134
C           -2.21924786425965        0.71009216773924       -0.10458892950241
C           -2.16204444367514        1.26473496268637        1.21174313733239
O           -2.90306220202331        2.19258987368039        1.66232747981901
C           -1.07969789864298        0.71938282278484        2.08081514140928
O           -0.76319905221250        1.18796934789921        3.18371471186570
N           -0.31783806492213       -0.30588201809812        1.54954960386135
C           -0.87007602967311       -1.15688657051324        0.49632793820006
C           -1.89469623311960       -2.12902872729168        1.14296266333701
C            0.30923525774203       -1.92803649452157       -0.19089818852762
C            0.98849622114867       -2.94344703752751        0.74000157061982
C           -0.20284964684967       -2.63945177255786       -1.45073462445795
N            1.27091032830421       -0.88825951796836       -0.56764558265476
C            2.47755592893560       -1.14292800152321       -1.15737438894498
O            2.77975082167332       -2.22135301077409       -1.70194152771652
C            3.38577942176061       -0.01116413693888       -1.14829324312237
N            4.59209410474191        0.05555492264173       -1.69181727798332
N            5.07568658161089        1.30412285284716       -1.41644410128752
C            4.16817426503267        1.92594082846287       -0.73493942709947
C            4.23983480110983        3.30753575546837       -0.20080944632682
O            3.06728650515663        1.17059104456488       -0.52280401181979
N           -1.50933495300724       -0.37524186173892       -0.51725179516457
H           -3.93801996583341        3.28147508414389       -2.68903466672225
H           -5.07705248727996        3.81371577394727       -1.42227399293921
H           -5.29016822482164        2.22918344761562       -2.21378637808438
H            0.25812397916613       -0.77511906326325        2.23123071400110
H           -2.27892802669609       -2.82645603572506        0.40205814220457
H           -1.44240542674819       -2.68457227332865        1.96137779148229
H           -2.72815991022470       -1.54790054662820        1.53780829498716
H            1.33365856291532       -2.46588494673438        1.65561800746939
H            1.84799442589112       -3.38803060577256        0.23864717313502
H            0.29764960650771       -3.74303814398512        0.99986287063734
H            0.61948284371193       -3.10918040331343       -1.98751762559485
H           -0.91760723028296       -3.41442095112715       -1.17856620443329
H           -0.69675338908064       -1.91956092087414       -2.10567357970796
H            1.21576816352323       -0.04758375288044       -0.00175095362341
H            4.10713742004249        3.30229126028033        0.88119941552600
H            5.20931440249983        3.73612394950800       -0.44159747741147
H            3.45503673010946        3.92730909088774       -0.63577346879454

          :  Hamiltonian                  GFN1-xTB          :
         :: total energy             -83.622062378386 Eh    ::
         :: gradient norm              0.000310972495 Eh/a0 ::
         :: HOMO-LUMO gap              0.075360659028 eV    ::
         :: SCC energy               -84.342171174251 Eh    ::
         :: -> Gsolv                  -0.272828864763 Eh    ::
         :: repulsion energy           0.747284411791 Eh    ::

    * Orbital Energies and Occupations

         #    Occupation            Energy/Eh            Energy/eV
      -------------------------------------------------------------
         1        2.0000           -0.8178791             -22.2556
       ...           ...                  ...                  ...
        56        2.0000           -0.4417547             -12.0208
        57        2.0000           -0.4386546             -11.9364
        58        2.0000           -0.4191218             -11.4049
        59        2.0000           -0.4159463             -11.3185
        60        2.0000           -0.4143643             -11.2754
        61        2.0000           -0.4076612             -11.0930
        62        2.0000           -0.4046177             -11.0102
        63        2.0000           -0.3961538             -10.7799
        64        2.0000           -0.3918983             -10.6641
        65        2.0000           -0.3804297             -10.3520
        66        2.0000           -0.3642166              -9.9108
        67        2.0000           -0.3343844              -9.0991
        68        1.6223           -0.2752628              -7.4903 (HOMO)
        69        0.3777           -0.2724933              -7.4149 (LUMO)
        70                         -0.2385309              -6.4908
        71                         -0.2215046              -6.0274
        72                         -0.1656327              -4.5071
        73                         -0.1517203              -4.1285
        74                         -0.1284917              -3.4964
        75                         -0.1123934              -3.0584
        76                         -0.1066211              -2.9013
        77                         -0.0992421              -2.7005
        78                         -0.0854860              -2.3262
        79                         -0.0832771              -2.2661
       ...                                ...                  ...
       134                          0.7393116              20.1177
      -------------------------------------------------------------
                  HL-Gap            0.0027695 Eh            0.0754 eV

Wiberg/Mayer (AO) data.
largest (>0.10) Wiberg bond orders for each atom

     #   Z sym  total        # sym  WBO       # sym  WBO       # sym  WBO
 ---------------------------------------------------------------------------
     1   6 C    3.912 --    27 H    0.987    28 H    0.980    26 H    0.980
                             2 O    0.939
     2   8 O    2.136 --     3 C    1.016     1 C    0.939     4 O    0.101
     3   6 C    3.813 --     4 O    1.546     5 C    1.114     2 O    1.016
     4   8 O    1.813 --     3 C    1.546     2 O    0.101
     5   6 C    3.910 --    25 N    1.285     6 C    1.224     3 C    1.114
     6   6 C    3.865 --     7 O    1.413     5 C    1.224     8 C    1.012
     7   8 O    1.654 --     6 C    1.413
     8   6 C    3.855 --     9 O    1.536    10 N    1.138     6 C    1.012
     9   8 O    1.796 --     8 C    1.536    10 N    0.123
    10   7 N    3.242 --     8 C    1.138    11 C    0.925    29 H    0.917
                             9 O    0.123
    11   6 C    3.942 --    25 N    1.025    12 C    0.963    13 C    0.949
                            10 N    0.925
    12   6 C    3.974 --    31 H    0.985    32 H    0.984    30 H    0.983
                            11 C    0.963
    13   6 C    3.934 --    15 C    0.998    14 C    0.993    11 C    0.949
                            16 N    0.932
    14   6 C    3.992 --    13 C    0.993    35 H    0.984    33 H    0.982
                            34 H    0.981
    15   6 C    3.994 --    13 C    0.998    37 H    0.984    36 H    0.982
                            38 H    0.980
    16   7 N    3.253 --    17 C    1.188    13 C    0.932    39 H    0.903
                            18 O    0.140
    17   6 C    3.816 --    18 O    1.466    16 N    1.188    19 C    1.085
    18   8 O    1.740 --    17 C    1.466    16 N    0.140
    19   6 C    3.727 --    20 N    1.470    17 C    1.085    24 O    0.992
    20   7 N    2.800 --    19 C    1.470    21 N    1.189
    21   7 N    2.980 --    22 C    1.625    20 N    1.189
    22   6 C    3.828 --    21 N    1.625    24 O    1.053    23 C    1.026
    23   6 C    3.993 --    22 C    1.026    41 H    0.985    40 H    0.970
                            42 H    0.969
    24   8 O    2.220 --    22 C    1.053    19 C    0.992
    25   7 N    2.627 --     5 C    1.285    11 C    1.025
    26   1 H    1.018 --     1 C    0.980
    27   1 H    1.018 --     1 C    0.987
    28   1 H    1.017 --     1 C    0.980
    29   1 H    0.968 --    10 N    0.917
    30   1 H    1.012 --    12 C    0.983
    31   1 H    1.006 --    12 C    0.985
    32   1 H    1.011 --    12 C    0.984
    33   1 H    1.005 --    14 C    0.982
    34   1 H    1.014 --    14 C    0.981
    35   1 H    1.007 --    14 C    0.984
    36   1 H    1.021 --    15 C    0.982
    37   1 H    1.009 --    15 C    0.984
    38   1 H    1.036 --    15 C    0.980
    39   1 H    0.977 --    16 N    0.903
    40   1 H    0.999 --    23 C    0.970
    41   1 H    1.003 --    23 C    0.985
    42   1 H    1.000 --    23 C    0.969
 ---------------------------------------------------------------------------

           -------------------------------------------------
          | TOTAL ENERGY              -83.622062378386 Eh   |
          | GRADIENT NORM               0.000310972495 Eh/α |
          | HOMO-LUMO GAP               0.075360659028 eV   |
           -------------------------------------------------

 * finished run on 2023/06/21 at 17:15:09.145
