   * xtb version 6.5.1 (579679a) compiled by 'ehlert@majestix' on 2022-07-11
          program call               : /lustre/hpc/kemi/ree/PhD/git/ReactivityQM/dep/xtb-6.5.1/bin/xtb --gfn 1 /lustre/hpc/kemi/ree/PhD/git/ReactivityQM/calculations/R01/reac01prodE06/conf11/R01_reac01prodE06_conf11_gfn1.xyz --opt --vfukui --chrg -1 --uhf 0 --alpb DMSO

   ID    Z sym.   atoms
    1    6 C      1, 3, 5, 8-10
    2    8 O      2, 4, 11
    3    7 N      6, 7
    4    1 H      12-20

      * Solvation model:               ALPB
        Solvent                        DMSO
        Solvent mass                       7.8130E+01 g/mol
          :  Hamiltonian                  GFN1-xTB          :
 * total energy  :   -38.3452686 Eh     change       -0.2714273E-11 Eh
 * total energy  :   -38.3528279 Eh     change       -0.7559274E-02 Eh
 * total energy  :   -38.3548482 Eh     change       -0.2020315E-02 Eh
 * total energy  :   -38.3550464 Eh     change       -0.1981676E-03 Eh
 * total energy  :   -38.3551580 Eh     change       -0.1115963E-03 Eh
 * total energy  :   -38.3551794 Eh     change       -0.2145306E-04 Eh
 * total energy  :   -38.3551942 Eh     change       -0.1477393E-04 Eh
 * total energy  :   -38.3551995 Eh     change       -0.5253153E-05 Eh
 * total energy  :   -38.3552013 Eh     change       -0.1788972E-05 Eh
   *** GEOMETRY OPTIMIZATION CONVERGED AFTER 9 ITERATIONS ***

 final structure:
================
20
 xtb: 6.5.1 (579679a)
C           -4.10585939145828        0.31431325864598        0.21352603436243
O           -2.75868911133444        0.05747505784273        0.56716755719268
C           -1.83203763127615        0.30307556768120       -0.44568280446340
O           -2.21292560824020        0.71049198676273       -1.55174087331090
C           -0.51980962581375        0.03187472770738       -0.02369518034344
N           -0.13820044856973       -0.41292121908697        1.17288336297907
N            1.14351621510967       -0.56622445731095        1.22822415299305
C            1.69998647893497       -0.18262673534466       -0.08169968142917
C            2.41087570010636       -1.38941511738954       -0.71523080509979
C            2.67099528085105        0.99579294841886        0.09422129976401
O            0.58899920914942        0.20615077299495       -0.87405494754718
H           -4.24589281583912        1.36385201297750       -0.07032050762237
H           -4.71675558264156        0.09049150984093        1.08861219805563
H           -4.42203538506802       -0.31874567259964       -0.62364667859286
H            3.23734052049219       -1.70387209658329       -0.08149974311973
H            1.70498601202513       -2.21261666225218       -0.81492594414122
H            2.79155810701762       -1.12637927069653       -1.70051519336516
H            2.14705419077732        1.83013505974736        0.55769313131893
H            3.49906425864900        0.69728570441832        0.73358242063536
H            3.05782962712821        1.31186162422579       -0.87284979826587

          :  Hamiltonian                  GFN1-xTB          :
         :: total energy             -38.355201260223 Eh    ::
         :: gradient norm              0.000581755440 Eh/a0 ::
         :: HOMO-LUMO gap              2.121153648332 eV    ::
         :: SCC energy               -38.663045520906 Eh    ::
         :: -> Gsolv                  -0.096829731247 Eh    ::
         :: repulsion energy           0.316296491694 Eh    ::

    * Orbital Energies and Occupations

         #    Occupation            Energy/Eh            Energy/eV
      -------------------------------------------------------------
         1        2.0000           -0.7798900             -21.2219
       ...           ...                  ...                  ...
        19        2.0000           -0.5081701             -13.8280
        20        2.0000           -0.4952523             -13.4765
        21        2.0000           -0.4864689             -13.2375
        22        2.0000           -0.4840977             -13.1730
        23        2.0000           -0.4778131             -13.0020
        24        2.0000           -0.4703560             -12.7990
        25        2.0000           -0.4504270             -12.2567
        26        2.0000           -0.4496140             -12.2346
        27        2.0000           -0.4391529             -11.9500
        28        2.0000           -0.4243265             -11.5465
        29        2.0000           -0.4127274             -11.2309
        30        2.0000           -0.3743837             -10.1875
        31        2.0000           -0.3215204              -8.7490 (HOMO)
        32                         -0.2435695              -6.6279 (LUMO)
        33                         -0.1281183              -3.4863
        34                         -0.1157551              -3.1499
        35                         -0.1056240              -2.8742
        36                         -0.0996929              -2.7128
        37                         -0.0588874              -1.6024
        38                         -0.0539255              -1.4674
        39                         -0.0521460              -1.4190
        40                         -0.0473135              -1.2875
        41                         -0.0290658              -0.7909
        42                         -0.0273907              -0.7453
       ...                                ...                  ...
        62                          0.7030210              19.1302
      -------------------------------------------------------------
                  HL-Gap            0.0779510 Eh            2.1212 eV

Wiberg/Mayer (AO) data.
largest (>0.10) Wiberg bond orders for each atom

     #   Z sym  total        # sym  WBO       # sym  WBO       # sym  WBO
 ---------------------------------------------------------------------------
     1   6 C    3.908 --    13 H    0.987    14 H    0.981    12 H    0.981
                             2 O    0.939
     2   8 O    2.085 --     3 C    0.961     1 C    0.939
     3   6 C    3.882 --     4 O    1.489     5 C    1.250     2 O    0.961
                             7 N    0.105
     4   8 O    1.811 --     3 C    1.489
     5   6 C    3.846 --     6 N    1.367     3 C    1.250    11 O    0.931
                             7 N    0.151
     6   7 N    3.024 --     7 N    1.503     5 C    1.367
     7   7 N    2.899 --     6 N    1.503     8 C    0.977     5 C    0.151
                             3 C    0.105
     8   6 C    3.900 --    10 C    0.978     9 C    0.978     7 N    0.977
                            11 O    0.929
     9   6 C    3.995 --    15 H    0.988    17 H    0.986    16 H    0.985
                             8 C    0.978
    10   6 C    3.995 --    19 H    0.988    20 H    0.986    18 H    0.985
                             8 C    0.978
    11   8 O    2.050 --     5 C    0.931     8 C    0.929
    12   1 H    1.016 --     1 C    0.981
    13   1 H    1.018 --     1 C    0.987
    14   1 H    1.016 --     1 C    0.981
    15   1 H    1.010 --     9 C    0.988
    16   1 H    1.014 --     9 C    0.985
    17   1 H    1.008 --     9 C    0.986
    18   1 H    1.014 --    10 C    0.985
    19   1 H    1.010 --    10 C    0.988
    20   1 H    1.008 --    10 C    0.986
 ---------------------------------------------------------------------------

           -------------------------------------------------
          | TOTAL ENERGY              -38.355201260223 Eh   |
          | GRADIENT NORM               0.000581755440 Eh/α |
          | HOMO-LUMO GAP               2.121153648332 eV   |
           -------------------------------------------------

 * finished run on 2023/06/20 at 14:54:21.762
