   * xtb version 6.5.1 (579679a) compiled by 'ehlert@majestix' on 2022-07-11
          program call               : /lustre/hpc/kemi/ree/PhD/git/ReactivityQM/dep/xtb-6.5.1/bin/xtb --gfn 1 /lustre/hpc/kemi/ree/PhD/git/ReactivityQM/calculations/R03/reac02prodN13/conf03/R03_reac02prodN13_conf03_gfn1.xyz --opt --vfukui --chrg 1 --uhf 0 --alpb DMSO

   ID    Z sym.   atoms
    1    6 C      1, 3, 5, 7-10, 12, 14, 17-19, 22, 23, 25
    2    8 O      2, 4, 13, 20, 24, 26
    3    7 N      6, 11, 15, 16, 21
    4    1 H      27-46

      * Solvation model:               ALPB
        Solvent                        DMSO
        Solvent mass                       7.8130E+01 g/mol
          :  Hamiltonian                  GFN1-xTB          :
 * total energy  :   -86.2840097 Eh     change       -0.3614531E-09 Eh
 * total energy  :   -86.2978908 Eh     change       -0.1388107E-01 Eh
 * total energy  :   -86.3032149 Eh     change       -0.5324100E-02 Eh
 * total energy  :   -86.3042372 Eh     change       -0.1022313E-02 Eh
 * total energy  :   -86.3050772 Eh     change       -0.8400505E-03 Eh
 * total energy  :   -86.3054540 Eh     change       -0.3767999E-03 Eh
 * total energy  :   -86.3057610 Eh     change       -0.3069665E-03 Eh
 * total energy  :   -86.3059713 Eh     change       -0.2102686E-03 Eh
 * total energy  :   -86.3061216 Eh     change       -0.1503534E-03 Eh
 * total energy  :   -86.3062114 Eh     change       -0.8975554E-04 Eh
 * total energy  :   -86.3065538 Eh     change       -0.2952820E-04 Eh
 * total energy  :   -86.3065807 Eh     change       -0.2686159E-04 Eh
 * total energy  :   -86.3065909 Eh     change       -0.1023393E-04 Eh
 * total energy  :   -86.3066057 Eh     change       -0.1480705E-04 Eh
 * total energy  :   -86.3066119 Eh     change       -0.6212369E-05 Eh
 * total energy  :   -86.3066306 Eh     change       -0.1870409E-04 Eh
 * total energy  :   -86.3066358 Eh     change       -0.5213119E-05 Eh
 * total energy  :   -86.3066430 Eh     change       -0.7196703E-05 Eh
 * total energy  :   -86.3066469 Eh     change       -0.3856721E-05 Eh
   *** GEOMETRY OPTIMIZATION CONVERGED AFTER 28 ITERATIONS ***

 final structure:
================
46
 xtb: 6.5.1 (579679a)
C            5.87383233703896        1.97751717727837       -1.87286182013850
O            4.71034505339823        1.34262940358863       -1.32464945097254
C            4.74033826168954        1.06011524103298       -0.03618128559409
O            5.68356785595380        1.31243450475415        0.69090568773693
C            3.51031675581458        0.39394919525487        0.46582895469973
N            2.49803048721271        0.17613383393135       -0.40909229239107
C            1.40785047961275       -0.42466444500334       -0.03153376151861
C            0.37599271395998       -0.62677634434430       -1.13062127219198
C            0.45667510219718       -2.05263176950206       -1.68432703003304
C            0.63067903721669        0.38281029711961       -2.26069393742886
N           -0.98016319846845       -0.39071689392286       -0.62662510764952
C           -1.28919564088024        0.72692498762627        0.05233580451966
O           -0.51271266252594        1.58208227392037        0.42103460995641
C           -2.75770108790853        0.81342999986279        0.35555589446083
N           -3.36372583451663        1.86862480032496        0.97134486924316
N           -4.59940014617148        1.60843305681441        1.05836506487375
C           -4.87466619518536        0.33164677055747        0.49065370996823
C           -5.81946654744539        0.45159317336820       -0.71005616814061
C           -5.40583136541686       -0.63100162869455        1.56017634854693
O           -3.58945241081364       -0.11312474701729        0.04908817903827
N            1.24269221214428       -0.88602640130736        1.23877827516561
C            0.07509824773136       -1.63170434540940        1.70402506130858
C            2.18870947217280       -0.65584422402772        2.24802011322738
O            1.97930859709612       -1.02498540684908        3.38887843634539
C            3.40254941281270        0.02154771058786        1.78943154885454
O            4.34079007084355        0.22664667341241        2.70063156051966
H            6.05298231621482        2.92682259653392       -1.36373013720905
H            6.74235438900133        1.32739594379017       -1.74871969471883
H            5.66679551793789        2.14112851579966       -2.92779957732931
H           -0.25928421565675       -2.16848339043319       -2.49573206546689
H            1.45965972614636       -2.23020444366222       -2.06984207044810
H            0.23934970860300       -2.79227289116513       -0.91744865119337
H            1.59834528413139        0.18052491177745       -2.71596151722756
H            0.62955489978155        1.39765446272599       -1.86631675392914
H           -0.15063681443803        0.28491624212183       -3.01070445864162
H           -1.71601163766018       -1.00086411267334       -0.93887389472240
H           -5.37470778055317        1.11136630993197       -1.45176006907618
H           -5.96831731036261       -0.53638367251471       -1.13830984507603
H           -6.76917956082209        0.85847443759244       -0.37124514376848
H           -6.36803049552442       -0.26873094397072        1.91384533760517
H           -5.51705061807061       -1.61704135223669        1.11677307978364
H           -4.69805292443150       -0.67516436148626        2.38483098723491
H           -0.44672692116292       -2.08337886215686        0.87205815614862
H            0.42106018735700       -2.40762782505592        2.38642157266947
H           -0.59248784149031       -0.95679125413816        2.23844748856412
H            5.12592208343938        0.66961779586238        2.29599826439517

          :  Hamiltonian                  GFN1-xTB          :
         :: total energy             -86.306646899018 Eh    ::
         :: gradient norm              0.000753435521 Eh/a0 ::
         :: HOMO-LUMO gap              0.118214893178 eV    ::
         :: SCC energy               -87.126837696116 Eh    ::
         :: -> Gsolv                  -0.119822527333 Eh    ::
         :: repulsion energy           0.849926924207 Eh    ::

    * Orbital Energies and Occupations

         #    Occupation            Energy/Eh            Energy/eV
      -------------------------------------------------------------
         1        2.0000           -0.9309327             -25.3320
       ...           ...                  ...                  ...
        58        2.0000           -0.5367266             -14.6051
        59        2.0000           -0.5274310             -14.3521
        60        2.0000           -0.5239929             -14.2586
        61        2.0000           -0.5219727             -14.2036
        62        2.0000           -0.5145741             -14.0023
        63        2.0000           -0.5087046             -13.8426
        64        2.0000           -0.5046164             -13.7313
        65        2.0000           -0.5018908             -13.6571
        66        2.0000           -0.4949533             -13.4684
        67        2.0000           -0.4913102             -13.3692
        68        2.0000           -0.4766585             -12.9705
        69        2.0000           -0.4622868             -12.5795
        70        1.8155           -0.4447094             -12.1012 (HOMO)
        71        0.1845           -0.4403651             -11.9829 (LUMO)
        72                         -0.3567880              -9.7087
        73                         -0.3417785              -9.3003
        74                         -0.3043108              -8.2807
        75                         -0.2581772              -7.0254
        76                         -0.2573111              -7.0018
        77                         -0.1775272              -4.8308
        78                         -0.1601091              -4.3568
        79                         -0.1565395              -4.2597
        80                         -0.1543335              -4.1996
        81                         -0.1447473              -3.9388
       ...                                ...                  ...
       144                          0.7061163              19.2144
      -------------------------------------------------------------
                  HL-Gap            0.0043443 Eh            0.1182 eV

Wiberg/Mayer (AO) data.
largest (>0.10) Wiberg bond orders for each atom

     #   Z sym  total        # sym  WBO       # sym  WBO       # sym  WBO
 ---------------------------------------------------------------------------
     1   6 C    3.858 --    29 H    0.986    27 H    0.978    28 H    0.978
                             2 O    0.885
     2   8 O    2.226 --     3 C    1.151     1 C    0.885     4 O    0.135
     3   6 C    3.850 --     4 O    1.613     2 O    1.151     5 C    1.006
     4   8 O    1.948 --     3 C    1.613     2 O    0.135
     5   6 C    3.923 --    25 C    1.423     6 N    1.231     3 C    1.006
     6   7 N    2.984 --     7 C    1.510     5 C    1.231
     7   6 C    3.897 --     6 N    1.510    21 N    1.211     8 C    0.974
     8   6 C    3.914 --     9 C    0.982    10 C    0.976     7 C    0.974
                            11 N    0.915
     9   6 C    3.981 --     8 C    0.982    31 H    0.981    30 H    0.980
                            32 H    0.978
    10   6 C    3.978 --    35 H    0.984    34 H    0.981    33 H    0.980
                             8 C    0.976
    11   7 N    3.397 --    12 C    1.275     8 C    0.915    36 H    0.881
                            13 O    0.209
    12   6 C    3.924 --    13 O    1.606    11 N    1.275    14 C    0.958
    13   8 O    1.924 --    12 C    1.606    11 N    0.209
    14   6 C    3.720 --    20 O    1.297    15 N    1.233    12 C    0.958
    15   7 N    3.010 --    16 N    1.638    14 C    1.233
    16   7 N    2.880 --    15 N    1.638    17 C    1.053
    17   6 C    3.816 --    16 N    1.053    18 C    0.910    19 C    0.906
                            20 O    0.860
    18   6 C    3.939 --    37 H    0.979    39 H    0.978    38 H    0.977
                            17 C    0.910
    19   6 C    3.938 --    42 H    0.980    40 H    0.978    41 H    0.976
                            17 C    0.906
    20   8 O    2.334 --    14 C    1.297    17 C    0.860
    21   7 N    3.493 --     7 C    1.211    23 C    1.086    22 C    0.929
                            24 O    0.123
    22   6 C    3.915 --    43 H    0.977    45 H    0.973    44 H    0.972
                            21 N    0.929
    23   6 C    3.893 --    24 O    1.613    21 N    1.086    25 C    1.057
    24   8 O    1.886 --    23 C    1.613    21 N    0.123
    25   6 C    3.854 --     5 C    1.423    26 O    1.157    23 C    1.057
    26   8 O    2.087 --    25 C    1.157    46 H    0.765
    27   1 H    1.004 --     1 C    0.978
    28   1 H    1.004 --     1 C    0.978
    29   1 H    1.009 --     1 C    0.986
    30   1 H    0.993 --     9 C    0.980
    31   1 H    0.997 --     9 C    0.981
    32   1 H    0.997 --     9 C    0.978
    33   1 H    1.008 --    10 C    0.980
    34   1 H    1.006 --    10 C    0.981
    35   1 H    0.998 --    10 C    0.984
    36   1 H    0.919 --    11 N    0.881
    37   1 H    0.991 --    18 C    0.979
    38   1 H    0.991 --    18 C    0.977
    39   1 H    0.992 --    18 C    0.978
    40   1 H    0.992 --    19 C    0.978
    41   1 H    0.991 --    19 C    0.976
    42   1 H    0.992 --    19 C    0.980
    43   1 H    1.004 --    22 C    0.977
    44   1 H    1.001 --    22 C    0.972
    45   1 H    0.998 --    22 C    0.973
    46   1 H    0.842 --    26 O    0.765
 ---------------------------------------------------------------------------

           -------------------------------------------------
          | TOTAL ENERGY              -86.306646899018 Eh   |
          | GRADIENT NORM               0.000753435521 Eh/α |
          | HOMO-LUMO GAP               0.118214893178 eV   |
           -------------------------------------------------

 * finished run on 2023/06/20 at 15:48:56.220
