   * xtb version 6.5.1 (579679a) compiled by 'ehlert@majestix' on 2022-07-11
          program call               : /lustre/hpc/kemi/ree/PhD/git/ReactivityQM/dep/xtb-6.5.1/bin/xtb --gfn 1 /lustre/hpc/kemi/ree/PhD/git/ReactivityQM/calculations/R03/reac02prodN05/conf11/R03_reac02prodN05_conf11_gfn1.xyz --opt --vfukui --chrg 1 --uhf 0 --alpb DMSO

   ID    Z sym.   atoms
    1    6 C      1, 3, 5, 6, 8, 11-15, 17, 19, 22, 23, 26
    2    8 O      2, 4, 7, 9, 18, 24
    3    7 N      10, 16, 20, 21, 25
    4    1 H      27-46

      * Solvation model:               ALPB
        Solvent                        DMSO
        Solvent mass                       7.8130E+01 g/mol
          :  Hamiltonian                  GFN1-xTB          :
 * total energy  :   -86.3087960 Eh     change       -0.3568346E-10 Eh
 * total energy  :   -86.3280356 Eh     change       -0.1923965E-01 Eh
 * total energy  :   -86.3354682 Eh     change       -0.7432564E-02 Eh
 * total energy  :   -86.3378776 Eh     change       -0.2409433E-02 Eh
 * total energy  :   -86.3397458 Eh     change       -0.1868171E-02 Eh
 * total energy  :   -86.3408859 Eh     change       -0.1140144E-02 Eh
 * total energy  :   -86.3417707 Eh     change       -0.8847875E-03 Eh
 * total energy  :   -86.3423606 Eh     change       -0.5899170E-03 Eh
 * total energy  :   -86.3426925 Eh     change       -0.3318766E-03 Eh
 * total energy  :   -86.3428841 Eh     change       -0.1915766E-03 Eh
 * total energy  :   -86.3476767 Eh     change       -0.8462460E-05 Eh
 * total energy  :   -86.3476901 Eh     change       -0.1333552E-04 Eh
 * total energy  :   -86.3476997 Eh     change       -0.9609118E-05 Eh
 * total energy  :   -86.3477088 Eh     change       -0.9151066E-05 Eh
 * total energy  :   -86.3476812 Eh     change        0.2761796E-04 Eh
 * total energy  :   -86.3477212 Eh     change       -0.4000932E-04 Eh
 * total energy  :   -86.3477275 Eh     change       -0.6290662E-05 Eh
 * total energy  :   -86.3477329 Eh     change       -0.5408210E-05 Eh
 * total energy  :   -86.3477352 Eh     change       -0.2264239E-05 Eh
   *** GEOMETRY OPTIMIZATION CONVERGED AFTER 56 ITERATIONS ***

 final structure:
================
46
 xtb: 6.5.1 (579679a)
C           -5.37084466520794       -2.29152079348671        0.80355456300345
O           -4.45853680323482       -1.19177830483195        0.64690447917708
C           -3.48109471651655       -1.34725458833453       -0.21921075246171
O           -3.29436139240900       -2.34210091972182       -0.87308535428901
C           -2.63954442018652       -0.09359240741197       -0.32359857795443
C           -3.21963685452377        1.13167264999920       -0.40364539162984
O           -4.53399659359071        1.32546838346722       -0.37230767299057
C           -2.39252808402541        2.32590789133140       -0.45932522246922
O           -2.86368418930832        3.44418341306921       -0.41646041077282
N           -1.01533976802725        2.09988890816641       -0.51323077625683
C           -0.24536346939097        3.31160167309714       -0.18631147067588
C           -0.45767338534489        0.86919064691830       -0.63131846371583
C            0.92682460303655        0.66006454649187       -1.27978305439309
C            0.74116949120943       -0.21748750620132       -2.53160472120817
C            1.67256813754185        1.91292732702253       -1.76348006694349
N            1.80477955570593       -0.00276898099729       -0.31877983202344
C            1.65020009815510        0.26998884101892        0.99692648289879
O            0.66683994568302        0.86557214641890        1.42239108704689
C            2.71653445783049       -0.26411910549034        1.85092479982499
N            2.83726565814843       -0.18147626391926        3.14038907296969
N            3.98090660867226       -0.83298811960862        3.46827161101391
C            4.49472688084331       -1.27708472392963        2.36000099173620
C            5.73652470877129       -2.05810454178606        2.18353973875484
O            3.74150911900726       -0.94877864012664        1.29955143103117
N           -1.25745863298997       -0.19780478346161       -0.46937227013994
C           -0.72433767712448       -1.55262200278192       -0.23926498540570
H           -6.07271725792541       -1.99748509418657        1.58074741341786
H           -5.89148344329516       -2.47388783671242       -0.13832180941226
H           -4.82061500037426       -3.18698778752033        1.09775656273143
H           -4.73027772318979        2.28003937416142       -0.41178832179221
H           -0.87392435198011        3.92112597388396        0.46329823488925
H            0.65224672554654        3.02727808972534        0.35043152178128
H           -0.01764018594088        3.87960449071688       -1.08427186001756
H            0.31182965421465       -1.18931960293422       -2.31858584429452
H            0.09856134165874        0.30448105464878       -3.23917668413267
H            1.71449520161499       -0.37423091055011       -2.99224743806763
H            2.52392665128001        1.57564287386238       -2.35347315293875
H            2.06703208195617        2.49954801013169       -0.93950771477886
H            1.03988336516574        2.52390235110674       -2.40232290799683
H            2.66694293242154       -0.39293723014268       -0.66294060808564
H            5.50428909168179       -3.02025635627575        1.72654291993732
H            6.21346072757245       -2.21497320637353        3.14844905984194
H            6.41647377830454       -1.52731919827510        1.51724494421674
H            0.35385707342145       -1.52902617195186       -0.16354383672194
H           -1.02885246065374       -2.21089732687139       -1.04972734924087
H           -1.14293281419537       -1.91334924135706        0.69976363654783

          :  Hamiltonian                  GFN1-xTB          :
         :: total energy             -86.347735193973 Eh    ::
         :: gradient norm              0.000354511540 Eh/a0 ::
         :: HOMO-LUMO gap              2.969782252393 eV    ::
         :: SCC energy               -87.180922666547 Eh    ::
         :: -> Gsolv                  -0.109667706794 Eh    ::
         :: repulsion energy           0.864325801791 Eh    ::

    * Orbital Energies and Occupations

         #    Occupation            Energy/Eh            Energy/eV
      -------------------------------------------------------------
         1        2.0000           -0.8821986             -24.0058
       ...           ...                  ...                  ...
        58        2.0000           -0.5336904             -14.5225
        59        2.0000           -0.5212068             -14.1828
        60        2.0000           -0.5198830             -14.1467
        61        2.0000           -0.5197129             -14.1421
        62        2.0000           -0.5179690             -14.0947
        63        2.0000           -0.5161857             -14.0461
        64        2.0000           -0.4989606             -13.5774
        65        2.0000           -0.4939114             -13.4400
        66        2.0000           -0.4905540             -13.3487
        67        2.0000           -0.4831700             -13.1477
        68        2.0000           -0.4702095             -12.7951
        69        2.0000           -0.4667799             -12.7017
        70        2.0000           -0.4649529             -12.6520 (HOMO)
        71                         -0.3558154              -9.6822 (LUMO)
        72                         -0.3533532              -9.6152
        73                         -0.3357149              -9.1353
        74                         -0.2851504              -7.7593
        75                         -0.2688276              -7.3152
        76                         -0.2200652              -5.9883
        77                         -0.2161882              -5.8828
        78                         -0.1582166              -4.3053
        79                         -0.1573076              -4.2806
        80                         -0.1507050              -4.1009
        81                         -0.1493532              -4.0641
       ...                                ...                  ...
       144                          0.7071491              19.2425
      -------------------------------------------------------------
                  HL-Gap            0.1091375 Eh            2.9698 eV

Wiberg/Mayer (AO) data.
largest (>0.10) Wiberg bond orders for each atom

     #   Z sym  total        # sym  WBO       # sym  WBO       # sym  WBO
 ---------------------------------------------------------------------------
     1   6 C    3.849 --    27 H    0.985    29 H    0.979    28 H    0.978
                             2 O    0.875
     2   8 O    2.235 --     3 C    1.164     1 C    0.875     4 O    0.146
     3   6 C    3.862 --     4 O    1.670     2 O    1.164     5 C    0.956
     4   8 O    1.959 --     3 C    1.670     2 O    0.146
     5   6 C    3.926 --     6 C    1.535    25 N    1.094     3 C    0.956
     6   6 C    3.929 --     5 C    1.535     7 O    1.128     8 C    1.053
     7   8 O    2.096 --     6 C    1.128    30 H    0.794
     8   6 C    3.908 --     9 O    1.625    10 N    1.085     6 C    1.053
     9   8 O    1.955 --     8 C    1.625    10 N    0.122
    10   7 N    3.516 --    12 C    1.257     8 C    1.085    11 C    0.904
                             9 O    0.122
    11   6 C    3.892 --    32 H    0.975    33 H    0.973    31 H    0.968
                            10 N    0.904
    12   6 C    3.897 --    25 N    1.344    10 N    1.257    13 C    0.967
    13   6 C    3.931 --    15 C    0.990    14 C    0.977    12 C    0.967
                            16 N    0.935
    14   6 C    3.981 --    35 H    0.982    13 C    0.977    34 H    0.976
                            36 H    0.976
    15   6 C    3.982 --    13 C    0.990    39 H    0.980    38 H    0.977
                            37 H    0.975
    16   7 N    3.345 --    17 C    1.239    13 C    0.935    40 H    0.879
                            18 O    0.158
    17   6 C    3.908 --    18 O    1.549    16 N    1.239    19 C    1.019
    18   8 O    1.951 --    17 C    1.549    16 N    0.158
    19   6 C    3.880 --    20 N    1.602    24 O    1.047    17 C    1.019
    20   7 N    3.007 --    19 C    1.602    21 N    1.218
    21   7 N    2.983 --    22 C    1.590    20 N    1.218
    22   6 C    3.862 --    21 N    1.590    24 O    1.078    23 C    1.035
    23   6 C    3.983 --    22 C    1.035    42 H    0.981    43 H    0.960
                            41 H    0.959
    24   8 O    2.321 --    22 C    1.078    19 C    1.047
    25   7 N    3.557 --    12 C    1.344     5 C    1.094    26 C    0.906
    26   6 C    3.893 --    44 H    0.972    46 H    0.970    45 H    0.967
                            25 N    0.906
    27   1 H    1.007 --     1 C    0.985
    28   1 H    1.002 --     1 C    0.978
    29   1 H    1.003 --     1 C    0.979
    30   1 H    0.828 --     7 O    0.794
    31   1 H    0.999 --    11 C    0.968
    32   1 H    1.009 --    11 C    0.975
    33   1 H    1.000 --    11 C    0.973
    34   1 H    0.997 --    14 C    0.976
    35   1 H    0.996 --    14 C    0.982
    36   1 H    0.993 --    14 C    0.976
    37   1 H    0.996 --    15 C    0.975
    38   1 H    1.000 --    15 C    0.977
    39   1 H    0.996 --    15 C    0.980
    40   1 H    0.918 --    16 N    0.879
    41   1 H    0.995 --    23 C    0.959
    42   1 H    0.997 --    23 C    0.981
    43   1 H    0.995 --    23 C    0.960
    44   1 H    1.001 --    26 C    0.972
    45   1 H    1.007 --    26 C    0.967
    46   1 H    0.994 --    26 C    0.970
 ---------------------------------------------------------------------------

           -------------------------------------------------
          | TOTAL ENERGY              -86.347735193973 Eh   |
          | GRADIENT NORM               0.000354511540 Eh/α |
          | HOMO-LUMO GAP               2.969782252393 eV   |
           -------------------------------------------------

 * finished run on 2023/06/20 at 15:40:15.703
