   * xtb version 6.5.1 (579679a) compiled by 'ehlert@majestix' on 2022-07-11
          program call               : /lustre/hpc/kemi/ree/PhD/git/ReactivityQM/dep/xtb-6.5.1/bin/xtb --gfn 1 /lustre/hpc/kemi/ree/PhD/git/ReactivityQM/calculations/R02oxygendeprot/reac01prodE06/conf03/R02oxygendeprot_reac01prodE06_conf03_gfn1.xyz --opt --vfukui --chrg -2 --uhf 0 --alpb DMSO

   ID    Z sym.   atoms
    1    6 C      1, 3, 5, 6, 8, 11-15, 17, 19, 22, 23
    2    8 O      2, 4, 7, 9, 18, 24
    3    7 N      10, 16, 20, 21, 25
    4    1 H      26-42

      * Solvation model:               ALPB
        Solvent                        DMSO
        Solvent mass                       7.8130E+01 g/mol
          :  Hamiltonian                  GFN1-xTB          :
 * total energy  :   -83.6047914 Eh     change       -0.8020606E-10 Eh
 * total energy  :   -83.6156679 Eh     change       -0.1087653E-01 Eh
 * total energy  :   -83.6193138 Eh     change       -0.3645881E-02 Eh
 * total energy  :   -83.6200027 Eh     change       -0.6888653E-03 Eh
 * total energy  :   -83.6206451 Eh     change       -0.6423638E-03 Eh
 * total energy  :   -83.6211079 Eh     change       -0.4628063E-03 Eh
 * total energy  :   -83.6215735 Eh     change       -0.4656407E-03 Eh
 * total energy  :   -83.6220055 Eh     change       -0.4320241E-03 Eh
 * total energy  :   -83.6223499 Eh     change       -0.3443878E-03 Eh
 * total energy  :   -83.6226144 Eh     change       -0.2644356E-03 Eh
 * total energy  :   -83.6242037 Eh     change       -0.2821648E-04 Eh
 * total energy  :   -83.6242240 Eh     change       -0.2034716E-04 Eh
 * total energy  :   -83.6242411 Eh     change       -0.1705327E-04 Eh
 * total energy  :   -83.6242504 Eh     change       -0.9286281E-05 Eh
 * total energy  :   -83.6242618 Eh     change       -0.1139007E-04 Eh
 * total energy  :   -83.6242665 Eh     change       -0.4742565E-05 Eh
 * total energy  :   -83.6242732 Eh     change       -0.6653505E-05 Eh
 * total energy  :   -83.6242783 Eh     change       -0.5094307E-05 Eh
 * total energy  :   -83.6242824 Eh     change       -0.4153657E-05 Eh
   *** GEOMETRY OPTIMIZATION CONVERGED AFTER 42 ITERATIONS ***

 final structure:
================
42
 xtb: 6.5.1 (579679a)
C           -3.64281772557932        3.57153085338699       -0.02795429641235
O           -3.53840552504159        2.16072679931890       -0.01994586382798
C           -2.30322025168306        1.66176415482179        0.31238692671500
O           -1.38929856097216        2.44878459233425        0.57204093897124
C           -2.19125434672784        0.21139852931187        0.32074709914632
C           -3.29334754536733       -0.64322846237169        0.02832553362639
O           -4.44404830395257       -0.27387273163284       -0.36054643998256
C           -3.04997795945948       -2.09946966699398        0.26882819374787
O           -3.94281089122803       -2.96230779615121        0.29946883284007
N           -1.75717787815472       -2.47967643710926        0.48583526762899
C           -0.61265394890649       -1.58609974675845        0.57882278420941
C            0.20228711030024       -1.99447727917103        1.82450618685552
C            0.28353116608349       -1.73293982619347       -0.73179509814382
C            0.99287061198639       -3.08889307218727       -0.81685117033803
C           -0.59204612249309       -1.53012071011308       -1.97781137653399
N            1.25183615305253       -0.65248920775297       -0.61227334856163
C            2.25710272593154       -0.42413522334583       -1.49950232989998
O            2.52070482315804       -1.16179537721630       -2.46874904792733
C            3.05558718246532        0.75275767557909       -1.19237407007325
N            4.03189681767416        1.27167570218718       -1.91665479043611
N            4.46680778497825        2.38286126212541       -1.24634223950152
C            3.75018167883899        2.48594046613410       -0.17376942960490
C            3.86455320947540        3.52195787070269        0.88105104583664
O            2.83340009913460        1.50126959060816       -0.06490420599202
N           -0.94985716098779       -0.21180592141926        0.71439714032796
H           -3.41510912825192        3.99031422204776        0.95891981992114
H           -2.95611581613783        4.01470622609067       -0.75865049964426
H           -4.66947303792129        3.82006666752764       -0.29855246127430
H           -1.61036109513520       -3.44316183939936        0.73363793304056
H            1.13998998999725       -1.44215827740206        1.84684016064300
H            0.41190161868547       -3.06195211176323        1.83410290162022
H           -0.37283140544382       -1.74327373794144        2.71477780999739
H            1.45256017823035       -3.22186472686941       -1.79629977736240
H            1.77309988483447       -3.16698740778930       -0.06134190085604
H            0.27219005140870       -3.89135513889773       -0.66396003122512
H           -1.32867688476787       -2.33035038877424       -2.04464268589957
H           -1.10931551102544       -0.57116681656570       -1.92924760732390
H            0.02605431899175       -1.55189123457489       -2.87485506101411
H            0.90224791200806        0.12567691233803       -0.04521182848925
H            4.09265483689925        3.05863257584618        1.84093028646148
H            4.65950926446750        4.21564835351458        0.62009028361010
H            2.92783168061833        4.06976668453904        0.98400641514981

          :  Hamiltonian                  GFN1-xTB          :
         :: total energy             -83.624282422114 Eh    ::
         :: gradient norm              0.000780788851 Eh/a0 ::
         :: HOMO-LUMO gap              0.152866972117 eV    ::
         :: SCC energy               -84.346345266043 Eh    ::
         :: -> Gsolv                  -0.270147991497 Eh    ::
         :: repulsion energy           0.749891054714 Eh    ::

    * Orbital Energies and Occupations

         #    Occupation            Energy/Eh            Energy/eV
      -------------------------------------------------------------
         1        2.0000           -0.8177825             -22.2530
       ...           ...                  ...                  ...
        56        2.0000           -0.4415959             -12.0164
        57        2.0000           -0.4393182             -11.9545
        58        2.0000           -0.4193229             -11.4104
        59        2.0000           -0.4154178             -11.3041
        60        2.0000           -0.4126931             -11.2300
        61        2.0000           -0.4066780             -11.0663
        62        2.0000           -0.4030553             -10.9677
        63        2.0000           -0.3953492             -10.7580
        64        2.0000           -0.3883160             -10.5666
        65        2.0000           -0.3753537             -10.2139
        66        2.0000           -0.3654897              -9.9455
        67        2.0000           -0.3339247              -9.0866
        68        1.9011           -0.2750144              -7.4835 (HOMO)
        69        0.0989           -0.2693966              -7.3307 (LUMO)
        70                         -0.2339363              -6.3657
        71                         -0.2210490              -6.0150
        72                         -0.1622827              -4.4159
        73                         -0.1507456              -4.1020
        74                         -0.1277716              -3.4768
        75                         -0.1105498              -3.0082
        76                         -0.1046350              -2.8473
        77                         -0.0922142              -2.5093
        78                         -0.0861643              -2.3447
        79                         -0.0782494              -2.1293
       ...                                ...                  ...
       134                          0.7398354              20.1319
      -------------------------------------------------------------
                  HL-Gap            0.0056178 Eh            0.1529 eV

Wiberg/Mayer (AO) data.
largest (>0.10) Wiberg bond orders for each atom

     #   Z sym  total        # sym  WBO       # sym  WBO       # sym  WBO
 ---------------------------------------------------------------------------
     1   6 C    3.913 --    28 H    0.987    26 H    0.980    27 H    0.980
                             2 O    0.940
     2   8 O    2.133 --     3 C    1.011     1 C    0.940
     3   6 C    3.820 --     4 O    1.545     5 C    1.122     2 O    1.011
     4   8 O    1.824 --     3 C    1.545
     5   6 C    3.920 --     6 C    1.244    25 N    1.243     3 C    1.122
                             7 O    0.102
     6   6 C    3.882 --     7 O    1.415     5 C    1.244     8 C    1.000
     7   8 O    1.667 --     6 C    1.415     5 C    0.102
     8   6 C    3.866 --     9 O    1.517    10 N    1.187     6 C    1.000
     9   8 O    1.785 --     8 C    1.517    10 N    0.138
    10   7 N    3.284 --     8 C    1.187    11 C    0.926    29 H    0.914
                             9 O    0.138
    11   6 C    3.939 --    25 N    1.044    12 C    0.980    10 N    0.926
                            13 C    0.906
    12   6 C    3.990 --    31 H    0.986    32 H    0.985    30 H    0.985
                            11 C    0.980
    13   6 C    3.930 --    14 C    0.999    15 C    0.991    16 N    0.946
                            11 C    0.906
    14   6 C    3.995 --    13 C    0.999    35 H    0.986    34 H    0.985
                            33 H    0.980
    15   6 C    3.994 --    13 C    0.991    36 H    0.986    38 H    0.984
                            37 H    0.982
    16   7 N    3.306 --    17 C    1.205    13 C    0.946    39 H    0.876
                            18 O    0.145
    17   6 C    3.869 --    18 O    1.461    16 N    1.205    19 C    1.075
    18   8 O    1.761 --    17 C    1.461    16 N    0.145
    19   6 C    3.781 --    20 N    1.486    17 C    1.075    24 O    1.000
    20   7 N    2.820 --    19 C    1.486    21 N    1.186
    21   7 N    2.978 --    22 C    1.626    20 N    1.186
    22   6 C    3.837 --    21 N    1.626    24 O    1.058    23 C    1.026
    23   6 C    3.993 --    22 C    1.026    41 H    0.985    40 H    0.969
                            42 H    0.969
    24   8 O    2.249 --    22 C    1.058    19 C    1.000
    25   7 N    2.761 --     5 C    1.243    11 C    1.044
    26   1 H    1.018 --     1 C    0.980
    27   1 H    1.018 --     1 C    0.980
    28   1 H    1.018 --     1 C    0.987
    29   1 H    0.963 --    10 N    0.914
    30   1 H    1.015 --    12 C    0.985
    31   1 H    1.006 --    12 C    0.986
    32   1 H    1.018 --    12 C    0.985
    33   1 H    1.020 --    14 C    0.980
    34   1 H    1.009 --    14 C    0.985
    35   1 H    1.006 --    14 C    0.986
    36   1 H    1.011 --    15 C    0.986
    37   1 H    1.015 --    15 C    0.982
    38   1 H    1.015 --    15 C    0.984
    39   1 H    0.986 --    16 N    0.876
    40   1 H    1.000 --    23 C    0.969
    41   1 H    1.003 --    23 C    0.985
    42   1 H    0.999 --    23 C    0.969
 ---------------------------------------------------------------------------

           -------------------------------------------------
          | TOTAL ENERGY              -83.624282422114 Eh   |
          | GRADIENT NORM               0.000780788851 Eh/α |
          | HOMO-LUMO GAP               0.152866972117 eV   |
           -------------------------------------------------

 * finished run on 2023/06/21 at 17:07:56.404
