                         Program Version 5.0.1 -  RELEASE  -
|  1> # ORCA input file
|  2> ! SP r2SCAN-3c CPCM
|  3>
|  4> %maxcore 1875.0
|  5> %pal nprocs 4 end
|  6> %cpcm smd true SMDsolvent "DMSO" end
|  7>
|  8> *xyz 1 1
|  9> C      -2.355930    4.291130   -1.282822
| 10> O      -2.612546    2.934800   -0.897147
| 11> C      -1.557317    2.180445   -0.634484
| 12> O      -0.412042    2.571955   -0.691111
| 13> C      -1.906687    0.778843   -0.259958
| 14> N      -0.809176    0.001351   -0.009249
| 15> C      -0.894751   -1.245742    0.331404
| 16> C       0.465648   -1.883274    0.637775
| 17> C       0.683088   -3.338442    0.239866
| 18> C       0.744537   -1.657805    2.129427
| 19> N       1.416097   -1.000524   -0.152871
| 20> C       1.511200   -1.321559   -1.601546
| 21> C       2.814232   -0.885494    0.378462
| 22> O       3.407295   -1.847746    0.754728
| 23> C       3.265980    0.480954    0.310172
| 24> N       4.396706    1.004062    0.711156
| 25> N       4.330924    2.316765    0.462965
| 26> C       3.161761    2.551529   -0.085047
| 27> C       2.612996    3.835870   -0.550919
| 28> O       2.452017    1.430779   -0.202546
| 29> N      -2.097221   -1.861572    0.509307
| 30> C      -2.251546   -3.244442    0.967550
| 31> C      -3.283597   -1.177413    0.254677
| 32> O      -4.381748   -1.698535    0.373047
| 33> C      -3.147060    0.219413   -0.151338
| 34> O      -4.290566    0.860426   -0.381061
| 35> H      -1.859283    4.821939   -0.467922
| 36> H      -1.718846    4.309822   -2.169336
| 37> H      -3.323233    4.741485   -1.497501
| 38> H       0.219707   -3.566231   -0.717340
| 39> H       0.276921   -3.999834    1.000912
| 40> H       1.752713   -3.532940    0.174157
| 41> H       0.818773   -0.591691    2.339231
| 42> H       1.664981   -2.154856    2.428619
| 43> H      -0.077541   -2.070495    2.711083
| 44> H       0.931231   -0.065556   -0.114215
| 45> H       2.016606   -0.487900   -2.083319
| 46> H       2.074043   -2.239600   -1.738641
| 47> H       0.499187   -1.419358   -1.983997
| 48> H       2.686563    3.888510   -1.638818
| 49> H       3.167115    4.663873   -0.114296
| 50> H       1.556639    3.895250   -0.288210
| 51> H      -1.976431   -3.929878    0.168926
| 52> H      -3.299949   -3.392303    1.224847
| 53> H      -1.634856   -3.411550    1.845869
| 54> H      -5.036633    0.245534   -0.240488
| 55> **                         ****END OF INPUT****

CARTESIAN COORDINATES (ANGSTROEM)
---------------------------------
  C     -2.355930    4.291130   -1.282822
  O     -2.612546    2.934800   -0.897147
  C     -1.557317    2.180445   -0.634484
  O     -0.412042    2.571955   -0.691111
  C     -1.906687    0.778843   -0.259958
  N     -0.809176    0.001351   -0.009249
  C     -0.894751   -1.245742    0.331404
  C      0.465648   -1.883274    0.637775
  C      0.683088   -3.338442    0.239866
  C      0.744537   -1.657805    2.129427
  N      1.416097   -1.000524   -0.152871
  C      1.511200   -1.321559   -1.601546
  C      2.814232   -0.885494    0.378462
  O      3.407295   -1.847746    0.754728
  C      3.265980    0.480954    0.310172
  N      4.396706    1.004062    0.711156
  N      4.330924    2.316765    0.462965
  C      3.161761    2.551529   -0.085047
  C      2.612996    3.835870   -0.550919
  O      2.452017    1.430779   -0.202546
  N     -2.097221   -1.861572    0.509307
  C     -2.251546   -3.244442    0.967550
  C     -3.283597   -1.177413    0.254677
  O     -4.381748   -1.698535    0.373047
  C     -3.147060    0.219413   -0.151338
  O     -4.290566    0.860426   -0.381061
  H     -1.859283    4.821939   -0.467922
  H     -1.718846    4.309822   -2.169336
  H     -3.323233    4.741485   -1.497501
  H      0.219707   -3.566231   -0.717340
  H      0.276921   -3.999834    1.000912
  H      1.752713   -3.532940    0.174157
  H      0.818773   -0.591691    2.339231
  H      1.664981   -2.154856    2.428619
  H     -0.077541   -2.070495    2.711083
  H      0.931231   -0.065556   -0.114215
  H      2.016606   -0.487900   -2.083319
  H      2.074043   -2.239600   -1.738641
  H      0.499187   -1.419358   -1.983997
  H      2.686563    3.888510   -1.638818
  H      3.167115    4.663873   -0.114296
  H      1.556639    3.895250   -0.288210
  H     -1.976431   -3.929878    0.168926
  H     -3.299949   -3.392303    1.224847
  H     -1.634856   -3.411550    1.845869
  H     -5.036633    0.245534   -0.240488

 Total Charge           Charge          ....    1
 Multiplicity           Mult            ....    1
 Number of Electrons    NEL             ....  192
 Basis Dimension        Dim             ....  649

ORBITAL ENERGIES
----------------

  NO   OCC          E(Eh)            E(eV)
   0   2.0000     -19.090613      -519.4820
   1   2.0000     -19.011848      -517.3387
   2   2.0000     -19.010842      -517.3113
   3   2.0000     -19.009419      -517.2726
   4   2.0000     -18.952465      -515.7228
   5   2.0000     -18.947397      -515.5849
   6   2.0000     -14.290302      -388.8589
   7   2.0000     -14.259907      -388.0318
   8   2.0000     -14.237195      -387.4138
   9   2.0000     -14.220506      -386.9596
  10   2.0000     -14.191453      -386.1691
  11   2.0000     -10.216106      -277.9944
  12   2.0000     -10.172780      -276.8154
  13   2.0000     -10.172593      -276.8103
  14   2.0000     -10.170610      -276.7564
  15   2.0000     -10.164042      -276.5776
  16   2.0000     -10.151262      -276.2299
  17   2.0000     -10.139436      -275.9081
  18   2.0000     -10.136161      -275.8190
  19   2.0000     -10.106068      -275.0001
  20   2.0000     -10.090642      -274.5803
  21   2.0000     -10.081800      -274.3397
  22   2.0000     -10.071434      -274.0577
  23   2.0000     -10.051471      -273.5144
  24   2.0000     -10.043529      -273.2983
  25   2.0000     -10.038731      -273.1678
  26   2.0000      -1.183440       -32.2030
  27   2.0000      -1.095353       -29.8061
  28   2.0000      -1.088226       -29.6121
  29   2.0000      -1.072691       -29.1894
  30   2.0000      -1.036785       -28.2124
  31   2.0000      -1.009624       -27.4733
  32   2.0000      -1.001987       -27.2655
  33   2.0000      -0.994212       -27.0539
  34   2.0000      -0.976720       -26.5779
  35   2.0000      -0.908360       -24.7177
  36   2.0000      -0.856429       -23.3046
  37   2.0000      -0.813872       -22.1466
  38   2.0000      -0.769628       -20.9426
  39   2.0000      -0.739011       -20.1095
  40   2.0000      -0.727534       -19.7972
  41   2.0000      -0.722090       -19.6491
  42   2.0000      -0.702537       -19.1170
  43   2.0000      -0.694575       -18.9003
  44   2.0000      -0.672746       -18.3064
  45   2.0000      -0.657814       -17.9000
  46   2.0000      -0.645327       -17.5602
  47   2.0000      -0.628695       -17.1077
  48   2.0000      -0.622036       -16.9265
  49   2.0000      -0.585650       -15.9364
  50   2.0000      -0.572636       -15.5822
  51   2.0000      -0.571042       -15.5388
  52   2.0000      -0.549318       -14.9477
  53   2.0000      -0.526434       -14.3250
  54   2.0000      -0.522605       -14.2208
  55   2.0000      -0.510639       -13.8952
  56   2.0000      -0.492431       -13.3997
  57   2.0000      -0.491731       -13.3807
  58   2.0000      -0.485881       -13.2215
  59   2.0000      -0.477465       -12.9925
  60   2.0000      -0.471389       -12.8271
  61   2.0000      -0.467350       -12.7172
  62   2.0000      -0.458590       -12.4789
  63   2.0000      -0.452112       -12.3026
  64   2.0000      -0.440045       -11.9742
  65   2.0000      -0.434659       -11.8277
  66   2.0000      -0.423966       -11.5367
  67   2.0000      -0.420820       -11.4511
  68   2.0000      -0.415945       -11.3184
  69   2.0000      -0.408303       -11.1105
  70   2.0000      -0.403728       -10.9860
  71   2.0000      -0.398830       -10.8527
  72   2.0000      -0.396461       -10.7883
  73   2.0000      -0.392347       -10.6763
  74   2.0000      -0.387449       -10.5430
  75   2.0000      -0.385149       -10.4804
  76   2.0000      -0.380100       -10.3430
  77   2.0000      -0.372891       -10.1469
  78   2.0000      -0.371465       -10.1081
  79   2.0000      -0.367246        -9.9933
  80   2.0000      -0.366272        -9.9668
  81   2.0000      -0.359071        -9.7708
  82   2.0000      -0.353555        -9.6207
  83   2.0000      -0.352521        -9.5926
  84   2.0000      -0.339850        -9.2478
  85   2.0000      -0.338009        -9.1977
  86   2.0000      -0.324919        -8.8415
  87   2.0000      -0.303525        -8.2593
  88   2.0000      -0.287707        -7.8289
  89   2.0000      -0.286185        -7.7875
  90   2.0000      -0.283971        -7.7272
  91   2.0000      -0.282996        -7.7007
  92   2.0000      -0.280716        -7.6387
  93   2.0000      -0.274276        -7.4634
  94   2.0000      -0.255985        -6.9657
  95   2.0000      -0.226333        -6.1588
  96   0.0000      -0.148697        -4.0463
  97   0.0000      -0.103231        -2.8091
  98   0.0000      -0.063092        -1.7168
  99   0.0000      -0.045187        -1.2296
 100   0.0000       0.000727         0.0198

MULLIKEN ATOMIC CHARGES
-----------------------
   0 C :   -0.309506
   1 O :   -0.158413
   2 C :    0.161225
   3 O :   -0.415212
   4 C :    0.125939
   5 N :   -0.161402
   6 C :    0.073106
   7 C :    0.076955
   8 C :   -0.596196
   9 C :   -0.567526
  10 N :   -0.250024
  11 C :   -0.305792
  12 C :   -0.033969
  13 O :   -0.290158
  14 C :    0.378418
  15 N :   -0.107367
  16 N :   -0.228461
  17 C :    0.416823
  18 C :   -0.647920
  19 O :   -0.036109
  20 N :    0.333806
  21 C :   -0.476680
  22 C :    0.233237
  23 O :   -0.486506
  24 C :    0.062126
  25 O :   -0.345144
  26 H :    0.179049
  27 H :    0.177497
  28 H :    0.180260
  29 H :    0.217568
  30 H :    0.217942
  31 H :    0.211084
  32 H :    0.218609
  33 H :    0.211792
  34 H :    0.209870
  35 H :    0.441890
  36 H :    0.205929
  37 H :    0.224320
  38 H :    0.220060
  39 H :    0.221238
  40 H :    0.207144
  41 H :    0.212802
  42 H :    0.216633
  43 H :    0.206692
  44 H :    0.207315
  45 H :    0.367057
Sum of atomic charges:    1.0000000

LOEWDIN ATOMIC CHARGES
----------------------
   0 C :   -0.032991
   1 O :   -0.564052
   2 C :    0.406642
   3 O :   -0.419463
   4 C :    0.223250
   5 N :   -0.583338
   6 C :    0.382291
   7 C :    0.125047
   8 C :   -0.344711
   9 C :   -0.322572
  10 N :   -0.745883
  11 C :   -0.058818
  12 C :    0.434552
  13 O :   -0.315717
  14 C :    0.397522
  15 N :   -0.282629
  16 N :   -0.317082
  17 C :    0.414591
  18 C :   -0.312023
  19 O :   -0.386563
  20 N :   -0.611999
  21 C :   -0.074214
  22 C :    0.391398
  23 O :   -0.476819
  24 C :    0.292102
  25 O :   -0.422541
  26 H :    0.184137
  27 H :    0.184566
  28 H :    0.187973
  29 H :    0.182219
  30 H :    0.186699
  31 H :    0.191600
  32 H :    0.187195
  33 H :    0.188263
  34 H :    0.187322
  35 H :    0.348527
  36 H :    0.209994
  37 H :    0.209355
  38 H :    0.216844
  39 H :    0.204020
  40 H :    0.194349
  41 H :    0.204657
  42 H :    0.202213
  43 H :    0.218379
  44 H :    0.199954
  45 H :    0.315753

  Mayer bond orders larger than 0.100000
B(  0-C ,  1-O ) :   0.8266 B(  0-C , 26-H ) :   0.9533 B(  0-C , 27-H ) :   0.9541
B(  0-C , 28-H ) :   0.9625 B(  1-O ,  2-C ) :   1.1963 B(  2-C ,  3-O ) :   1.8095
B(  2-C ,  4-C ) :   1.0240 B(  4-C ,  5-N ) :   1.0628 B(  4-C , 24-C ) :   1.3186
B(  5-N ,  6-C ) :   1.5787 B(  5-N , 20-N ) :   0.1144 B(  5-N , 35-H ) :   0.1960
B(  6-C ,  7-C ) :   0.8458 B(  6-C , 20-N ) :   1.3356 B(  7-C ,  8-C ) :   0.8810
B(  7-C ,  9-C ) :   0.9458 B(  7-C , 10-N ) :   0.9164 B(  8-C , 29-H ) :   0.9471
B(  8-C , 30-H ) :   0.9321 B(  8-C , 31-H ) :   0.9538 B(  9-C , 32-H ) :   0.9491
B(  9-C , 33-H ) :   0.9487 B(  9-C , 34-H ) :   0.9254 B( 10-N , 11-C ) :   0.9129
B( 10-N , 12-C ) :   0.6811 B( 10-N , 14-C ) :   0.1123 B( 10-N , 35-H ) :   0.6343
B( 11-C , 36-H ) :   0.9191 B( 11-C , 37-H ) :   0.9213 B( 11-C , 38-H ) :   0.9191
B( 12-C , 13-O ) :   2.1104 B( 12-C , 14-C ) :   0.8741 B( 13-O , 14-C ) :  -0.1029
B( 14-C , 15-N ) :   1.6195 B( 14-C , 17-C ) :   0.1263 B( 14-C , 19-O ) :   1.0985
B( 15-N , 16-N ) :   1.2913 B( 16-N , 17-C ) :   1.5007 B( 17-C , 18-C ) :   0.8428
B( 17-C , 19-O ) :   1.1031 B( 18-C , 39-H ) :   0.9227 B( 18-C , 40-H ) :   0.9753
B( 18-C , 41-H ) :   0.9468 B( 20-N , 21-C ) :   0.8448 B( 20-N , 22-C ) :   1.0346
B( 21-C , 42-H ) :   0.9238 B( 21-C , 43-H ) :   0.9373 B( 21-C , 44-H ) :   0.9304
B( 22-C , 23-O ) :   1.8380 B( 22-C , 24-C ) :   0.9759 B( 24-C , 25-O ) :   1.1017
B( 25-O , 45-H ) :   0.8135

Dispersion correction           -0.022690461
FINAL SINGLE POINT ENERGY     -1308.351602696182

DIPOLE MOMENT
-------------
                                X             Y             Z
Electronic contribution:      0.85027       5.67620       0.61152
Nuclear contribution   :     -1.49121      -7.32175      -1.69567
                        -----------------------------------------
Total Dipole Moment    :     -0.64094      -1.64555      -1.08415
                        -----------------------------------------
Magnitude (a.u.)       :      2.07221
Magnitude (Debye)      :      5.26713

Rotational constants in cm-1:     0.008981     0.005949     0.003803
Rotational constants in MHz :   269.244144   178.357171   114.001228

                             ****ORCA TERMINATED NORMALLY****
TOTAL RUN TIME: 0 days 0 hours 1 minutes 48 seconds 130 msec
