   * xtb version 6.5.1 (579679a) compiled by 'ehlert@majestix' on 2022-07-11
          program call               : /lustre/hpc/kemi/ree/PhD/git/ReactivityQM/dep/xtb-6.5.1/bin/xtb --gfn 1 /lustre/hpc/kemi/ree/PhD/git/ReactivityQM/calculations/R03/reac02prodN17/conf07/R03_reac02prodN17_conf07_gfn1.xyz --opt --vfukui --chrg 1 --uhf 0 --alpb DMSO

   ID    Z sym.   atoms
    1    6 C      1, 3, 5, 7-10, 12, 13, 15, 18, 19, 22, 23, 25
    2    8 O      2, 4, 14, 20, 24, 26
    3    7 N      6, 11, 16, 17, 21
    4    1 H      27-46

      * Solvation model:               ALPB
        Solvent                        DMSO
        Solvent mass                       7.8130E+01 g/mol
          :  Hamiltonian                  GFN1-xTB          :
 * total energy  :   -86.3112995 Eh     change       -0.1836042E-10 Eh
 * total energy  :   -86.3238806 Eh     change       -0.1258113E-01 Eh
 * total energy  :   -86.3282221 Eh     change       -0.4341473E-02 Eh
 * total energy  :   -86.3292202 Eh     change       -0.9981091E-03 Eh
 * total energy  :   -86.3300433 Eh     change       -0.8230742E-03 Eh
 * total energy  :   -86.3306228 Eh     change       -0.5795516E-03 Eh
 * total energy  :   -86.3311877 Eh     change       -0.5648966E-03 Eh
 * total energy  :   -86.3317440 Eh     change       -0.5563063E-03 Eh
 * total energy  :   -86.3321838 Eh     change       -0.4397723E-03 Eh
 * total energy  :   -86.3324613 Eh     change       -0.2774752E-03 Eh
 * total energy  :   -86.3365441 Eh     change       -0.9993175E-05 Eh
 * total energy  :   -86.3365550 Eh     change       -0.1091746E-04 Eh
 * total energy  :   -86.3365631 Eh     change       -0.8080183E-05 Eh
 * total energy  :   -86.3365735 Eh     change       -0.1041721E-04 Eh
 * total energy  :   -86.3365846 Eh     change       -0.1104767E-04 Eh
 * total energy  :   -86.3365929 Eh     change       -0.8334530E-05 Eh
 * total energy  :   -86.3366012 Eh     change       -0.8300165E-05 Eh
 * total energy  :   -86.3366068 Eh     change       -0.5574420E-05 Eh
 * total energy  :   -86.3366096 Eh     change       -0.2865846E-05 Eh
   *** GEOMETRY OPTIMIZATION CONVERGED AFTER 56 ITERATIONS ***

 final structure:
================
46
 xtb: 6.5.1 (579679a)
C           -2.35593012753363        4.29113028801138       -1.28282247986287
O           -2.61254603372118        2.93479969262240       -0.89714709686729
C           -1.55731731249750        2.18044494876269       -0.63448382100311
O           -0.41204198550710        2.57195486025400       -0.69111121970543
C           -1.90668680740711        0.77884293144366       -0.25995795610522
N           -0.80917582915881        0.00135085104793       -0.00924871555763
C           -0.89475101915847       -1.24574232001357        0.33140350151419
C            0.46564832039705       -1.88327382354374        0.63777469177777
C            0.68308849235700       -3.33844164053085        0.23986639859932
C            0.74453661656602       -1.65780525343939        2.12942715356467
N            1.41609699444569       -1.00052356607472       -0.15287072630623
C            1.51120018464681       -1.32155928181865       -1.60154599967201
C            2.81423184440107       -0.88549350687460        0.37846208583636
O            3.40729505865388       -1.84774562077070        0.75472804602173
C            3.26597983737298        0.48095409001129        0.31017219036500
N            4.39670563941182        1.00406231519201        0.71115636786975
N            4.33092419986814        2.31676469873213        0.46296505881468
C            3.16176077431514        2.55152938548546       -0.08504676437002
C            2.61299640829698        3.83587029650621       -0.55091916534753
O            2.45201670077920        1.43077856859203       -0.20254625289283
N           -2.09722093722093       -1.86157165267570        0.50930712967271
C           -2.25154587860694       -3.24444203351806        0.96755035332812
C           -3.28359744192834       -1.17741317532447        0.25467748107986
O           -4.38174795572025       -1.69853467016241        0.37304719793215
C           -3.14706018379350        0.21941287950362       -0.15133774341620
O           -4.29056604066438        0.86042621907113       -0.38106110517843
H           -1.85928333598531        4.82193873681448       -0.46792221494954
H           -1.71884584878118        4.30982174442086       -2.16933577684741
H           -3.32323297563259        4.74148451695798       -1.49750140592833
H            0.21970694126897       -3.56623109012342       -0.71733963338161
H            0.27692080707674       -3.99983365172217        1.00091232979996
H            1.75271260924781       -3.53294014463415        0.17415721527913
H            0.81877299746157       -0.59169101359770        2.33923053858849
H            1.66498102454574       -2.15485570695785        2.42861867456956
H           -0.07754129605188       -2.07049473978227        2.71108345266608
H            0.93123063291681       -0.06555591121146       -0.11421461611274
H            2.01660622740129       -0.48789991916160       -2.08331904078956
H            2.07404343622595       -2.23959966378098       -1.73864106663699
H            0.49918704023875       -1.41935787127579       -1.98399689311500
H            2.68656256972855        3.88851046757396       -1.63881792079800
H            3.16711545325216        4.66387329745528       -0.11429643185797
H            1.55663890431022        3.89525018338834       -0.28820995013746
H           -1.97643117980092       -3.92987800657479        0.16892587968222
H           -3.29994859090554       -3.39230318295283        1.22484704763666
H           -1.63485573462683       -3.41155001565587        1.84586866256012
H           -5.03663320048793        0.24553449033958       -0.24048846031789

          :  Hamiltonian                  GFN1-xTB          :
         :: total energy             -86.336609633091 Eh    ::
         :: gradient norm              0.000638804468 Eh/a0 ::
         :: HOMO-LUMO gap              1.806388006303 eV    ::
         :: SCC energy               -87.163190586267 Eh    ::
         :: -> Gsolv                  -0.107934588356 Eh    ::
         :: repulsion energy           0.858789450235 Eh    ::

    * Orbital Energies and Occupations

         #    Occupation            Energy/Eh            Energy/eV
      -------------------------------------------------------------
         1        2.0000           -0.9024965             -24.5582
       ...           ...                  ...                  ...
        58        2.0000           -0.5343038             -14.5391
        59        2.0000           -0.5276385             -14.3578
        60        2.0000           -0.5205004             -14.1635
        61        2.0000           -0.5188584             -14.1189
        62        2.0000           -0.5133008             -13.9676
        63        2.0000           -0.5044471             -13.7267
        64        2.0000           -0.4991652             -13.5830
        65        2.0000           -0.4939909             -13.4422
        66        2.0000           -0.4892700             -13.3137
        67        2.0000           -0.4856430             -13.2150
        68        2.0000           -0.4810760             -13.0907
        69        2.0000           -0.4692092             -12.7678
        70        2.0000           -0.4472028             -12.1690 (HOMO)
        71                         -0.3808192             -10.3626 (LUMO)
        72                         -0.3386739              -9.2158
        73                         -0.3094578              -8.4208
        74                         -0.2890477              -7.8654
        75                         -0.2554031              -6.9499
        76                         -0.2548173              -6.9339
        77                         -0.1749084              -4.7595
        78                         -0.1722252              -4.6865
        79                         -0.1639571              -4.4615
        80                         -0.1493334              -4.0636
        81                         -0.1468269              -3.9954
       ...                                ...                  ...
       144                          0.7311962              19.8969
      -------------------------------------------------------------
                  HL-Gap            0.0663835 Eh            1.8064 eV

Wiberg/Mayer (AO) data.
largest (>0.10) Wiberg bond orders for each atom

     #   Z sym  total        # sym  WBO       # sym  WBO       # sym  WBO
 ---------------------------------------------------------------------------
     1   6 C    3.863 --    29 H    0.985    28 H    0.979    27 H    0.979
                             2 O    0.889
     2   8 O    2.218 --     3 C    1.136     1 C    0.889     4 O    0.137
     3   6 C    3.855 --     4 O    1.644     2 O    1.136     5 C    0.995
     4   8 O    1.932 --     3 C    1.644     2 O    0.137
     5   6 C    3.954 --    25 C    1.494     6 N    1.170     3 C    0.995
     6   7 N    3.108 --     7 C    1.553     5 C    1.170    36 H    0.104
     7   6 C    3.939 --     6 N    1.553    21 N    1.199     8 C    0.972
     8   6 C    3.895 --     9 C    1.001    10 C    0.983     7 C    0.972
                            11 N    0.867
     9   6 C    3.982 --     8 C    1.001    30 H    0.981    31 H    0.975
                            32 H    0.974
    10   6 C    3.981 --     8 C    0.983    33 H    0.981    34 H    0.977
                            35 H    0.976
    11   7 N    3.582 --    12 C    0.896     8 C    0.867    13 C    0.866
                            36 H    0.801
    12   6 C    3.890 --    38 H    0.982    37 H    0.980    39 H    0.978
                            11 N    0.896
    13   6 C    3.879 --    14 O    1.779    15 C    1.089    11 N    0.866
    14   8 O    2.056 --    13 C    1.779
    15   6 C    3.883 --    16 N    1.526    13 C    1.089    20 O    1.036
    16   7 N    3.019 --    15 C    1.526    17 N    1.289
    17   7 N    2.989 --    18 C    1.511    16 N    1.289
    18   6 C    3.848 --    17 N    1.511    20 O    1.105    19 C    1.043
    19   6 C    3.976 --    18 C    1.043    41 H    0.977    42 H    0.958
                            40 H    0.944
    20   8 O    2.346 --    18 C    1.105    15 C    1.036
    21   7 N    3.515 --     7 C    1.199    23 C    1.110    22 C    0.920
                            24 O    0.132
    22   6 C    3.909 --    45 H    0.978    43 H    0.975    44 H    0.970
                            21 N    0.920
    23   6 C    3.910 --    24 O    1.585    21 N    1.110    25 C    1.064
    24   8 O    1.929 --    23 C    1.585    21 N    0.132
    25   6 C    3.923 --     5 C    1.494    26 O    1.125    23 C    1.064
    26   8 O    2.100 --    25 C    1.125    46 H    0.798
    27   1 H    1.005 --     1 C    0.979
    28   1 H    1.005 --     1 C    0.979
    29   1 H    1.009 --     1 C    0.985
    30   1 H    0.997 --     9 C    0.981
    31   1 H    0.999 --     9 C    0.975
    32   1 H    1.001 --     9 C    0.974
    33   1 H    0.995 --    10 C    0.981
    34   1 H    0.997 --    10 C    0.977
    35   1 H    0.997 --    10 C    0.976
    36   1 H    0.954 --    11 N    0.801     6 N    0.104
    37   1 H    0.993 --    12 C    0.980
    38   1 H    0.993 --    12 C    0.982
    39   1 H    0.993 --    12 C    0.978
    40   1 H    0.991 --    19 C    0.944
    41   1 H    0.995 --    19 C    0.977
    42   1 H    1.007 --    19 C    0.958
    43   1 H    0.998 --    22 C    0.975
    44   1 H    1.002 --    22 C    0.970
    45   1 H    1.001 --    22 C    0.978
    46   1 H    0.839 --    26 O    0.798
 ---------------------------------------------------------------------------

           -------------------------------------------------
          | TOTAL ENERGY              -86.336609633091 Eh   |
          | GRADIENT NORM               0.000638804468 Eh/α |
          | HOMO-LUMO GAP               1.806388006303 eV   |
           -------------------------------------------------

 * finished run on 2023/06/20 at 15:54:20.944
