                         Program Version 5.0.1 -  RELEASE  -
|  1> # ORCA input file
|  2> ! SP r2SCAN-3c CPCM
|  3>
|  4> %maxcore 1875.0
|  5> %pal nprocs 4 end
|  6> %cpcm smd true SMDsolvent "DMSO" end
|  7>
|  8> *xyz 1 1
|  9> C      -3.347872    3.474233   -2.062592
| 10> O      -3.405824    2.230909   -1.352484
| 11> C      -2.251877    1.692229   -0.997495
| 12> O      -1.172529    2.193223   -1.247093
| 13> C      -2.386249    0.403041   -0.264164
| 14> N      -1.172820   -0.172417    0.037472
| 15> C      -1.121073   -1.296351    0.663967
| 16> C       0.225700   -1.917098    0.970275
| 17> C       0.449143   -2.005405    2.483688
| 18> C       0.353426   -3.284693    0.292100
| 19> N       1.213790   -0.985432    0.393631
| 20> C       2.507487   -1.190818    0.441269
| 21> O       3.134893   -2.134004    0.837495
| 22> C       3.344661    0.067906   -0.169126
| 23> C       4.825248   -0.174219    0.077061
| 24> N       2.942510    0.175796   -1.510345
| 25> N       2.269721    1.236970   -1.673299
| 26> C       2.245548    1.906479   -0.475951
| 27> C       1.574893    3.172019   -0.228164
| 28> O       2.878276    1.249005    0.430690
| 29> N      -2.240443   -1.963198    1.061309
| 30> C      -3.511411   -1.488253    0.823092
| 31> O      -4.513879   -2.081414    1.179521
| 32> C      -3.551079   -0.213645    0.101815
| 33> O      -4.768413    0.265629   -0.149357
| 34> H      -2.843058    4.226287   -1.453266
| 35> H      -4.377186    3.768856   -2.257490
| 36> H      -2.802499    3.342089   -2.999474
| 37> H       1.425145   -2.442494    2.687233
| 38> H       0.402651   -1.010613    2.923225
| 39> H      -0.318784   -2.631572    2.933172
| 40> H       0.214514   -3.182720   -0.783121
| 41> H      -0.402556   -3.959462    0.688059
| 42> H       1.336431   -3.707958    0.490402
| 43> H       0.814496   -0.125893    0.024817
| 44> H       4.993293   -0.281631    1.146227
| 45> H       5.391831    0.671383   -0.305611
| 46> H       5.119122   -1.088343   -0.433922
| 47> H       1.837460    3.571536    0.747937
| 48> H       1.803877    3.878638   -1.026698
| 49> H       0.493586    2.991089   -0.276647
| 50> H      -2.172775   -2.838100    1.559852
| 51> H      -5.437378   -0.341582    0.219877
| 52> **                         ****END OF INPUT****

CARTESIAN COORDINATES (ANGSTROEM)
---------------------------------
  C     -3.347872    3.474233   -2.062592
  O     -3.405824    2.230909   -1.352484
  C     -2.251877    1.692229   -0.997495
  O     -1.172529    2.193223   -1.247093
  C     -2.386249    0.403041   -0.264164
  N     -1.172820   -0.172417    0.037472
  C     -1.121073   -1.296351    0.663967
  C      0.225700   -1.917098    0.970275
  C      0.449143   -2.005405    2.483688
  C      0.353426   -3.284693    0.292100
  N      1.213790   -0.985432    0.393631
  C      2.507487   -1.190818    0.441269
  O      3.134893   -2.134004    0.837495
  C      3.344661    0.067906   -0.169126
  C      4.825248   -0.174219    0.077061
  N      2.942510    0.175796   -1.510345
  N      2.269721    1.236970   -1.673299
  C      2.245548    1.906479   -0.475951
  C      1.574893    3.172019   -0.228164
  O      2.878276    1.249005    0.430690
  N     -2.240443   -1.963198    1.061309
  C     -3.511411   -1.488253    0.823092
  O     -4.513879   -2.081414    1.179521
  C     -3.551079   -0.213645    0.101815
  O     -4.768413    0.265629   -0.149357
  H     -2.843058    4.226287   -1.453266
  H     -4.377186    3.768856   -2.257490
  H     -2.802499    3.342089   -2.999474
  H      1.425145   -2.442494    2.687233
  H      0.402651   -1.010613    2.923225
  H     -0.318784   -2.631572    2.933172
  H      0.214514   -3.182720   -0.783121
  H     -0.402556   -3.959462    0.688059
  H      1.336431   -3.707958    0.490402
  H      0.814496   -0.125893    0.024817
  H      4.993293   -0.281631    1.146227
  H      5.391831    0.671383   -0.305611
  H      5.119122   -1.088343   -0.433922
  H      1.837460    3.571536    0.747937
  H      1.803877    3.878638   -1.026698
  H      0.493586    2.991089   -0.276647
  H     -2.172775   -2.838100    1.559852
  H     -5.437378   -0.341582    0.219877

 Total Charge           Charge          ....    1
 Multiplicity           Mult            ....    1
 Number of Electrons    NEL             ....  184
 Basis Dimension        Dim             ....  620

ORBITAL ENERGIES
----------------

  NO   OCC          E(Eh)            E(eV)
   0   2.0000     -19.111219      -520.0427
   1   2.0000     -19.011729      -517.3355
   2   2.0000     -19.011504      -517.3293
   3   2.0000     -18.983256      -516.5607
   4   2.0000     -18.951062      -515.6846
   5   2.0000     -18.948731      -515.6212
   6   2.0000     -14.283415      -388.6715
   7   2.0000     -14.267950      -388.2507
   8   2.0000     -14.242671      -387.5628
   9   2.0000     -14.229718      -387.2103
  10   2.0000     -14.184412      -385.9775
  11   2.0000     -10.225859      -278.2598
  12   2.0000     -10.194325      -277.4017
  13   2.0000     -10.191657      -277.3291
  14   2.0000     -10.173570      -276.8369
  15   2.0000     -10.164807      -276.5985
  16   2.0000     -10.143674      -276.0234
  17   2.0000     -10.135036      -275.7884
  18   2.0000     -10.123524      -275.4751
  19   2.0000     -10.104383      -274.9543
  20   2.0000     -10.081717      -274.3375
  21   2.0000     -10.068284      -273.9719
  22   2.0000     -10.062486      -273.8142
  23   2.0000     -10.034303      -273.0473
  24   2.0000     -10.033891      -273.0361
  25   2.0000      -1.211003       -32.9531
  26   2.0000      -1.089095       -29.6358
  27   2.0000      -1.071402       -29.1543
  28   2.0000      -1.070711       -29.1355
  29   2.0000      -1.056740       -28.7554
  30   2.0000      -1.034231       -28.1428
  31   2.0000      -0.995833       -27.0980
  32   2.0000      -0.986309       -26.8388
  33   2.0000      -0.948248       -25.8031
  34   2.0000      -0.896186       -24.3865
  35   2.0000      -0.876235       -23.8436
  36   2.0000      -0.805710       -21.9245
  37   2.0000      -0.768817       -20.9206
  38   2.0000      -0.761056       -20.7094
  39   2.0000      -0.721132       -19.6230
  40   2.0000      -0.713588       -19.4177
  41   2.0000      -0.678586       -18.4653
  42   2.0000      -0.675129       -18.3712
  43   2.0000      -0.669077       -18.2065
  44   2.0000      -0.657349       -17.8874
  45   2.0000      -0.649194       -17.6655
  46   2.0000      -0.634871       -17.2757
  47   2.0000      -0.590992       -16.0817
  48   2.0000      -0.578980       -15.7548
  49   2.0000      -0.560214       -15.2442
  50   2.0000      -0.551399       -15.0043
  51   2.0000      -0.533067       -14.5055
  52   2.0000      -0.523795       -14.2532
  53   2.0000      -0.514896       -14.0110
  54   2.0000      -0.506410       -13.7801
  55   2.0000      -0.491278       -13.3684
  56   2.0000      -0.471467       -12.8293
  57   2.0000      -0.470140       -12.7932
  58   2.0000      -0.460716       -12.5367
  59   2.0000      -0.455574       -12.3968
  60   2.0000      -0.452171       -12.3042
  61   2.0000      -0.448299       -12.1988
  62   2.0000      -0.440970       -11.9994
  63   2.0000      -0.429479       -11.6867
  64   2.0000      -0.427363       -11.6292
  65   2.0000      -0.421234       -11.4624
  66   2.0000      -0.418227       -11.3805
  67   2.0000      -0.412451       -11.2234
  68   2.0000      -0.409376       -11.1397
  69   2.0000      -0.399659       -10.8753
  70   2.0000      -0.393035       -10.6950
  71   2.0000      -0.388913       -10.5829
  72   2.0000      -0.385896       -10.5008
  73   2.0000      -0.378869       -10.3096
  74   2.0000      -0.377148       -10.2627
  75   2.0000      -0.374430       -10.1887
  76   2.0000      -0.369052       -10.0424
  77   2.0000      -0.365115        -9.9353
  78   2.0000      -0.362732        -9.8705
  79   2.0000      -0.353278        -9.6132
  80   2.0000      -0.346344        -9.4245
  81   2.0000      -0.336093        -9.1456
  82   2.0000      -0.324812        -8.8386
  83   2.0000      -0.301366        -8.2006
  84   2.0000      -0.296490        -8.0679
  85   2.0000      -0.286737        -7.8025
  86   2.0000      -0.282862        -7.6971
  87   2.0000      -0.279203        -7.5975
  88   2.0000      -0.276641        -7.5278
  89   2.0000      -0.273659        -7.4466
  90   2.0000      -0.255484        -6.9521
  91   2.0000      -0.225766        -6.1434
  92   0.0000      -0.194949        -5.3048
  93   0.0000      -0.103442        -2.8148
  94   0.0000      -0.082813        -2.2535
  95   0.0000      -0.051527        -1.4021
  96   0.0000      -0.042358        -1.1526

MULLIKEN ATOMIC CHARGES
-----------------------
   0 C :   -0.310297
   1 O :   -0.160938
   2 C :    0.174638
   3 O :   -0.422704
   4 C :    0.163830
   5 N :   -0.208653
   6 C :    0.467266
   7 C :   -0.313230
   8 C :   -0.578611
   9 C :   -0.569527
  10 N :    0.085712
  11 C :    0.313269
  12 O :   -0.371095
  13 C :    0.097551
  14 C :   -0.438698
  15 N :   -0.035301
  16 N :   -0.101998
  17 C :    0.428694
  18 C :   -0.617137
  19 O :   -0.074113
  20 N :   -0.041173
  21 C :    0.134393
  22 O :   -0.436420
  23 C :    0.068763
  24 O :   -0.347911
  25 H :    0.178097
  26 H :    0.180456
  27 H :    0.179174
  28 H :    0.202414
  29 H :    0.198152
  30 H :    0.193161
  31 H :    0.197588
  32 H :    0.193946
  33 H :    0.204494
  34 H :    0.301273
  35 H :    0.216729
  36 H :    0.204958
  37 H :    0.222058
  38 H :    0.220496
  39 H :    0.238996
  40 H :    0.260895
  41 H :    0.335896
  42 H :    0.364908
Sum of atomic charges:    1.0000000

LOEWDIN ATOMIC CHARGES
----------------------
   0 C :   -0.031993
   1 O :   -0.561924
   2 C :    0.410266
   3 O :   -0.446476
   4 C :    0.217740
   5 N :   -0.560637
   6 C :    0.369365
   7 C :    0.111820
   8 C :   -0.331811
   9 C :   -0.332172
  10 N :   -0.537241
  11 C :    0.413178
  12 O :   -0.377309
  13 C :    0.330120
  14 C :   -0.263184
  15 N :   -0.224642
  16 N :   -0.223962
  17 C :    0.473908
  18 C :   -0.288536
  19 O :   -0.355630
  20 N :   -0.425257
  21 C :    0.373729
  22 O :   -0.452916
  23 C :    0.286297
  24 O :   -0.424634
  25 H :    0.184569
  26 H :    0.187988
  27 H :    0.184699
  28 H :    0.182160
  29 H :    0.180173
  30 H :    0.177611
  31 H :    0.180449
  32 H :    0.178270
  33 H :    0.185718
  34 H :    0.316770
  35 H :    0.198740
  36 H :    0.190276
  37 H :    0.204266
  38 H :    0.202223
  39 H :    0.222484
  40 H :    0.247078
  41 H :    0.313956
  42 H :    0.314472

  Mayer bond orders larger than 0.100000
B(  0-C ,  1-O ) :   0.8257 B(  0-C , 25-H ) :   0.9530 B(  0-C , 26-H ) :   0.9624
B(  0-C , 27-H ) :   0.9534 B(  1-O ,  2-C ) :   1.2029 B(  2-C ,  3-O ) :   1.7714
B(  2-C ,  4-C ) :   1.0139 B(  4-C ,  5-N ) :   1.0134 B(  4-C , 23-C ) :   1.3444
B(  5-N ,  6-C ) :   1.6393 B(  6-C ,  7-C ) :   0.7156 B(  6-C , 10-N ) :  -0.1347
B(  6-C , 20-N ) :   1.1166 B(  6-C , 23-C ) :   0.1097 B(  7-C ,  8-C ) :   0.9612
B(  7-C ,  9-C ) :   0.9594 B(  7-C , 10-N ) :   0.9114 B(  8-C , 28-H ) :   0.9512
B(  8-C , 29-H ) :   0.9577 B(  8-C , 30-H ) :   0.9482 B(  9-C , 31-H ) :   0.9577
B(  9-C , 32-H ) :   0.9474 B(  9-C , 33-H ) :   0.9514 B( 10-N , 11-C ) :   1.2718
B( 10-N , 13-C ) :   0.1191 B( 10-N , 34-H ) :   0.8192 B( 11-C , 12-O ) :   1.8073
B( 11-C , 13-C ) :   0.9467 B( 13-C , 14-C ) :   0.9460 B( 13-C , 15-N ) :   1.0212
B( 13-C , 19-O ) :   0.8018 B( 14-C , 35-H ) :   0.9346 B( 14-C , 36-H ) :   0.9463
B( 14-C , 37-H ) :   0.9268 B( 15-N , 16-N ) :   1.6731 B( 15-N , 17-C ) :   0.1137
B( 16-N , 17-C ) :   1.1076 B( 17-C , 18-C ) :   0.9803 B( 17-C , 19-O ) :   1.3159
B( 18-C , 38-H ) :   0.9632 B( 18-C , 39-H ) :   0.9064 B( 18-C , 40-H ) :   0.8601
B( 20-N , 21-C ) :   1.0389 B( 20-N , 41-H ) :   0.8768 B( 21-C , 22-O ) :   2.0080
B( 21-C , 23-C ) :   0.9404 B( 23-C , 24-O ) :   1.0838 B( 24-O , 42-H ) :   0.8201

Dispersion correction           -0.020071376
FINAL SINGLE POINT ENERGY     -1269.051398605964

DIPOLE MOMENT
-------------
                                X             Y             Z
Electronic contribution:     -6.19094       0.45789      -2.76412
Nuclear contribution   :      9.16911       1.08235       3.85772
                        -----------------------------------------
Total Dipole Moment    :      2.97817       1.54024       1.09361
                        -----------------------------------------
Magnitude (a.u.)       :      3.52673
Magnitude (Debye)      :      8.96424

Rotational constants in cm-1:     0.010649     0.005733     0.003969
Rotational constants in MHz :   319.249100   171.862025   118.985672

                             ****ORCA TERMINATED NORMALLY****
TOTAL RUN TIME: 0 days 0 hours 2 minutes 48 seconds 164 msec
