   * xtb version 6.5.1 (579679a) compiled by 'ehlert@majestix' on 2022-07-11
          program call               : /lustre/hpc/kemi/ree/PhD/git/ReactivityQM/dep/xtb-6.5.1/bin/xtb --gfn 1 /lustre/hpc/kemi/ree/PhD/git/ReactivityQM/calculations/R02/reac01prodN12/conf19/R02_reac01prodN12_conf19_gfn1.xyz --opt --vfukui --chrg 1 --uhf 0 --alpb DMSO

   ID    Z sym.   atoms
    1    6 C      1, 3, 5, 7-10, 12, 14, 15, 18, 19, 22, 24
    2    8 O      2, 4, 13, 20, 23, 25
    3    7 N      6, 11, 16, 17, 21
    4    1 H      26-43

      * Solvation model:               ALPB
        Solvent                        DMSO
        Solvent mass                       7.8130E+01 g/mol
          :  Hamiltonian                  GFN1-xTB          :
 * total energy  :   -83.1178775 Eh     change       -0.1632827E-10 Eh
 * total energy  :   -83.1343796 Eh     change       -0.1650210E-01 Eh
 * total energy  :   -83.1411559 Eh     change       -0.6776313E-02 Eh
 * total energy  :   -83.1424291 Eh     change       -0.1273159E-02 Eh
 * total energy  :   -83.1432335 Eh     change       -0.8043989E-03 Eh
 * total energy  :   -83.1435174 Eh     change       -0.2839125E-03 Eh
 * total energy  :   -83.1437524 Eh     change       -0.2349616E-03 Eh
 * total energy  :   -83.1438796 Eh     change       -0.1272415E-03 Eh
 * total energy  :   -83.1439452 Eh     change       -0.6562318E-04 Eh
 * total energy  :   -83.1440035 Eh     change       -0.5822432E-04 Eh
 * total energy  :   -83.1444571 Eh     change       -0.1306684E-04 Eh
 * total energy  :   -83.1444721 Eh     change       -0.1501493E-04 Eh
 * total energy  :   -83.1444886 Eh     change       -0.1648686E-04 Eh
 * total energy  :   -83.1445047 Eh     change       -0.1612843E-04 Eh
 * total energy  :   -83.1445181 Eh     change       -0.1336740E-04 Eh
 * total energy  :   -83.1445281 Eh     change       -0.1001246E-04 Eh
 * total energy  :   -83.1445360 Eh     change       -0.7883351E-05 Eh
 * total energy  :   -83.1445417 Eh     change       -0.5791146E-05 Eh
 * total energy  :   -83.1445458 Eh     change       -0.4028685E-05 Eh
   *** GEOMETRY OPTIMIZATION CONVERGED AFTER 34 ITERATIONS ***

 final structure:
================
43
 xtb: 6.5.1 (579679a)
C           -3.34787246437535        3.47423286316353       -2.06259212265466
O           -3.40582376345400        2.23090884820829       -1.35248403470090
C           -2.25187730737821        1.69222854750919       -0.99749468344462
O           -1.17252923347695        2.19322309554962       -1.24709288963009
C           -2.38624879467692        0.40304102153627       -0.26416439998449
N           -1.17282041721161       -0.17241737182525        0.03747204996805
C           -1.12107269101117       -1.29635138450938        0.66396734395312
C            0.22569993971549       -1.91709820958655        0.97027470332808
C            0.44914344088019       -2.00540453492711        2.48368809463878
C            0.35342557591313       -3.28469292585085        0.29210038580312
N            1.21378983366539       -0.98543218228529        0.39363100788665
C            2.50748745736092       -1.19081805047806        0.44126886883203
O            3.13489302628748       -2.13400430799905        0.83749474574621
C            3.34466081209535        0.06790583887751       -0.16912626821999
C            4.82524752749430       -0.17421856011728        0.07706069770382
N            2.94251014036123        0.17579628993208       -1.51034517314858
N            2.26972101259175        1.23697023479033       -1.67329852665978
C            2.24554843260550        1.90647928718374       -0.47595119739125
C            1.57489330648270        3.17201865104374       -0.22816372630125
O            2.87827579633628        1.24900529368339        0.43069015490653
N           -2.24044331534965       -1.96319777238009        1.06130860414423
C           -3.51141138418671       -1.48825280402428        0.82309178007903
O           -4.51387911430293       -2.08141416577106        1.17952112285632
C           -3.55107879692241       -0.21364500150176        0.10181496501141
O           -4.76841259105580        0.26562858446697       -0.14935744237730
H           -2.84305813873025        4.22628655398428       -1.45326644212841
H           -4.37718620410903        3.76885562597269       -2.25749046034457
H           -2.80249916117560        3.34208851733584       -2.99947357366071
H            1.42514504446728       -2.44249416682347        2.68723276347887
H            0.40265108200924       -1.01061255366759        2.92322519881007
H           -0.31878410324765       -2.63157249838479        2.93317210351821
H            0.21451435740981       -3.18271977234670       -0.78312089515446
H           -0.40255555428846       -3.95946243218284        0.68805940858317
H            1.33643069871496       -3.70795837769178        0.49040247840492
H            0.81449590752440       -0.12589280349711        0.02481721657509
H            4.99329311016630       -0.28163083107025        1.14622667512860
H            5.39183141168914        0.67138298266370       -0.30561110578074
H            5.11912209791731       -1.08834345974414       -0.43392210598370
H            1.83745969456962        3.57153593434818        0.74793657984663
H            1.80387702268249        3.87863794450568       -1.02669814985209
H            0.49358624720225        2.99108933794735       -0.27664726275925
H           -2.17277458047953       -2.83809963286706        1.55985151339553
H           -5.43737836070019       -0.34158165316977        0.21987699758635

          :  Hamiltonian                  GFN1-xTB          :
         :: total energy             -83.144545775673 Eh    ::
         :: gradient norm              0.000443208077 Eh/a0 ::
         :: HOMO-LUMO gap              0.683158704873 eV    ::
         :: SCC energy               -83.939354973847 Eh    ::
         :: -> Gsolv                  -0.102593721241 Eh    ::
         :: repulsion energy           0.823258815532 Eh    ::

    * Orbital Energies and Occupations

         #    Occupation            Energy/Eh            Energy/eV
      -------------------------------------------------------------
         1        2.0000           -0.9318470             -25.3568
       ...           ...                  ...                  ...
        55        2.0000           -0.5359256             -14.5833
        56        2.0000           -0.5253096             -14.2944
        57        2.0000           -0.5239003             -14.2561
        58        2.0000           -0.5223839             -14.2148
        59        2.0000           -0.5139808             -13.9861
        60        2.0000           -0.5083490             -13.8329
        61        2.0000           -0.5043582             -13.7243
        62        2.0000           -0.5031823             -13.6923
        63        2.0000           -0.5014001             -13.6438
        64        2.0000           -0.4946452             -13.4600
        65        2.0000           -0.4782725             -13.0145
        66        2.0000           -0.4695865             -12.7781
        67        2.0000           -0.4474838             -12.1767 (HOMO)
        68        0.0000           -0.4223782             -11.4935 (LUMO)
        69                         -0.3393483              -9.2341
        70                         -0.3288919              -8.9496
        71                         -0.3028953              -8.2422
        72                         -0.2992145              -8.1420
        73                         -0.2555802              -6.9547
        74                         -0.1741887              -4.7399
        75                         -0.1642784              -4.4702
        76                         -0.1555378              -4.2324
        77                         -0.1536004              -4.1797
        78                         -0.1440149              -3.9188
       ...                                ...                  ...
       136                          0.7295957              19.8533
      -------------------------------------------------------------
                  HL-Gap            0.0251056 Eh            0.6832 eV

Wiberg/Mayer (AO) data.
largest (>0.10) Wiberg bond orders for each atom

     #   Z sym  total        # sym  WBO       # sym  WBO       # sym  WBO
 ---------------------------------------------------------------------------
     1   6 C    3.863 --    27 H    0.985    26 H    0.979    28 H    0.979
                             2 O    0.889
     2   8 O    2.222 --     3 C    1.141     1 C    0.889     4 O    0.134
     3   6 C    3.851 --     4 O    1.619     2 O    1.141     5 C    1.004
     4   8 O    1.925 --     3 C    1.619     2 O    0.134
     5   6 C    3.958 --    24 C    1.505     6 N    1.161     3 C    1.004
     6   7 N    3.061 --     7 C    1.592     5 C    1.161
     7   6 C    3.936 --     6 N    1.592    21 N    1.175     8 C    0.982
     8   6 C    3.914 --    10 C    0.982     7 C    0.982     9 C    0.980
                            11 N    0.894
     9   6 C    3.984 --    30 H    0.984    31 H    0.981     8 C    0.980
                            29 H    0.979
    10   6 C    3.983 --    32 H    0.984     8 C    0.982    33 H    0.980
                            34 H    0.977
    11   7 N    3.403 --    12 C    1.380     8 C    0.894    35 H    0.858
                            13 O    0.186
    12   6 C    3.911 --    13 O    1.661    11 N    1.380    14 C    0.714
    13   8 O    2.063 --    12 C    1.661    11 N    0.186
    14   6 C    3.835 --    16 N    1.110    15 C    0.937    20 O    0.909
                            12 C    0.714
    15   6 C    3.953 --    36 H    0.976    37 H    0.976    38 H    0.975
                            14 C    0.937
    16   7 N    3.009 --    17 N    1.636    14 C    1.110
    17   7 N    3.017 --    16 N    1.636    18 C    1.202
    18   6 C    3.807 --    20 O    1.274    17 N    1.202    19 C    1.089
    19   6 C    3.961 --    18 C    1.089    39 H    0.972    40 H    0.935
                            41 H    0.884
    20   8 O    2.372 --    18 C    1.274    14 C    0.909
    21   7 N    3.466 --     7 C    1.175    22 C    1.128    42 H    0.878
                            23 O    0.133
    22   6 C    3.908 --    23 O    1.598    21 N    1.128    24 C    1.052
    23   8 O    1.920 --    22 C    1.598    21 N    0.133
    24   6 C    3.921 --     5 C    1.505    25 O    1.123    22 C    1.052
    25   8 O    2.100 --    24 C    1.123    43 H    0.801
    26   1 H    1.006 --     1 C    0.979
    27   1 H    1.009 --     1 C    0.985
    28   1 H    1.006 --     1 C    0.979
    29   1 H    0.998 --     9 C    0.979
    30   1 H    0.998 --     9 C    0.984
    31   1 H    0.996 --     9 C    0.981
    32   1 H    0.998 --    10 C    0.984
    33   1 H    0.995 --    10 C    0.980
    34   1 H    1.001 --    10 C    0.977
    35   1 H    0.949 --    11 N    0.858
    36   1 H    0.995 --    15 C    0.976
    37   1 H    0.991 --    15 C    0.976
    38   1 H    0.997 --    15 C    0.975
    39   1 H    0.987 --    19 C    0.972
    40   1 H    0.982 --    19 C    0.935
    41   1 H    0.996 --    19 C    0.884
    42   1 H    0.921 --    21 N    0.878
    43   1 H    0.838 --    25 O    0.801
 ---------------------------------------------------------------------------

           -------------------------------------------------
          | TOTAL ENERGY              -83.144545775673 Eh   |
          | GRADIENT NORM               0.000443208077 Eh/α |
          | HOMO-LUMO GAP               0.683158704873 eV   |
           -------------------------------------------------

 * finished run on 2023/06/20 at 15:34:48.298
