   * xtb version 6.5.1 (579679a) compiled by 'ehlert@majestix' on 2022-07-11
          program call               : /lustre/hpc/kemi/ree/PhD/git/ReactivityQM/dep/xtb-6.5.1/bin/xtb --gfn 1 /lustre/hpc/kemi/ree/PhD/git/ReactivityQM/calculations/RaltegravirCLI/reac02prodE11/conf13/RaltegravirCLI_reac02prodE11_conf13_gfn1.xyz --opt --vfukui --chrg -1 --uhf 0 --alpb DMSO

   ID    Z sym.   atoms
    1    6 C      1, 3-6, 9, 10, 13-17, 19-21, 23, 24
    2    7 N      2, 7, 8, 12
    3    8 O      11, 22, 25
    4    9 F      18
    5    1 H      26-47

      * Solvation model:               ALPB
        Solvent                        DMSO
        Solvent mass                       7.8130E+01 g/mol
          :  Hamiltonian                  GFN1-xTB          :
 * total energy  :   -80.1888426 Eh     change       -0.1580247E-10 Eh
 * total energy  :   -80.1987385 Eh     change       -0.9895885E-02 Eh
 * total energy  :   -80.2019791 Eh     change       -0.3240603E-02 Eh
 * total energy  :   -80.2029947 Eh     change       -0.1015606E-02 Eh
 * total energy  :   -80.2044160 Eh     change       -0.1421317E-02 Eh
 * total energy  :   -80.2067561 Eh     change       -0.2340084E-02 Eh
 * total energy  :   -80.2036659 Eh     change        0.3090223E-02 Eh
 * total energy  :   -80.2106691 Eh     change       -0.7003219E-02 Eh
 * total energy  :   -80.2131796 Eh     change       -0.2510559E-02 Eh
 * total energy  :   -80.2175289 Eh     change       -0.4349217E-02 Eh
 * total energy  :   -80.2323445 Eh     change       -0.4132094E-04 Eh
 * total energy  :   -80.2323706 Eh     change       -0.2614207E-04 Eh
 * total energy  :   -80.2323974 Eh     change       -0.2676797E-04 Eh
 * total energy  :   -80.2324237 Eh     change       -0.2631744E-04 Eh
 * total energy  :   -80.2324405 Eh     change       -0.1676667E-04 Eh
 * total energy  :   -80.2324542 Eh     change       -0.1374079E-04 Eh
 * total energy  :   -80.2324700 Eh     change       -0.1576173E-04 Eh
 * total energy  :   -80.2324806 Eh     change       -0.1062329E-04 Eh
 * total energy  :   -80.2324853 Eh     change       -0.4680513E-05 Eh
   *** GEOMETRY OPTIMIZATION CONVERGED AFTER 69 ITERATIONS ***

 final structure:
================
47
 xtb: 6.5.1 (579679a)
C           -3.79975006948116       -0.65220663914348        1.83609627789100
N           -2.56626806031133       -0.30225381015649        1.13873151828420
C           -2.53034915184766        0.17613649796586       -0.17485443050823
C           -3.80450780677232        0.44903014645103       -0.97783220420646
C           -3.43198635072791        1.19169803732823       -2.27379455139714
C           -4.49165881745916       -0.87273310949392       -1.35096159123756
N           -4.74621708183788        1.27084487947228       -0.20872893425721
N           -1.42448484429417        0.44305937399146       -0.76536801452606
C           -0.18358741483200        0.31497415767467       -0.10143739207219
C            0.92743937240882        0.97989174026992       -0.75611280131633
O            0.84191482172195        1.60098511022367       -1.82631999428302
N            2.15464061718871        0.84618717177335       -0.12837969171420
C            3.26364905004545        1.69073937012988       -0.52321651606890
C            4.56787047467929        0.92738728389039       -0.56251004592568
C            4.58680381124636       -0.45880715461332       -0.69643264038711
C            5.78764067914447       -1.15232288709974       -0.74776240418769
C            6.96385709981293       -0.43129288314753       -0.66472380740520
F            8.13532810428019       -1.09491603391441       -0.71345731163979
C            6.98600774711887        0.94487258531642       -0.53301590711672
C            5.77442879858508        1.62015622001832       -0.48091725510783
C           -0.11402229826560       -0.38675284358654        1.09136887415271
O            0.85917452465056       -0.52653236357954        1.88060453515697
C           -1.41408037687371       -1.12749656084811        1.50604021166838
C           -1.46616283021263       -2.50734150785592        0.80793757501999
O           -1.37126290448268       -1.30895826146588        2.89801033986577
H           -3.60156733684636       -0.65427613188200        2.91017732321978
H           -4.17170559792022       -1.64290828754185        1.55120444407957
H           -4.56697646127003        0.09175522489570        1.62870868321555
H           -4.33637331112151        1.43658027575223       -2.82916386149593
H           -2.78902256040356        0.56914328863971       -2.89618127493142
H           -2.90028445564894        2.11386062627132       -2.03952821373433
H           -3.77605450370701       -1.54201829670483       -1.82882877300782
H           -4.90136192769657       -1.36724461896811       -0.47267018666498
H           -5.30927095951652       -0.68377354483188       -2.04648546516826
H           -4.39303179540293        2.21696133981149       -0.14124282621676
H           -5.62483169396810        1.31299273985960       -0.70458369643351
H            2.14848597556874        0.55650261420155        0.84337807680141
H            3.36221137261858        2.54617276832484        0.15910354284852
H            3.05024480419674        2.08951459832285       -1.52437184107445
H            3.64944492929304       -1.00262816209003       -0.75521508911375
H            5.81459331649503       -2.22954387254649       -0.84959623391062
H            7.92801343234484        1.47229366436066       -0.46876889201827
H            5.77233128596506        2.69882345238181       -0.37429472183376
H           -0.44252696212685       -1.10244206035477        3.14732194187220
H           -0.56687217526354       -3.06354941472561        1.06659281862177
H           -2.33490853540118       -3.07014967259655        1.14466622495271
H           -1.51495593367338       -2.38041405017941       -0.27235381868952

          :  Hamiltonian                  GFN1-xTB          :
         :: total energy             -80.232485278595 Eh    ::
         :: gradient norm              0.000864013280 Eh/a0 ::
         :: HOMO-LUMO gap              1.827549694603 eV    ::
         :: SCC energy               -81.087440814483 Eh    ::
         :: -> Gsolv                  -0.103777917605 Eh    ::
         :: repulsion energy           0.885483956388 Eh    ::

    * Orbital Energies and Occupations

         #    Occupation            Energy/Eh            Energy/eV
      -------------------------------------------------------------
         1        2.0000           -0.8548825             -23.2625
       ...           ...                  ...                  ...
        56        2.0000           -0.4638766             -12.6227
        57        2.0000           -0.4530722             -12.3287
        58        2.0000           -0.4459539             -12.1350
        59        2.0000           -0.4409908             -12.0000
        60        2.0000           -0.4393069             -11.9541
        61        2.0000           -0.4233360             -11.5196
        62        2.0000           -0.4086798             -11.1207
        63        2.0000           -0.3995528             -10.8724
        64        2.0000           -0.3923378             -10.6761
        65        2.0000           -0.3913207             -10.6484
        66        2.0000           -0.3759087             -10.2290
        67        2.0000           -0.3659620              -9.9583
        68        2.0000           -0.3300911              -8.9822 (HOMO)
        69                         -0.2629299              -7.1547 (LUMO)
        70                         -0.2528676              -6.8809
        71                         -0.2246109              -6.1120
        72                         -0.2060760              -5.6076
        73                         -0.1330303              -3.6199
        74                         -0.1186626              -3.2290
        75                         -0.1096766              -2.9845
        76                         -0.1055430              -2.8720
        77                         -0.1053740              -2.8674
        78                         -0.1000469              -2.7224
        79                         -0.0950626              -2.5868
       ...                                ...                  ...
       144                          0.7077254              19.2582
      -------------------------------------------------------------
                  HL-Gap            0.0671612 Eh            1.8275 eV

Wiberg/Mayer (AO) data.
largest (>0.10) Wiberg bond orders for each atom

     #   Z sym  total        # sym  WBO       # sym  WBO       # sym  WBO
 ---------------------------------------------------------------------------
     1   6 C    3.964 --    26 H    0.983    27 H    0.977    28 H    0.976
                             2 N    0.960
     2   7 N    3.243 --     3 C    1.090     1 C    0.960    23 C    0.930
                             8 N    0.139
     3   6 C    3.942 --     8 N    1.673     2 N    1.090     4 C    0.970
     4   6 C    3.963 --     5 C    0.992     6 C    0.990     7 N    0.973
                             3 C    0.970
     5   6 C    3.997 --     4 C    0.992    29 H    0.987    31 H    0.984
                            30 H    0.984
     6   6 C    3.995 --     4 C    0.990    32 H    0.986    34 H    0.985
                            33 H    0.981
     7   7 N    2.990 --     4 C    0.973    36 H    0.949    35 H    0.947
     8   7 N    3.016 --     3 C    1.673     9 C    1.058     2 N    0.139
     9   6 C    3.900 --    21 C    1.396    10 C    1.135     8 N    1.058
                            22 O    0.126
    10   6 C    3.900 --    11 O    1.509    12 N    1.136     9 C    1.135
    11   8 O    1.809 --    10 C    1.509    12 N    0.119
    12   7 N    3.237 --    10 C    1.136    13 C    0.973    37 H    0.891
                            11 O    0.119
    13   6 C    3.970 --    14 C    1.004    12 N    0.973    38 H    0.968
                            39 H    0.954
    14   6 C    3.988 --    15 C    1.415    20 C    1.413    13 C    1.004
    15   6 C    3.994 --    16 C    1.442    14 C    1.415    40 H    0.969
                            19 C    0.110
    16   6 C    3.992 --    15 C    1.442    17 C    1.403    41 H    0.970
                            20 C    0.110
    17   6 C    3.858 --    16 C    1.403    19 C    1.401    18 F    0.916
    18   9 F    1.041 --    17 C    0.916
    19   6 C    3.992 --    20 C    1.444    17 C    1.401    42 H    0.970
                            15 C    0.110
    20   6 C    3.994 --    19 C    1.444    14 C    1.413    43 H    0.972
                            16 C    0.110
    21   6 C    3.935 --    22 O    1.437     9 C    1.396    23 C    0.914
    22   8 O    1.850 --    21 C    1.437     9 C    0.126
    23   6 C    3.883 --    24 C    0.966    25 O    0.966     2 N    0.930
                            21 C    0.914
    24   6 C    3.995 --    47 H    0.987    45 H    0.986    46 H    0.984
                            23 C    0.966
    25   8 O    1.898 --    23 C    0.966    44 H    0.820
    26   1 H    1.022 --     1 C    0.983
    27   1 H    1.010 --     1 C    0.977
    28   1 H    1.038 --     1 C    0.976
    29   1 H    1.007 --     5 C    0.987
    30   1 H    1.020 --     5 C    0.984
    31   1 H    1.019 --     5 C    0.984
    32   1 H    1.008 --     6 C    0.986
    33   1 H    1.009 --     6 C    0.981
    34   1 H    1.003 --     6 C    0.985
    35   1 H    0.965 --     7 N    0.947
    36   1 H    0.963 --     7 N    0.949
    37   1 H    0.967 --    12 N    0.891
    38   1 H    1.006 --    13 C    0.968
    39   1 H    1.023 --    13 C    0.954
    40   1 H    1.012 --    15 C    0.969
    41   1 H    1.000 --    16 C    0.970
    42   1 H    0.999 --    19 C    0.970
    43   1 H    1.001 --    20 C    0.972
    44   1 H    0.890 --    25 O    0.820
    45   1 H    1.009 --    24 C    0.986
    46   1 H    1.007 --    24 C    0.984
    47   1 H    1.009 --    24 C    0.987
 ---------------------------------------------------------------------------

           -------------------------------------------------
          | TOTAL ENERGY              -80.232485278595 Eh   |
          | GRADIENT NORM               0.000864013280 Eh/α |
          | HOMO-LUMO GAP               1.827549694603 eV   |
           -------------------------------------------------

 * finished run on 2023/06/20 at 15:13:33.623
