   * xtb version 6.5.1 (579679a) compiled by 'ehlert@majestix' on 2022-07-11
          program call               : /lustre/hpc/kemi/ree/PhD/git/ReactivityQM/dep/xtb-6.5.1/bin/xtb --gfn 1 /lustre/hpc/kemi/ree/PhD/git/ReactivityQM/calculations/R01/reac02prodN03/conf04/R01_reac02prodN03_conf04_gfn1.xyz --opt --vfukui --chrg 1 --uhf 0 --alpb DMSO

   ID    Z sym.   atoms
    1    6 C      1, 3, 5, 7-10, 13, 15, 17
    2    8 O      2, 4, 14, 16
    3    7 N      6, 11, 12
    4    1 H      18-33

      * Solvation model:               ALPB
        Solvent                        DMSO
        Solvent mass                       7.8130E+01 g/mol
          :  Hamiltonian                  GFN1-xTB          :
 * total energy  :   -57.8025542 Eh     change       -0.2749800E-11 Eh
 * total energy  :   -57.8164699 Eh     change       -0.1391578E-01 Eh
 * total energy  :   -57.8226866 Eh     change       -0.6216704E-02 Eh
 * total energy  :   -57.8248771 Eh     change       -0.2190484E-02 Eh
 * total energy  :   -57.8276355 Eh     change       -0.2758363E-02 Eh
 * total energy  :   -57.8291311 Eh     change       -0.1495597E-02 Eh
 * total energy  :   -57.8314642 Eh     change       -0.2333097E-02 Eh
 * total energy  :   -57.8347681 Eh     change       -0.3303909E-02 Eh
 * total energy  :   -57.8376184 Eh     change       -0.2850321E-02 Eh
 * total energy  :   -57.8393320 Eh     change       -0.1713636E-02 Eh
 * total energy  :   -57.8485583 Eh     change       -0.1160294E-04 Eh
 * total energy  :   -57.8485682 Eh     change       -0.9878323E-05 Eh
 * total energy  :   -57.8485784 Eh     change       -0.1019175E-04 Eh
 * total energy  :   -57.8485896 Eh     change       -0.1119457E-04 Eh
 * total energy  :   -57.8486015 Eh     change       -0.1196861E-04 Eh
 * total energy  :   -57.8486093 Eh     change       -0.7798581E-05 Eh
 * total energy  :   -57.8486182 Eh     change       -0.8885491E-05 Eh
 * total energy  :   -57.8486232 Eh     change       -0.5007413E-05 Eh
 * total energy  :   -57.8486272 Eh     change       -0.3969404E-05 Eh
   *** GEOMETRY OPTIMIZATION CONVERGED AFTER 40 ITERATIONS ***

 final structure:
================
33
 xtb: 6.5.1 (579679a)
C            3.22835107412416        2.94632430488146       -0.60730909730183
O            2.09637046014256        2.08403051514179       -0.38396825268412
C            2.27554982996951        0.82788564818908       -0.20958061895114
O            3.48571213840264        0.37894553669955       -0.24696812346273
C            1.11364511589315        0.00061537520456        0.02675445280552
N           -0.08028106370908        0.67569314014785        0.02375149577858
C           -1.17422192413131        0.02291806949181        0.24067385877618
C           -2.50216834764473        0.76121876362153        0.23949737643042
C           -3.10546900013227        0.71966752326486        1.65046417722321
C           -3.45313654196872        0.12452266049210       -0.78192387896446
N           -2.27959112495426        2.14771604899650       -0.13161919338382
N           -1.16664424212204       -1.32043222752390        0.48145605106575
C           -0.04670558814116       -2.11795526818809        0.50596353633535
O           -0.13079930983928       -3.31019869892117        0.72723590525488
C            1.19394142423211       -1.36665743831967        0.24542499099127
O            2.38514524031395       -1.95339124493422        0.21922688793556
C            2.56604235691216       -3.36975716388834        0.42511786148474
H            2.81948715110184        3.94016196065578       -0.77234568938766
H            3.87202827111082        2.92863371395694        0.27255264136307
H            3.78295218169268        2.59983807209469       -1.47957057181106
H           -2.40789272561383        1.14826619661919        2.36871320528680
H           -4.02648995505099        1.30126780190165        1.66141961496029
H           -3.32752654859916       -0.30501665600794        1.94256636785497
H           -3.71650122956315       -0.88903388737973       -0.48532996995289
H           -4.36196321796619        0.72193328940565       -0.84263068136117
H           -2.98321520427788        0.09410162290489       -1.76390573965052
H           -1.60754492166843        2.55229596995350        0.50960508100903
H           -1.86421676041805        2.17600143546347       -1.05467695302190
H           -2.03590518712877       -1.80782846619734        0.65682365246368
H            3.56627197105375       -0.58992884425156       -0.10424975228739
H            3.63628556783780       -3.53849162398956        0.32468384643337
H            2.01974832694421       -3.93287721338643       -0.33224219305814
H            2.22874278319720       -3.65046891609812        1.42343271182734

          :  Hamiltonian                  GFN1-xTB          :
         :: total energy             -57.848627210269 Eh    ::
         :: gradient norm              0.000509709705 Eh/a0 ::
         :: HOMO-LUMO gap              1.172799025261 eV    ::
         :: SCC energy               -58.421090438374 Eh    ::
         :: -> Gsolv                  -0.093524186576 Eh    ::
         :: repulsion energy           0.590711859917 Eh    ::

    * Orbital Energies and Occupations

         #    Occupation            Energy/Eh            Energy/eV
      -------------------------------------------------------------
         1        2.0000           -0.9099991             -24.7623
       ...           ...                  ...                  ...
        35        2.0000           -0.5495106             -14.9529
        36        2.0000           -0.5424583             -14.7610
        37        2.0000           -0.5410224             -14.7220
        38        2.0000           -0.5246445             -14.2763
        39        2.0000           -0.5196421             -14.1402
        40        2.0000           -0.5143600             -13.9964
        41        2.0000           -0.5136130             -13.9761
        42        2.0000           -0.5030216             -13.6879
        43        2.0000           -0.4955112             -13.4835
        44        2.0000           -0.4844314             -13.1820
        45        2.0000           -0.4778041             -13.0017
        46        2.0000           -0.4579523             -12.4615
        47        2.0000           -0.4255417             -11.5796 (HOMO)
        48                         -0.3824421             -10.4068 (LUMO)
        49                         -0.3097744              -8.4294
        50                         -0.2884574              -7.8493
        51                         -0.1971989              -5.3661
        52                         -0.1646516              -4.4804
        53                         -0.1493528              -4.0641
        54                         -0.1455956              -3.9619
        55                         -0.1345358              -3.6609
        56                         -0.1318683              -3.5883
        57                         -0.1193607              -3.2480
        58                         -0.1005893              -2.7372
       ...                                ...                  ...
       100                          0.6848138              18.6347
      -------------------------------------------------------------
                  HL-Gap            0.0430996 Eh            1.1728 eV

Wiberg/Mayer (AO) data.
largest (>0.10) Wiberg bond orders for each atom

     #   Z sym  total        # sym  WBO       # sym  WBO       # sym  WBO
 ---------------------------------------------------------------------------
     1   6 C    3.821 --    18 H    0.982    20 H    0.973    19 H    0.972
                             2 O    0.853
     2   8 O    2.319 --     3 C    1.285     1 C    0.853
     3   6 C    3.811 --     2 O    1.285     4 O    1.249     5 C    1.120
     4   8 O    2.194 --     3 C    1.249    30 H    0.744
     5   6 C    3.960 --    15 C    1.411     6 N    1.171     3 C    1.120
     6   7 N    3.025 --     7 C    1.575     5 C    1.171
     7   6 C    3.905 --     6 N    1.575    12 N    1.167     8 C    0.970
     8   6 C    3.967 --    11 N    1.001    10 C    0.983     9 C    0.979
                             7 C    0.970
     9   6 C    3.991 --    21 H    0.985    23 H    0.985    22 H    0.982
                             8 C    0.979
    10   6 C    3.992 --    26 H    0.985    24 H    0.983     8 C    0.983
                            25 H    0.982
    11   7 N    2.955 --     8 C    1.001    28 H    0.942    27 H    0.942
    12   7 N    3.477 --     7 C    1.167    13 C    1.144    29 H    0.876
                            14 O    0.142
    13   6 C    3.915 --    14 O    1.608    12 N    1.144    15 C    1.039
    14   8 O    1.937 --    13 C    1.608    12 N    0.142
    15   6 C    3.906 --     5 C    1.411    16 O    1.134    13 C    1.039
    16   8 O    2.249 --    15 C    1.134    17 C    0.855
    17   6 C    3.829 --    31 H    0.983    32 H    0.975    33 H    0.974
                            16 O    0.855
    18   1 H    1.002 --     1 C    0.982
    19   1 H    0.997 --     1 C    0.972
    20   1 H    0.997 --     1 C    0.973
    21   1 H    1.000 --     9 C    0.985
    22   1 H    1.002 --     9 C    0.982
    23   1 H    1.000 --     9 C    0.985
    24   1 H    0.999 --    10 C    0.983
    25   1 H    1.002 --    10 C    0.982
    26   1 H    0.999 --    10 C    0.985
    27   1 H    0.965 --    11 N    0.942
    28   1 H    0.963 --    11 N    0.942
    29   1 H    0.923 --    12 N    0.876
    30   1 H    0.807 --     4 O    0.744
    31   1 H    1.005 --    17 C    0.983
    32   1 H    1.007 --    17 C    0.975
    33   1 H    1.007 --    17 C    0.974
 ---------------------------------------------------------------------------

           -------------------------------------------------
          | TOTAL ENERGY              -57.848627210269 Eh   |
          | GRADIENT NORM               0.000509709705 Eh/α |
          | HOMO-LUMO GAP               1.172799025261 eV   |
           -------------------------------------------------

 * finished run on 2023/06/20 at 15:05:07.693
