   * xtb version 6.5.1 (579679a) compiled by 'ehlert@majestix' on 2022-07-11
          program call               : /lustre/hpc/kemi/ree/PhD/git/ReactivityQM/dep/xtb-6.5.1/bin/xtb --gfn 1 /lustre/hpc/kemi/ree/PhD/git/ReactivityQM/calculations/R02methylcation/reac01prodN03/conf01/R02methylcation_reac01prodN03_conf01_gfn1.xyz --opt --vfukui --chrg 0 --uhf 0 --alpb DMSO

   ID    Z sym.   atoms
    1    6 C      1, 3, 5, 6, 8-11, 13, 15, 18, 19, 22, 24
    2    8 O      2, 4, 14, 20, 23, 25
    3    7 N      7, 12, 16, 17, 21
    4    1 H      26-42

      * Solvation model:               ALPB
        Solvent                        DMSO
        Solvent mass                       7.8130E+01 g/mol
          :  Hamiltonian                  GFN1-xTB          :
 * total energy  :   -82.9817089 Eh     change       -0.7034373E-11 Eh
 * total energy  :   -82.9933248 Eh     change       -0.1161587E-01 Eh
 * total energy  :   -82.9979414 Eh     change       -0.4616668E-02 Eh
 * total energy  :   -82.9989469 Eh     change       -0.1005468E-02 Eh
 * total energy  :   -82.9995049 Eh     change       -0.5580165E-03 Eh
 * total energy  :   -82.9997293 Eh     change       -0.2243834E-03 Eh
 * total energy  :   -82.9998331 Eh     change       -0.1037676E-03 Eh
 * total energy  :   -82.9998863 Eh     change       -0.5324061E-04 Eh
 * total energy  :   -82.9999218 Eh     change       -0.3548420E-04 Eh
 * total energy  :   -82.9999542 Eh     change       -0.3234537E-04 Eh
 * total energy  :   -83.0006440 Eh     change       -0.9250127E-05 Eh
 * total energy  :   -83.0006508 Eh     change       -0.6738753E-05 Eh
 * total energy  :   -83.0006585 Eh     change       -0.7731553E-05 Eh
 * total energy  :   -83.0006644 Eh     change       -0.5905898E-05 Eh
 * total energy  :   -83.0006624 Eh     change        0.2010801E-05 Eh
 * total energy  :   -83.0006679 Eh     change       -0.5544930E-05 Eh
 * total energy  :   -83.0006692 Eh     change       -0.1266783E-05 Eh
 * total energy  :   -83.0006744 Eh     change       -0.5251185E-05 Eh
 * total energy  :   -83.0006772 Eh     change       -0.2724016E-05 Eh
   *** GEOMETRY OPTIMIZATION CONVERGED AFTER 56 ITERATIONS ***

 final structure:
================
42
 xtb: 6.5.1 (579679a)
C           -2.76109162904824        2.51368608928195       -1.89099790308409
O           -2.58703864622600        1.17332857967700       -1.40061221845811
C           -3.59490244045303        0.65387069113446       -0.72593220489196
O           -4.64074396303573        1.20080504063835       -0.50893083511745
C           -3.27501648395666       -0.79188689891297       -0.25099108613475
C           -4.46870309477047       -1.33132001733820        0.53997090977966
N           -2.12682357042854       -0.68925359604371        0.62188445795058
C           -0.95947670406267       -0.95934689618237        0.21206171877719
C            0.21320761781910       -0.88666962807555        1.16881287781416
C            0.57262011439738       -2.32710478462893        1.56355075574374
C           -0.14982506638052       -0.04726953740218        2.39648748022304
N            1.32857656355021       -0.26284783869398        0.44979518164271
C            2.56271460181369       -0.11376241619940        0.99070869156257
O            2.94095709748968       -0.59559885229212        2.04096148357826
C            3.42220971455885        0.71567888342249        0.10926850200208
N            3.05239781921837        1.30525318838573       -0.98821353525697
N            4.14255704706090        1.96685878511676       -1.46509201912879
C            5.10904150755266        1.74026913376417       -0.62654441647516
C            6.50236231991934        2.23197319012787       -0.69932528999115
O            4.71524598187373        0.95821563758967        0.38869083031245
N           -0.66363272102358       -1.39841470531840       -1.07163035153215
C           -1.59935607704594       -1.70969881267563       -2.01258651983650
O           -1.30672824140193       -2.08375740732978       -3.12498826987945
C           -3.04701945342843       -1.58888535432555       -1.52133755754982
O           -3.95142055639212       -2.08858914581038       -2.13824717267224
H           -3.67506479170124        2.57544218083302       -2.48486634303319
H           -2.82157069724298        3.20704633212473       -1.05059534710351
H           -1.89008134759981        2.73257179628013       -2.50340024581813
H           -5.34427538411210       -1.37672464554078       -0.10546680699314
H           -4.67247655903516       -0.67191517057088        1.38067545669002
H           -4.23949924672821       -2.32745137738365        0.91146141848218
H            0.89092603528859       -2.88669692328375        0.68582300763134
H           -0.30331213747956       -2.80895133620995        1.99504339733370
H            1.37472611319791       -2.32825789442015        2.29830466615691
H            0.68987486878719       -0.02134261765524        3.08842464410871
H           -0.39750019764977        0.96814953139676        2.09179967250451
H           -1.01267124200723       -0.48642283290111        2.89417486328076
H            1.10984706906071        0.31583940006703       -0.34790444560535
H            7.18488465752450        1.39313825057663       -0.83806917522898
H            6.60375490410797        2.92232415549693       -1.53312868468531
H            6.76964381531115        2.73396072238896        0.22992004621162
H            0.30268240267815       -1.52624289910753       -1.33212163331160

          :  Hamiltonian                  GFN1-xTB          :
         :: total energy             -83.000677171767 Eh    ::
         :: gradient norm              0.000369586317 Eh/a0 ::
         :: HOMO-LUMO gap              2.441917500642 eV    ::
         :: SCC energy               -83.788386687723 Eh    ::
         :: -> Gsolv                  -0.050657560651 Eh    ::
         :: repulsion energy           0.814435846194 Eh    ::

    * Orbital Energies and Occupations

         #    Occupation            Energy/Eh            Energy/eV
      -------------------------------------------------------------
         1        2.0000           -0.8654845             -23.5510
       ...           ...                  ...                  ...
        55        2.0000           -0.5131581             -13.9637
        56        2.0000           -0.5093431             -13.8599
        57        2.0000           -0.5077722             -13.8172
        58        2.0000           -0.5043906             -13.7252
        59        2.0000           -0.4989805             -13.5779
        60        2.0000           -0.4848343             -13.1930
        61        2.0000           -0.4734218             -12.8825
        62        2.0000           -0.4660546             -12.6820
        63        2.0000           -0.4644506             -12.6383
        64        2.0000           -0.4596685             -12.5082
        65        2.0000           -0.4544702             -12.3668
        66        2.0000           -0.4503987             -12.2560
        67        2.0000           -0.4432047             -12.0602 (HOMO)
        68                         -0.3534658              -9.6183 (LUMO)
        69                         -0.3143241              -8.5532
        70                         -0.2998139              -8.1584
        71                         -0.2730530              -7.4302
        72                         -0.2584363              -7.0324
        73                         -0.2282431              -6.2108
        74                         -0.2023519              -5.5063
        75                         -0.1479640              -4.0263
        76                         -0.1425691              -3.8795
        77                         -0.1305593              -3.5527
        78                         -0.1278073              -3.4778
       ...                                ...                  ...
       134                          0.7587102              20.6456
      -------------------------------------------------------------
                  HL-Gap            0.0897388 Eh            2.4419 eV

Wiberg/Mayer (AO) data.
largest (>0.10) Wiberg bond orders for each atom

     #   Z sym  total        # sym  WBO       # sym  WBO       # sym  WBO
 ---------------------------------------------------------------------------
     1   6 C    3.855 --    28 H    0.985    26 H    0.980    27 H    0.980
                             2 O    0.877
     2   8 O    2.212 --     3 C    1.148     1 C    0.877     4 O    0.139
     3   6 C    3.842 --     4 O    1.707     2 O    1.148     5 C    0.866
     4   8 O    1.984 --     3 C    1.707     2 O    0.139
     5   6 C    3.964 --     6 C    0.978     7 N    0.977    24 C    0.956
                             3 C    0.866
     6   6 C    3.984 --    31 H    0.985    30 H    0.983    29 H    0.982
                             5 C    0.978
     7   7 N    3.026 --     8 C    1.757     5 C    0.977
     8   6 C    3.928 --     7 N    1.757    21 N    1.069     9 C    0.977
     9   6 C    3.933 --    11 C    0.990     8 C    0.977    10 C    0.976
                            12 N    0.924
    10   6 C    3.987 --    33 H    0.985    32 H    0.984    34 H    0.976
                             9 C    0.976
    11   6 C    3.989 --     9 C    0.990    36 H    0.985    37 H    0.983
                            35 H    0.982
    12   7 N    3.325 --    13 C    1.231     9 C    0.924    38 H    0.895
                            14 O    0.172
    13   6 C    3.914 --    14 O    1.608    12 N    1.231    15 C    0.991
    14   8 O    1.922 --    13 C    1.608    12 N    0.172
    15   6 C    3.876 --    16 N    1.608    20 O    1.065    13 C    0.991
    16   7 N    3.019 --    15 C    1.608    17 N    1.203
    17   7 N    2.981 --    18 C    1.602    16 N    1.203
    18   6 C    3.870 --    17 N    1.602    20 O    1.084    19 C    1.032
    19   6 C    3.986 --    18 C    1.032    40 H    0.982    41 H    0.965
                            39 H    0.961
    20   8 O    2.332 --    18 C    1.084    15 C    1.065
    21   7 N    3.429 --    22 C    1.182     8 C    1.069    42 H    0.880
                            23 O    0.148
    22   6 C    3.892 --    23 O    1.675    21 N    1.182    24 C    0.907
    23   8 O    1.956 --    22 C    1.675    21 N    0.148
    24   6 C    3.847 --    25 O    1.811     5 C    0.956    22 C    0.907
    25   8 O    2.022 --    24 C    1.811
    26   1 H    1.004 --     1 C    0.980
    27   1 H    1.003 --     1 C    0.980
    28   1 H    1.008 --     1 C    0.985
    29   1 H    1.005 --     6 C    0.982
    30   1 H    1.004 --     6 C    0.983
    31   1 H    1.000 --     6 C    0.985
    32   1 H    1.001 --    10 C    0.984
    33   1 H    1.001 --    10 C    0.985
    34   1 H    1.010 --    10 C    0.976
    35   1 H    1.005 --    11 C    0.982
    36   1 H    1.004 --    11 C    0.985
    37   1 H    1.009 --    11 C    0.983
    38   1 H    0.952 --    12 N    0.895
    39   1 H    0.996 --    19 C    0.961
    40   1 H    0.998 --    19 C    0.982
    41   1 H    0.996 --    19 C    0.965
    42   1 H    0.927 --    21 N    0.880
 ---------------------------------------------------------------------------

           -------------------------------------------------
          | TOTAL ENERGY              -83.000677171767 Eh   |
          | GRADIENT NORM               0.000369586317 Eh/α |
          | HOMO-LUMO GAP               2.441917500642 eV   |
           -------------------------------------------------

 * finished run on 2023/06/21 at 17:32:51.829
