   * xtb version 6.5.1 (579679a) compiled by 'ehlert@majestix' on 2022-07-11
          program call               : /lustre/hpc/kemi/ree/PhD/git/ReactivityQM/dep/xtb-6.5.1/bin/xtb --gfn 1 /lustre/hpc/kemi/ree/PhD/git/ReactivityQM/calculations/R02methylcation/reac01prodN09/conf07/R02methylcation_reac01prodN09_conf07_gfn1.xyz --opt --vfukui --chrg 0 --uhf 0 --alpb DMSO

   ID    Z sym.   atoms
    1    6 C      1, 3, 4, 6, 8-11, 13, 15, 18, 19, 22, 24
    2    8 O      2, 5, 14, 20, 23, 25
    3    7 N      7, 12, 16, 17, 21
    4    1 H      26-42

      * Solvation model:               ALPB
        Solvent                        DMSO
        Solvent mass                       7.8130E+01 g/mol
          :  Hamiltonian                  GFN1-xTB          :
 * total energy  :   -82.8597132 Eh     change       -0.5158540E-11 Eh
 * total energy  :   -82.8753153 Eh     change       -0.1560205E-01 Eh
 * total energy  :   -82.8933227 Eh     change       -0.1800739E-01 Eh
 * total energy  :   -82.9078340 Eh     change       -0.1451136E-01 Eh
 * total energy  :   -82.9286036 Eh     change       -0.2076957E-01 Eh
 * total energy  :   -82.9474901 Eh     change       -0.1888651E-01 Eh
 * total energy  :   -82.9504897 Eh     change       -0.2999531E-02 Eh
 * total energy  :   -82.9601745 Eh     change       -0.9684852E-02 Eh
 * total energy  :   -82.9608021 Eh     change       -0.6275587E-03 Eh
 * total energy  :   -82.9614356 Eh     change       -0.6335588E-03 Eh
 * total energy  :   -82.9721598 Eh     change       -0.8935899E-05 Eh
 * total energy  :   -82.9721702 Eh     change       -0.1037961E-04 Eh
 * total energy  :   -82.9721854 Eh     change       -0.1528117E-04 Eh
 * total energy  :   -82.9722033 Eh     change       -0.1788599E-04 Eh
 * total energy  :   -82.9722136 Eh     change       -0.1025380E-04 Eh
 * total energy  :   -82.9722200 Eh     change       -0.6396741E-05 Eh
 * total energy  :   -82.9722258 Eh     change       -0.5788823E-05 Eh
 * total energy  :   -82.9722312 Eh     change       -0.5396653E-05 Eh
 * total energy  :   -82.9722354 Eh     change       -0.4243324E-05 Eh
   *** GEOMETRY OPTIMIZATION CONVERGED AFTER 106 ITERATIONS ***

 final structure:
================
42
 xtb: 6.5.1 (579679a)
C           -1.30857456430672        2.36829063716767        0.71838836323654
O           -2.33365040751658        1.55834060171920        1.29511974418851
C           -3.20402442753250        0.90824435452344        0.47749563497906
C           -4.58797970304962        0.85819294251435        1.07749130479689
O           -3.06319839223154        1.04502747994348       -0.88264278768809
C           -2.68088184464692       -0.24109657319187       -0.41838431808196
N           -1.29022452453156       -0.46221504198417       -0.36666008211623
C           -0.82691019550026       -1.64655906194597       -0.30036768104181
C            0.66724572053887       -1.88809771543215       -0.20296185877150
C            1.15033178455222       -2.70316642373878       -1.41128095724229
C            0.99677019978675       -2.59929155053150        1.11746596543895
N            1.29592547746388       -0.57369841917722       -0.22117258848287
C            2.61745039537012       -0.35356888215430       -0.09568365282751
O            3.47772301151804       -1.21019468876209        0.00839733858176
C            2.90020414750435        1.10684147791525       -0.09160082240555
N            2.01664146190534        2.05786346014312       -0.16104986524508
N            2.69985746990006        3.23504994538879       -0.10398516095346
C            3.95763289359585        2.92739931813487       -0.00173955351349
C            5.10991861057297        3.84973101589046        0.09781255418697
O            4.14665685791109        1.59937552848078        0.01121173698046
N           -1.63024848338666       -2.77113111751740       -0.31968119622233
C           -2.98051318906694       -2.75827395858150       -0.54163900746395
O           -3.63121300063824       -3.77758247671667       -0.59264132614024
C           -3.58075294356404       -1.36801039518271       -0.74331361556737
O           -4.73452117521108       -1.23712274356325       -1.08892784875739
H           -0.90907179044470        2.97435066800302        1.53098320498353
H           -0.51058177984158        1.75216213171215        0.29596486467491
H           -1.72144620907468        3.01133919745362       -0.06346516929858
H           -5.28811597530404        0.36264617573951        0.41143603007561
H           -4.91742904017633        1.88270239084073        1.24384572955489
H           -4.55071520216753        0.34350948088514        2.03502337281307
H            2.22742788429374       -2.84677272050161       -1.34364360225025
H            0.66651121473958       -3.67722327997564       -1.42375176914304
H            0.91648518660529       -2.17494410739087       -2.33438959920740
H            0.48955657066819       -3.56040275989961        1.16178368625380
H            2.07013822016896       -2.76761602135876        1.18357265118822
H            0.67782778910697       -1.98696324181929        1.95936014034576
H            0.67493908191499        0.22076282195016       -0.31598630900848
H            4.75646859887644        4.87774710530364        0.10534411407407
H            5.78113221648209        3.70059094626655       -0.74797238350425
H            5.66883477677522        3.64781319336539        1.01128627645803
H           -1.21563072206343       -3.68405269394530       -0.20864855788161

          :  Hamiltonian                  GFN1-xTB          :
         :: total energy             -82.972235411576 Eh    ::
         :: gradient norm              0.000397717775 Eh/a0 ::
         :: HOMO-LUMO gap              2.371454132496 eV    ::
         :: SCC energy               -83.736920897304 Eh    ::
         :: -> Gsolv                  -0.048803814787 Eh    ::
         :: repulsion energy           0.791529104785 Eh    ::

    * Orbital Energies and Occupations

         #    Occupation            Energy/Eh            Energy/eV
      -------------------------------------------------------------
         1        2.0000           -0.8653957             -23.5486
       ...           ...                  ...                  ...
        55        2.0000           -0.5115225             -13.9192
        56        2.0000           -0.5079208             -13.8212
        57        2.0000           -0.5070040             -13.7963
        58        2.0000           -0.5040650             -13.7163
        59        2.0000           -0.4868988             -13.2492
        60        2.0000           -0.4830515             -13.1445
        61        2.0000           -0.4741436             -12.9021
        62        2.0000           -0.4659329             -12.6787
        63        2.0000           -0.4626687             -12.5899
        64        2.0000           -0.4541576             -12.3583
        65        2.0000           -0.4525259             -12.3139
        66        2.0000           -0.4485558             -12.2058
        67        2.0000           -0.4389876             -11.9455 (HOMO)
        68                         -0.3518383              -9.5740 (LUMO)
        69                         -0.3117262              -8.4825
        70                         -0.2924401              -7.9577
        71                         -0.2585994              -7.0368
        72                         -0.2352639              -6.4019
        73                         -0.1997982              -5.4368
        74                         -0.1439071              -3.9159
        75                         -0.1429391              -3.8896
        76                         -0.1419490              -3.8626
        77                         -0.1299851              -3.5371
        78                         -0.1276619              -3.4739
       ...                                ...                  ...
       134                          0.7525007              20.4766
      -------------------------------------------------------------
                  HL-Gap            0.0871493 Eh            2.3715 eV

Wiberg/Mayer (AO) data.
largest (>0.10) Wiberg bond orders for each atom

     #   Z sym  total        # sym  WBO       # sym  WBO       # sym  WBO
 ---------------------------------------------------------------------------
     1   6 C    3.874 --    26 H    0.983    28 H    0.981    27 H    0.970
                             2 O    0.898
     2   8 O    2.096 --     3 C    1.027     1 C    0.898
     3   6 C    3.829 --     2 O    1.027     4 C    0.989     5 O    0.941
                             6 C    0.730
     4   6 C    3.982 --     3 C    0.989    31 H    0.979    29 H    0.977
                            30 H    0.969
     5   8 O    1.985 --     3 C    0.941     6 C    0.859
     6   6 C    3.846 --    24 C    1.036     7 N    1.034     5 O    0.859
                             3 C    0.730
     7   7 N    3.058 --     8 C    1.700     6 C    1.034
     8   6 C    3.926 --     7 N    1.700    21 N    1.093     9 C    0.981
     9   6 C    3.939 --     8 C    0.981    11 C    0.977    10 C    0.977
                            12 N    0.937
    10   6 C    3.986 --    34 H    0.985    33 H    0.983    32 H    0.978
                             9 C    0.977
    11   6 C    3.986 --    37 H    0.985    35 H    0.983     9 C    0.977
                            36 H    0.977
    12   7 N    3.353 --    13 C    1.260     9 C    0.937    38 H    0.876
                            14 O    0.180
    13   6 C    3.918 --    14 O    1.590    12 N    1.260    15 C    0.986
    14   8 O    1.910 --    13 C    1.590    12 N    0.180
    15   6 C    3.875 --    16 N    1.608    20 O    1.067    13 C    0.986
    16   7 N    3.031 --    15 C    1.608    17 N    1.199
    17   7 N    2.980 --    18 C    1.605    16 N    1.199
    18   6 C    3.870 --    17 N    1.605    20 O    1.082    19 C    1.032
    19   6 C    3.986 --    18 C    1.032    39 H    0.982    41 H    0.964
                            40 H    0.962
    20   8 O    2.332 --    18 C    1.082    15 C    1.067
    21   7 N    3.429 --    22 C    1.166     8 C    1.093    42 H    0.880
                            23 O    0.144
    22   6 C    3.891 --    23 O    1.671    21 N    1.166    24 C    0.921
    23   8 O    1.952 --    22 C    1.671    21 N    0.144
    24   6 C    3.888 --    25 O    1.738     6 C    1.036    22 C    0.921
    25   8 O    1.998 --    24 C    1.738
    26   1 H    1.011 --     1 C    0.983
    27   1 H    1.041 --     1 C    0.970
    28   1 H    1.007 --     1 C    0.981
    29   1 H    1.008 --     4 C    0.977
    30   1 H    0.997 --     4 C    0.969
    31   1 H    0.999 --     4 C    0.979
    32   1 H    1.006 --    10 C    0.978
    33   1 H    0.999 --    10 C    0.983
    34   1 H    1.001 --    10 C    0.985
    35   1 H    0.998 --    11 C    0.983
    36   1 H    1.007 --    11 C    0.977
    37   1 H    1.000 --    11 C    0.985
    38   1 H    0.968 --    12 N    0.876
    39   1 H    0.998 --    19 C    0.982
    40   1 H    0.996 --    19 C    0.962
    41   1 H    0.996 --    19 C    0.964
    42   1 H    0.927 --    21 N    0.880
 ---------------------------------------------------------------------------

           -------------------------------------------------
          | TOTAL ENERGY              -82.972235411576 Eh   |
          | GRADIENT NORM               0.000397717775 Eh/α |
          | HOMO-LUMO GAP               2.371454132496 eV   |
           -------------------------------------------------

 * finished run on 2023/06/21 at 17:40:55.020
