                         Program Version 5.0.1 -  RELEASE  -
|  1> # ORCA input file
|  2> ! SP r2SCAN-3c CPCM
|  3>
|  4> %maxcore 1875.0
|  5> %pal nprocs 4 end
|  6> %cpcm smd true SMDsolvent "DMSO" end
|  7>
|  8> *xyz -1 1
|  9> C       3.955535    0.363142    1.498135
| 10> O       2.674163   -0.066324    1.086735
| 11> C       2.341646    0.137315   -0.308330
| 12> C       2.188969    1.644831   -0.591572
| 13> O       3.334915   -0.377320   -1.132733
| 14> C       1.010441   -0.587371   -0.526130
| 15> N      -0.103646    0.090310   -0.109800
| 16> C      -1.263349   -0.462558   -0.249949
| 17> C      -2.520317    0.219674    0.252589
| 18> C      -2.625722   -0.009871    1.767361
| 19> C      -2.450619    1.722787   -0.052293
| 20> N      -3.679623   -0.397734   -0.392111
| 21> N      -1.398854   -1.713910   -0.786186
| 22> C      -0.356247   -2.484699   -1.248951
| 23> O      -0.593533   -3.599344   -1.729569
| 24> C       0.981598   -1.859151   -1.095731
| 25> O       2.027487   -2.490821   -1.488319
| 26> H       4.729112    0.086668    0.770055
| 27> H       3.992102    1.450109    1.655905
| 28> H       4.174007   -0.131481    2.448147
| 29> H       1.838324    1.776923   -1.613602
| 30> H       3.148032    2.146212   -0.480701
| 31> H       1.466328    2.078060    0.096764
| 32> H      -3.504891    0.495658    2.164240
| 33> H      -1.739071    0.383780    2.264373
| 34> H      -2.708012   -1.075929    1.979418
| 35> H      -3.318893    2.231640    0.361909
| 36> H      -1.544703    2.144498    0.384487
| 37> H      -2.428982    1.886017   -1.129147
| 38> H      -3.797495   -0.013792   -1.320133
| 39> H      -4.514241   -0.173201    0.128794
| 40> H      -2.337265   -2.079251   -0.875635
| 41> H       3.022807   -1.334867   -1.355417
| 42> **                         ****END OF INPUT****

CARTESIAN COORDINATES (ANGSTROEM)
---------------------------------
  C      3.955535    0.363142    1.498135
  O      2.674163   -0.066324    1.086735
  C      2.341646    0.137315   -0.308330
  C      2.188969    1.644831   -0.591572
  O      3.334915   -0.377320   -1.132733
  C      1.010441   -0.587371   -0.526130
  N     -0.103646    0.090310   -0.109800
  C     -1.263349   -0.462558   -0.249949
  C     -2.520317    0.219674    0.252589
  C     -2.625722   -0.009871    1.767361
  C     -2.450619    1.722787   -0.052293
  N     -3.679623   -0.397734   -0.392111
  N     -1.398854   -1.713910   -0.786186
  C     -0.356247   -2.484699   -1.248951
  O     -0.593533   -3.599344   -1.729569
  C      0.981598   -1.859151   -1.095731
  O      2.027487   -2.490821   -1.488319
  H      4.729112    0.086668    0.770055
  H      3.992102    1.450109    1.655905
  H      4.174007   -0.131481    2.448147
  H      1.838324    1.776923   -1.613602
  H      3.148032    2.146212   -0.480701
  H      1.466328    2.078060    0.096764
  H     -3.504891    0.495658    2.164240
  H     -1.739071    0.383780    2.264373
  H     -2.708012   -1.075929    1.979418
  H     -3.318893    2.231640    0.361909
  H     -1.544703    2.144498    0.384487
  H     -2.428982    1.886017   -1.129147
  H     -3.797495   -0.013792   -1.320133
  H     -4.514241   -0.173201    0.128794
  H     -2.337265   -2.079251   -0.875635
  H      3.022807   -1.334867   -1.355417

 Total Charge           Charge          ....   -1
 Multiplicity           Mult            ....    1
 Number of Electrons    NEL             ....  130
 Basis Dimension        Dim             ....  438

ORBITAL ENERGIES
----------------

  NO   OCC          E(Eh)            E(eV)
   0   2.0000     -18.926835      -515.0254
   1   2.0000     -18.903463      -514.3894
   2   2.0000     -18.893045      -514.1059
   3   2.0000     -18.876401      -513.6530
   4   2.0000     -14.188323      -386.0839
   5   2.0000     -14.133693      -384.5973
   6   2.0000     -14.131675      -384.5424
   7   2.0000     -10.109118      -275.0831
   8   2.0000     -10.103014      -274.9170
   9   2.0000     -10.078723      -274.2560
  10   2.0000     -10.069526      -274.0057
  11   2.0000     -10.058374      -273.7023
  12   2.0000     -10.047963      -273.4190
  13   2.0000     -10.029059      -272.9046
  14   2.0000     -10.012951      -272.4663
  15   2.0000     -10.007146      -272.3083
  16   2.0000      -9.998195      -272.0647
  17   2.0000      -0.994073       -27.0501
  18   2.0000      -0.982830       -26.7442
  19   2.0000      -0.937083       -25.4993
  20   2.0000      -0.925688       -25.1893
  21   2.0000      -0.911884       -24.8136
  22   2.0000      -0.855999       -23.2929
  23   2.0000      -0.838884       -22.8272
  24   2.0000      -0.730454       -19.8767
  25   2.0000      -0.698999       -19.0207
  26   2.0000      -0.672776       -18.3072
  27   2.0000      -0.648661       -17.6510
  28   2.0000      -0.634818       -17.2743
  29   2.0000      -0.598457       -16.2848
  30   2.0000      -0.595769       -16.2117
  31   2.0000      -0.529951       -14.4207
  32   2.0000      -0.519019       -14.1232
  33   2.0000      -0.487096       -13.2546
  34   2.0000      -0.481375       -13.0989
  35   2.0000      -0.458541       -12.4775
  36   2.0000      -0.446292       -12.1442
  37   2.0000      -0.436657       -11.8820
  38   2.0000      -0.412421       -11.2225
  39   2.0000      -0.408101       -11.1050
  40   2.0000      -0.400576       -10.9002
  41   2.0000      -0.393679       -10.7125
  42   2.0000      -0.373236       -10.1563
  43   2.0000      -0.365614        -9.9489
  44   2.0000      -0.363131        -9.8813
  45   2.0000      -0.357939        -9.7400
  46   2.0000      -0.350128        -9.5275
  47   2.0000      -0.347288        -9.4502
  48   2.0000      -0.343111        -9.3365
  49   2.0000      -0.334650        -9.1063
  50   2.0000      -0.329325        -8.9614
  51   2.0000      -0.321024        -8.7355
  52   2.0000      -0.315673        -8.5899
  53   2.0000      -0.305464        -8.3121
  54   2.0000      -0.297291        -8.0897
  55   2.0000      -0.293540        -7.9876
  56   2.0000      -0.262503        -7.1431
  57   2.0000      -0.242129        -6.5887
  58   2.0000      -0.236370        -6.4320
  59   2.0000      -0.219967        -5.9856
  60   2.0000      -0.216380        -5.8880
  61   2.0000      -0.206185        -5.6106
  62   2.0000      -0.205844        -5.6013
  63   2.0000      -0.172120        -4.6836
  64   2.0000      -0.144692        -3.9373
  65   0.0000      -0.022941        -0.6243
  66   0.0000      -0.000787        -0.0214
  67   0.0000       0.065678         1.7872
  68   0.0000       0.093706         2.5499
  69   0.0000       0.109973         2.9925

MULLIKEN ATOMIC CHARGES
-----------------------
   0 C :   -0.370371
   1 O :   -0.198383
   2 C :    0.010910
   3 C :   -0.587993
   4 O :   -0.449853
   5 C :    0.010537
   6 N :   -0.214388
   7 C :    0.220126
   8 C :    0.185449
   9 C :   -0.592182
  10 C :   -0.564975
  11 N :   -0.688596
  12 N :   -0.029753
  13 C :   -0.051414
  14 O :   -0.413735
  15 C :   -0.016242
  16 O :   -0.516407
  17 H :    0.166331
  18 H :    0.140786
  19 H :    0.152043
  20 H :    0.171644
  21 H :    0.163799
  22 H :    0.177133
  23 H :    0.173789
  24 H :    0.181699
  25 H :    0.175157
  26 H :    0.172500
  27 H :    0.171230
  28 H :    0.167260
  29 H :    0.285453
  30 H :    0.292566
  31 H :    0.293516
  32 H :    0.382364
Sum of atomic charges:   -1.0000000

LOEWDIN ATOMIC CHARGES
----------------------
   0 C :   -0.087513
   1 O :   -0.714204
   2 C :    0.299117
   3 C :   -0.360098
   4 O :   -0.579847
   5 C :    0.157717
   6 N :   -0.614881
   7 C :    0.306302
   8 C :    0.057093
   9 C :   -0.360539
  10 C :   -0.376731
  11 N :   -0.693966
  12 N :   -0.497316
  13 C :    0.345783
  14 O :   -0.511744
  15 C :    0.204535
  16 O :   -0.679266
  17 H :    0.169400
  18 H :    0.152852
  19 H :    0.171398
  20 H :    0.166485
  21 H :    0.162862
  22 H :    0.170301
  23 H :    0.163931
  24 H :    0.169378
  25 H :    0.168293
  26 H :    0.161110
  27 H :    0.169384
  28 H :    0.165301
  29 H :    0.252726
  30 H :    0.255398
  31 H :    0.300741
  32 H :    0.305999

  Mayer bond orders larger than 0.100000
B(  0-C ,  1-O ) :   0.8865 B(  0-C , 17-H ) :   0.9677 B(  0-C , 18-H ) :   0.9642
B(  0-C , 19-H ) :   0.9681 B(  1-O ,  2-C ) :   0.9412 B(  2-C ,  3-C ) :   0.9022
B(  2-C ,  4-O ) :   1.1000 B(  2-C ,  5-C ) :   0.9860 B(  3-C , 20-H ) :   0.9710
B(  3-C , 21-H ) :   0.9579 B(  3-C , 22-H ) :   0.9875 B(  4-O , 32-H ) :   0.6601
B(  5-C ,  6-N ) :   1.0538 B(  5-C , 15-C ) :   1.2374 B(  6-N ,  7-C ) :   1.5943
B(  7-C ,  8-C ) :   0.8544 B(  7-C , 12-N ) :   1.1463 B(  8-C ,  9-C ) :   0.9113
B(  8-C , 10-C ) :   0.9677 B(  8-C , 11-N ) :   0.9287 B(  9-C , 23-H ) :   0.9615
B(  9-C , 24-H ) :   0.9768 B(  9-C , 25-H ) :   0.9699 B( 10-C , 26-H ) :   0.9727
B( 10-C , 27-H ) :   0.9699 B( 10-C , 28-H ) :   0.9700 B( 11-N , 29-H ) :   0.9097
B( 11-N , 30-H ) :   0.9091 B( 12-N , 13-C ) :   1.0585 B( 12-N , 31-H ) :   0.8604
B( 13-C , 14-O ) :   2.0849 B( 13-C , 15-C ) :   0.9847 B( 15-C , 16-O ) :   1.5284
B( 16-O , 32-H ) :   0.2090

Dispersion correction           -0.013634722
FINAL SINGLE POINT ENERGY      -855.865700569788

DIPOLE MOMENT
-------------
                                X             Y             Z
Electronic contribution:      3.05988     -14.15249      -7.69856
Nuclear contribution   :     -6.84177      17.79076       9.53195
                        -----------------------------------------
Total Dipole Moment    :     -3.78190       3.63826       1.83339
                        -----------------------------------------
Magnitude (a.u.)       :      5.55887
Magnitude (Debye)      :     14.12952

Rotational constants in cm-1:     0.022382     0.011595     0.008706
Rotational constants in MHz :   670.983111   347.618716   260.996313

                             ****ORCA TERMINATED NORMALLY****
TOTAL RUN TIME: 0 days 0 hours 1 minutes 7 seconds 74 msec
