   * xtb version 6.5.1 (579679a) compiled by 'ehlert@majestix' on 2022-07-11
          program call               : /lustre/hpc/kemi/ree/PhD/git/ReactivityQM/dep/xtb-6.5.1/bin/xtb --gfn 1 /lustre/hpc/kemi/ree/PhD/git/ReactivityQM/calculations/R01/reac02prodE01/conf10/R01_reac02prodE01_conf10_gfn1.xyz --opt --vfukui --chrg -1 --uhf 0 --alpb DMSO

   ID    Z sym.   atoms
    1    6 C      1, 3, 4, 6, 8-11, 14, 16
    2    8 O      2, 5, 15, 17
    3    7 N      7, 12, 13
    4    1 H      18-33

      * Solvation model:               ALPB
        Solvent                        DMSO
        Solvent mass                       7.8130E+01 g/mol
          :  Hamiltonian                  GFN1-xTB          :
 * total energy  :   -58.5445023 Eh     change       -0.4874323E-11 Eh
 * total energy  :   -58.5516341 Eh     change       -0.7131827E-02 Eh
 * total energy  :   -58.5543756 Eh     change       -0.2741420E-02 Eh
 * total energy  :   -58.5558607 Eh     change       -0.1485121E-02 Eh
 * total energy  :   -58.5577362 Eh     change       -0.1875553E-02 Eh
 * total energy  :   -58.5595940 Eh     change       -0.1857753E-02 Eh
 * total energy  :   -58.5613448 Eh     change       -0.1750862E-02 Eh
 * total energy  :   -58.5636981 Eh     change       -0.2353245E-02 Eh
 * total energy  :   -58.5651734 Eh     change       -0.1475282E-02 Eh
 * total energy  :   -58.5668403 Eh     change       -0.1666944E-02 Eh
 * total energy  :   -58.5780208 Eh     change       -0.6324484E-04 Eh
 * total energy  :   -58.5780559 Eh     change       -0.3510204E-04 Eh
 * total energy  :   -58.5780722 Eh     change       -0.1628157E-04 Eh
 * total energy  :   -58.5780917 Eh     change       -0.1948486E-04 Eh
 * total energy  :   -58.5781052 Eh     change       -0.1349967E-04 Eh
 * total energy  :   -58.5781223 Eh     change       -0.1715185E-04 Eh
 * total energy  :   -58.5781290 Eh     change       -0.6615407E-05 Eh
 * total energy  :   -58.5781332 Eh     change       -0.4222937E-05 Eh
 * total energy  :   -58.5781364 Eh     change       -0.3270245E-05 Eh
   *** GEOMETRY OPTIMIZATION CONVERGED AFTER 40 ITERATIONS ***

 final structure:
================
33
 xtb: 6.5.1 (579679a)
C            3.95553534890672        0.36314209019529        1.49813516931998
O            2.67416252218844       -0.06632387965011        1.08673533720092
C            2.34164598872098        0.13731514895057       -0.30832952176983
C            2.18896887844357        1.64483114876727       -0.59157218092220
O            3.33491509047333       -0.37731955296824       -1.13273256320984
C            1.01044065841953       -0.58737101723933       -0.52613029394468
N           -0.10364630335639        0.09031032373086       -0.10980028618095
C           -1.26334932156451       -0.46255841712257       -0.24994873077986
C           -2.52031683146023        0.21967409265467        0.25258894052665
C           -2.62572190951075       -0.00987093713462        1.76736074074233
C           -2.45061899436850        1.72278706492121       -0.05229258755583
N           -3.67962297455820       -0.39773378892745       -0.39211142599716
N           -1.39885432359933       -1.71390994938385       -0.78618582769793
C           -0.35624744895148       -2.48469919941929       -1.24895065635700
O           -0.59353280210789       -3.59934396919572       -1.72956854761294
C            0.98159849216255       -1.85915102693636       -1.09573114728093
O            2.02748670548435       -2.49082090385265       -1.48831875682519
H            4.72911220060228        0.08666781853274        0.77005492896413
H            3.99210200207555        1.45010851526082        1.65590472190927
H            4.17400685495040       -0.13148085331592        2.44814738498855
H            1.83832448722663        1.77692269888367       -1.61360180041858
H            3.14803223213434        2.14621164188197       -0.48070055511712
H            1.46632845137436        2.07806011298320        0.09676436085417
H           -3.50489144918100        0.49565770595993        2.16423956438674
H           -1.73907103802300        0.38378017903353        2.26437321722839
H           -2.70801222098788       -1.07592884694965        1.97941752891583
H           -3.31889296010970        2.23163965124604        0.36190856781261
H           -1.54470311340477        2.14449760061866        0.38448682499827
H           -2.42898209287394        1.88601707866110       -1.12914665329291
H           -3.79749494446807       -0.01379220553369       -1.32013305845536
H           -4.51424134960374       -0.17320114265180        0.12879350274376
H           -2.33726477710814       -2.07925100493714       -0.87563498782824
H            3.02280694207415       -1.33486717706321       -1.35541720934540

          :  Hamiltonian                  GFN1-xTB          :
         :: total energy             -58.578136444795 Eh    ::
         :: gradient norm              0.000524164469 Eh/a0 ::
         :: HOMO-LUMO gap              2.921882667509 eV    ::
         :: SCC energy               -59.109132386786 Eh    ::
         :: -> Gsolv                  -0.110792824105 Eh    ::
         :: repulsion energy           0.549949713987 Eh    ::

    * Orbital Energies and Occupations

         #    Occupation            Energy/Eh            Energy/eV
      -------------------------------------------------------------
         1        2.0000           -0.7841687             -21.3383
       ...           ...                  ...                  ...
        36        2.0000           -0.4837153             -13.1626
        37        2.0000           -0.4774578             -12.9923
        38        2.0000           -0.4717036             -12.8357
        39        2.0000           -0.4654561             -12.6657
        40        2.0000           -0.4480744             -12.1927
        41        2.0000           -0.4407658             -11.9938
        42        2.0000           -0.4345783             -11.8255
        43        2.0000           -0.4261249             -11.5954
        44        2.0000           -0.4217400             -11.4761
        45        2.0000           -0.4090306             -11.1303
        46        2.0000           -0.3993979             -10.8682
        47        2.0000           -0.3626773              -9.8690
        48        2.0000           -0.3462996              -9.4233 (HOMO)
        49                         -0.2389223              -6.5014 (LUMO)
        50                         -0.2241377              -6.0991
        51                         -0.1187844              -3.2323
        52                         -0.1144600              -3.1146
        53                         -0.1120995              -3.0504
        54                         -0.1091456              -2.9700
        55                         -0.0987708              -2.6877
        56                         -0.0901272              -2.4525
        57                         -0.0711876              -1.9371
        58                         -0.0600055              -1.6328
        59                         -0.0587587              -1.5989
       ...                                ...                  ...
       100                          0.7293258              19.8460
      -------------------------------------------------------------
                  HL-Gap            0.1073772 Eh            2.9219 eV

Wiberg/Mayer (AO) data.
largest (>0.10) Wiberg bond orders for each atom

     #   Z sym  total        # sym  WBO       # sym  WBO       # sym  WBO
 ---------------------------------------------------------------------------
     1   6 C    3.924 --    20 H    0.984    19 H    0.982    18 H    0.979
                             2 O    0.955
     2   8 O    1.978 --     1 C    0.955     3 C    0.883
     3   6 C    3.862 --     5 O    0.997     4 C    0.976     6 C    0.959
                             2 O    0.883
     4   6 C    3.996 --    21 H    0.987    23 H    0.987    22 H    0.985
                             3 C    0.976
     5   8 O    1.877 --     3 C    0.997    33 H    0.713
     6   6 C    3.938 --    16 C    1.399     7 N    1.214     3 C    0.959
                            17 O    0.139
     7   7 N    3.028 --     8 C    1.562     6 C    1.214
     8   6 C    3.931 --     7 N    1.562    13 N    1.139     9 C    0.978
     9   6 C    3.967 --    11 C    0.988    10 C    0.985    12 N    0.982
                             8 C    0.978
    10   6 C    3.994 --    26 H    0.986    25 H    0.986    24 H    0.985
                             9 C    0.985
    11   6 C    3.995 --     9 C    0.988    27 H    0.987    29 H    0.985
                            28 H    0.983
    12   7 N    2.976 --     9 C    0.982    30 H    0.945    31 H    0.944
    13   7 N    3.442 --    14 C    1.142     8 C    1.139    32 H    0.890
                            15 O    0.128
    14   6 C    3.890 --    15 O    1.527    13 N    1.142    16 C    1.033
    15   8 O    1.820 --    14 C    1.527    13 N    0.128
    16   6 C    3.957 --     6 C    1.399    17 O    1.334    14 C    1.033
    17   8 O    1.820 --    16 C    1.334    33 H    0.162     6 C    0.139
    18   1 H    1.022 --     1 C    0.979
    19   1 H    1.016 --     1 C    0.982
    20   1 H    1.021 --     1 C    0.984
    21   1 H    1.013 --     4 C    0.987
    22   1 H    1.007 --     4 C    0.985
    23   1 H    1.021 --     4 C    0.987
    24   1 H    1.002 --    10 C    0.985
    25   1 H    1.008 --    10 C    0.986
    26   1 H    1.006 --    10 C    0.986
    27   1 H    1.004 --    11 C    0.987
    28   1 H    1.016 --    11 C    0.983
    29   1 H    1.007 --    11 C    0.985
    30   1 H    0.960 --    12 N    0.945
    31   1 H    0.959 --    12 N    0.944
    32   1 H    0.968 --    13 N    0.890
    33   1 H    0.888 --     5 O    0.713    17 O    0.162
 ---------------------------------------------------------------------------

           -------------------------------------------------
          | TOTAL ENERGY              -58.578136444795 Eh   |
          | GRADIENT NORM               0.000524164469 Eh/α |
          | HOMO-LUMO GAP               2.921882667509 eV   |
           -------------------------------------------------

 * finished run on 2023/06/20 at 14:57:26.477
