   * xtb version 6.5.1 (579679a) compiled by 'ehlert@majestix' on 2022-07-11
          program call               : /lustre/hpc/kemi/ree/PhD/git/ReactivityQM/dep/xtb-6.5.1/bin/xtb --gfn 1 /lustre/hpc/kemi/ree/PhD/git/ReactivityQM/calculations/R02oxygendeprot/reac01/conf11/R02oxygendeprot_reac01_conf11_gfn1.xyz --opt --vfukui --chrg -1 --uhf 0 --alpb DMSO

   ID    Z sym.   atoms
    1    6 C      1, 3, 5, 7-10, 12, 14, 17, 18, 21, 23
    2    8 O      2, 4, 13, 19, 22, 24
    3    7 N      6, 11, 15, 16, 20
    4    1 H      25-38

      * Solvation model:               ALPB
        Solvent                        DMSO
        Solvent mass                       7.8130E+01 g/mol
          :  Hamiltonian                  GFN1-xTB          :
 * total energy  :   -79.6023324 Eh     change       -0.3787193E-10 Eh
 * total energy  :   -79.6146504 Eh     change       -0.1231806E-01 Eh
 * total energy  :   -79.6189683 Eh     change       -0.4317817E-02 Eh
 * total energy  :   -79.6198527 Eh     change       -0.8844432E-03 Eh
 * total energy  :   -79.6205290 Eh     change       -0.6762870E-03 Eh
 * total energy  :   -79.6208265 Eh     change       -0.2974912E-03 Eh
 * total energy  :   -79.6210010 Eh     change       -0.1745508E-03 Eh
 * total energy  :   -79.6211026 Eh     change       -0.1015199E-03 Eh
 * total energy  :   -79.6211671 Eh     change       -0.6452535E-04 Eh
 * total energy  :   -79.6212211 Eh     change       -0.5399428E-04 Eh
 * total energy  :   -79.6216018 Eh     change       -0.1139057E-04 Eh
 * total energy  :   -79.6216104 Eh     change       -0.8524906E-05 Eh
 * total energy  :   -79.6216175 Eh     change       -0.7100740E-05 Eh
 * total energy  :   -79.6216261 Eh     change       -0.8598171E-05 Eh
 * total energy  :   -79.6216345 Eh     change       -0.8442443E-05 Eh
 * total energy  :   -79.6216419 Eh     change       -0.7398261E-05 Eh
 * total energy  :   -79.6216510 Eh     change       -0.9082989E-05 Eh
 * total energy  :   -79.6216577 Eh     change       -0.6704079E-05 Eh
 * total energy  :   -79.6216620 Eh     change       -0.4330236E-05 Eh
   *** GEOMETRY OPTIMIZATION CONVERGED AFTER 29 ITERATIONS ***

 final structure:
================
38
 xtb: 6.5.1 (579679a)
C           -5.39235834314068        2.32755207154139        1.23268792054254
O           -4.29673215667308        1.51710902490091        0.83195372449198
C           -4.43002695250592        0.90196200671675       -0.38374035452602
O           -5.44094968207536        1.06676813110973       -1.04840149534952
C           -3.27397574924606        0.09116809589487       -0.72737213257526
N           -2.25637328664288        0.08610197067958        0.20875408575993
C           -1.19215851268929       -0.59601592268739        0.00954377572939
C           -0.08104391159124       -0.62666834188418        1.03775182615183
C           -0.32724025792412        0.44593096688397        2.10258741833614
C           -0.00906430103560       -2.02387522363819        1.67090583627698
N            1.17482524124047       -0.33957967710112        0.32596267464370
C            2.38587450310055       -0.33124059380145        0.91196068572748
O            2.61849422773712       -0.58157235714870        2.08256911917347
C            3.44467149197774        0.02400110220270       -0.07276235434576
N            3.25666079448824        0.33544602681830       -1.31974830506014
N            4.48589612330427        0.58180774935145       -1.85409621143148
C            5.34602053558049        0.40308256357657       -0.89841124623293
C            6.81766288357125        0.53619913376062       -0.97159537610980
O            4.75075197666216        0.05136376977935        0.25076433460239
N           -1.01178910699616       -1.35585117881027       -1.13148957636902
C           -1.93339211967184       -1.43813538545298       -2.14545970194612
O           -1.69412627954231       -2.13255310167815       -3.12975975267413
C           -3.20254746873010       -0.63851548897905       -1.94462960225050
O           -4.07543493601759       -0.67465372053284       -2.82923920506774
H           -5.14158879564603        2.74328849474444        2.20767964947340
H           -5.55746257175235        3.13957960846820        0.51689661276306
H           -6.30840638157220        1.73259073948668        1.30960022238802
H           -1.29314651239404        0.26801817043558        2.57341517719066
H            0.45299865317688        0.41260527746559        2.86013425236928
H           -0.33926873110962        1.43267126588868        1.64144110231226
H           -0.97566271317283       -2.27021587152115        2.10814696523509
H            0.74852028769426       -2.05120653729632        2.45142891020490
H            0.23718157676720       -2.76670482283359        0.91406918681060
H            1.12224086607104       -0.06674186054933       -0.64500783637859
H            7.17778738632454        1.16347350148231       -0.15666568274972
H            7.09840320275979        0.97413667464377       -1.92656926027611
H            7.28495257302952       -0.44466333785349       -0.87419053767971
H           -0.17019455335578       -1.89666492406177       -1.24007084915926

          :  Hamiltonian                  GFN1-xTB          :
         :: total energy             -79.621662022257 Eh    ::
         :: gradient norm              0.000996540737 Eh/a0 ::
         :: HOMO-LUMO gap              1.685287704924 eV    ::
         :: SCC energy               -80.349027451809 Eh    ::
         :: -> Gsolv                  -0.123900827059 Eh    ::
         :: repulsion energy           0.750133136670 Eh    ::

    * Orbital Energies and Occupations

         #    Occupation            Energy/Eh            Energy/eV
      -------------------------------------------------------------
         1        2.0000           -0.8600906             -23.4043
       ...           ...                  ...                  ...
        52        2.0000           -0.4846677             -13.1885
        53        2.0000           -0.4784654             -13.0197
        54        2.0000           -0.4654672             -12.6660
        55        2.0000           -0.4597917             -12.5116
        56        2.0000           -0.4564687             -12.4211
        57        2.0000           -0.4557024             -12.4003
        58        2.0000           -0.4474475             -12.1757
        59        2.0000           -0.4409952             -12.0001
        60        2.0000           -0.4401909             -11.9782
        61        2.0000           -0.4375573             -11.9065
        62        2.0000           -0.4181109             -11.3774
        63        2.0000           -0.3786379             -10.3033
        64        2.0000           -0.3668444              -9.9823 (HOMO)
        65                         -0.3049112              -8.2971 (LUMO)
        66                         -0.2711280              -7.3778
        67                         -0.2536664              -6.9026
        68                         -0.2410102              -6.5582
        69                         -0.1973331              -5.3697
        70                         -0.1932481              -5.2585
        71                         -0.1407677              -3.8305
        72                         -0.1224021              -3.3307
        73                         -0.1181054              -3.2138
        74                         -0.1136440              -3.0924
        75                         -0.1090777              -2.9682
       ...                                ...                  ...
       124                          0.7661799              20.8488
      -------------------------------------------------------------
                  HL-Gap            0.0619332 Eh            1.6853 eV

Wiberg/Mayer (AO) data.
largest (>0.10) Wiberg bond orders for each atom

     #   Z sym  total        # sym  WBO       # sym  WBO       # sym  WBO
 ---------------------------------------------------------------------------
     1   6 C    3.899 --    25 H    0.987    26 H    0.980    27 H    0.980
                             2 O    0.927
     2   8 O    2.137 --     3 C    1.025     1 C    0.927     4 O    0.109
     3   6 C    3.850 --     4 O    1.594     5 C    1.118     2 O    1.025
     4   8 O    1.869 --     3 C    1.594     2 O    0.109
     5   6 C    3.915 --    23 C    1.266     6 N    1.154     3 C    1.118
                            24 O    0.130
     6   7 N    3.030 --     7 C    1.637     5 C    1.154
     7   6 C    3.933 --     6 N    1.637    20 N    1.088     8 C    0.978
     8   6 C    3.930 --     9 C    0.994    10 C    0.983     7 C    0.978
                            11 N    0.911
     9   6 C    3.992 --     8 C    0.994    30 H    0.985    28 H    0.984
                            29 H    0.984
    10   6 C    3.990 --    31 H    0.986    33 H    0.984     8 C    0.983
                            32 H    0.980
    11   7 N    3.353 --    12 C    1.267     8 C    0.911    34 H    0.896
                            13 O    0.181
    12   6 C    3.919 --    13 O    1.586    11 N    1.267    14 C    0.984
    13   8 O    1.904 --    12 C    1.586    11 N    0.181
    14   6 C    3.873 --    15 N    1.613    19 O    1.063    12 C    0.984
    15   7 N    3.016 --    14 C    1.613    16 N    1.197
    16   7 N    2.980 --    17 C    1.608    15 N    1.197
    17   6 C    3.872 --    16 N    1.608    19 O    1.082    18 C    1.031
    18   6 C    3.987 --    17 C    1.031    36 H    0.982    35 H    0.968
                            37 H    0.960
    19   8 O    2.329 --    17 C    1.082    14 C    1.063
    20   7 N    3.422 --    21 C    1.157     7 C    1.088    38 H    0.898
                            22 O    0.135
    21   6 C    3.876 --    22 O    1.581    20 N    1.157    23 C    0.966
    22   8 O    1.859 --    21 C    1.581    20 N    0.135
    23   6 C    3.942 --    24 O    1.527     5 C    1.266    21 C    0.966
    24   8 O    1.831 --    23 C    1.527     5 C    0.130
    25   1 H    1.016 --     1 C    0.987
    26   1 H    1.014 --     1 C    0.980
    27   1 H    1.014 --     1 C    0.980
    28   1 H    1.013 --     9 C    0.984
    29   1 H    1.009 --     9 C    0.984
    30   1 H    1.009 --     9 C    0.985
    31   1 H    1.004 --    10 C    0.986
    32   1 H    1.010 --    10 C    0.980
    33   1 H    1.003 --    10 C    0.984
    34   1 H    0.956 --    11 N    0.896
    35   1 H    0.997 --    18 C    0.968
    36   1 H    0.999 --    18 C    0.982
    37   1 H    0.997 --    18 C    0.960
    38   1 H    0.945 --    20 N    0.898
 ---------------------------------------------------------------------------

           -------------------------------------------------
          | TOTAL ENERGY              -79.621662022257 Eh   |
          | GRADIENT NORM               0.000996540737 Eh/α |
          | HOMO-LUMO GAP               1.685287704924 eV   |
           -------------------------------------------------

 * finished run on 2023/06/21 at 17:00:44.292
