                         Program Version 5.0.1 -  RELEASE  -
|  1> # ORCA input file
|  2> ! SP r2SCAN-3c CPCM
|  3>
|  4> %maxcore 1875.0
|  5> %pal nprocs 4 end
|  6> %cpcm smd true SMDsolvent "DMSO" end
|  7>
|  8> *xyz -2 1
|  9> C       3.780381    2.923359   -2.070004
| 10> O       3.637961    1.733356   -1.330122
| 11> C       2.337309    1.501179   -0.821207
| 12> O       1.444835    2.335971   -1.100277
| 13> C       2.215550    0.343700   -0.053962
| 14> N       0.938723    0.019544    0.382512
| 15> C       0.750414   -1.031256    1.112118
| 16> C      -0.678723   -1.369331    1.533435
| 17> C      -0.830634   -1.145167    3.046401
| 18> C      -0.989797   -2.830241    1.178400
| 19> N      -1.563499   -0.467226    0.799696
| 20> C      -2.898467   -0.463072    0.861567
| 21> O      -3.589750   -1.205061    1.559927
| 22> C      -3.479931    0.565621   -0.036628
| 23> N      -2.817827    1.393203   -0.795781
| 24> N      -3.743920    2.149676   -1.456836
| 25> C      -4.906640    1.738879   -1.063567
| 26> C      -6.231805    2.239437   -1.494096
| 27> O      -4.817067    0.741514   -0.166448
| 28> N       1.697188   -1.863983    1.652605
| 29> C       2.964221   -1.652266    1.335307
| 30> O       3.926757   -2.246364    1.878705
| 31> C       3.341709   -0.629616    0.215839
| 32> C       3.691560   -1.449471   -1.052343
| 33> O       4.531590    0.035036    0.667968
| 34> H       4.820360    2.985738   -2.397272
| 35> H       3.128815    2.932282   -2.954684
| 36> H       3.544335    3.809168   -1.463957
| 37> H      -0.672626   -0.093466    3.286537
| 38> H      -0.080257   -1.742683    3.564608
| 39> H      -1.821338   -1.441292    3.388863
| 40> H      -0.974187   -2.964818    0.096792
| 41> H      -1.966063   -3.128495    1.557763
| 42> H      -0.224405   -3.466643    1.623713
| 43> H      -1.079033    0.201274    0.193967
| 44> H      -6.783093    2.629612   -0.639143
| 45> H      -6.101806    3.027242   -2.231561
| 46> H      -6.815247    1.428307   -1.928473
| 47> H       4.455578   -2.190574   -0.815305
| 48> H       4.071639   -0.787594   -1.830520
| 49> H       2.802115   -1.959892   -1.421641
| 50> H       4.985077   -0.605588    1.244991
| 51> **                         ****END OF INPUT****

CARTESIAN COORDINATES (ANGSTROEM)
---------------------------------
  C      3.780381    2.923359   -2.070004
  O      3.637961    1.733356   -1.330122
  C      2.337309    1.501179   -0.821207
  O      1.444835    2.335971   -1.100277
  C      2.215550    0.343700   -0.053962
  N      0.938723    0.019544    0.382512
  C      0.750414   -1.031256    1.112118
  C     -0.678723   -1.369331    1.533435
  C     -0.830634   -1.145167    3.046401
  C     -0.989797   -2.830241    1.178400
  N     -1.563499   -0.467226    0.799696
  C     -2.898467   -0.463072    0.861567
  O     -3.589750   -1.205061    1.559927
  C     -3.479931    0.565621   -0.036628
  N     -2.817827    1.393203   -0.795781
  N     -3.743920    2.149676   -1.456836
  C     -4.906640    1.738879   -1.063567
  C     -6.231805    2.239437   -1.494096
  O     -4.817067    0.741514   -0.166448
  N      1.697188   -1.863983    1.652605
  C      2.964221   -1.652266    1.335307
  O      3.926757   -2.246364    1.878705
  C      3.341709   -0.629616    0.215839
  C      3.691560   -1.449471   -1.052343
  O      4.531590    0.035036    0.667968
  H      4.820360    2.985738   -2.397272
  H      3.128815    2.932282   -2.954684
  H      3.544335    3.809168   -1.463957
  H     -0.672626   -0.093466    3.286537
  H     -0.080257   -1.742683    3.564608
  H     -1.821338   -1.441292    3.388863
  H     -0.974187   -2.964818    0.096792
  H     -1.966063   -3.128495    1.557763
  H     -0.224405   -3.466643    1.623713
  H     -1.079033    0.201274    0.193967
  H     -6.783093    2.629612   -0.639143
  H     -6.101806    3.027242   -2.231561
  H     -6.815247    1.428307   -1.928473
  H      4.455578   -2.190574   -0.815305
  H      4.071639   -0.787594   -1.830520
  H      2.802115   -1.959892   -1.421641
  H      4.985077   -0.605588    1.244991

 Total Charge           Charge          ....   -2
 Multiplicity           Mult            ....    1
 Number of Electrons    NEL             ....  186
 Basis Dimension        Dim             ....  615

ORBITAL ENERGIES
----------------

  NO   OCC          E(Eh)            E(eV)
   0   2.0000     -19.055293      -518.5209
   1   2.0000     -18.930514      -515.1255
   2   2.0000     -18.914019      -514.6766
   3   2.0000     -18.901078      -514.3245
   4   2.0000     -18.867830      -513.4198
   5   2.0000     -18.856634      -513.1151
   6   2.0000     -14.196112      -386.2959
   7   2.0000     -14.189813      -386.1244
   8   2.0000     -14.170981      -385.6120
   9   2.0000     -14.103310      -383.7706
  10   2.0000     -14.086676      -383.3180
  11   2.0000     -10.138226      -275.8751
  12   2.0000     -10.136562      -275.8299
  13   2.0000     -10.133795      -275.7546
  14   2.0000     -10.075473      -274.1676
  15   2.0000     -10.064139      -273.8591
  16   2.0000     -10.063621      -273.8451
  17   2.0000     -10.051281      -273.5093
  18   2.0000     -10.045656      -273.3562
  19   2.0000     -10.040610      -273.2189
  20   2.0000     -10.036415      -273.1047
  21   2.0000     -10.001422      -272.1525
  22   2.0000     -10.000019      -272.1143
  23   2.0000      -9.988817      -271.8095
  24   2.0000      -9.984868      -271.7021
  25   2.0000      -1.142068       -31.0772
  26   2.0000      -0.998261       -27.1641
  27   2.0000      -0.988214       -26.8907
  28   2.0000      -0.965185       -26.2640
  29   2.0000      -0.955388       -25.9974
  30   2.0000      -0.918943       -25.0057
  31   2.0000      -0.898080       -24.4380
  32   2.0000      -0.893162       -24.3042
  33   2.0000      -0.862842       -23.4791
  34   2.0000      -0.820798       -22.3351
  35   2.0000      -0.779610       -21.2143
  36   2.0000      -0.741882       -20.1876
  37   2.0000      -0.704194       -19.1621
  38   2.0000      -0.695646       -18.9295
  39   2.0000      -0.653566       -17.7844
  40   2.0000      -0.650297       -17.6955
  41   2.0000      -0.639192       -17.3933
  42   2.0000      -0.621940       -16.9239
  43   2.0000      -0.599349       -16.3091
  44   2.0000      -0.571768       -15.5586
  45   2.0000      -0.557274       -15.1642
  46   2.0000      -0.545617       -14.8470
  47   2.0000      -0.516754       -14.0616
  48   2.0000      -0.499524       -13.5927
  49   2.0000      -0.483516       -13.1571
  50   2.0000      -0.479466       -13.0469
  51   2.0000      -0.457766       -12.4564
  52   2.0000      -0.451745       -12.2926
  53   2.0000      -0.424712       -11.5570
  54   2.0000      -0.414453       -11.2778
  55   2.0000      -0.407208       -11.0807
  56   2.0000      -0.405274       -11.0281
  57   2.0000      -0.397890       -10.8271
  58   2.0000      -0.394909       -10.7460
  59   2.0000      -0.393105       -10.6969
  60   2.0000      -0.386487       -10.5168
  61   2.0000      -0.380872       -10.3640
  62   2.0000      -0.376469       -10.2442
  63   2.0000      -0.374028       -10.1778
  64   2.0000      -0.369885       -10.0651
  65   2.0000      -0.363015        -9.8781
  66   2.0000      -0.347169        -9.4470
  67   2.0000      -0.345503        -9.4016
  68   2.0000      -0.341681        -9.2976
  69   2.0000      -0.335190        -9.1210
  70   2.0000      -0.333941        -9.0870
  71   2.0000      -0.328624        -8.9423
  72   2.0000      -0.321721        -8.7545
  73   2.0000      -0.312797        -8.5116
  74   2.0000      -0.309478        -8.4213
  75   2.0000      -0.304800        -8.2940
  76   2.0000      -0.302636        -8.2351
  77   2.0000      -0.296867        -8.0782
  78   2.0000      -0.284500        -7.7416
  79   2.0000      -0.269336        -7.3290
  80   2.0000      -0.261147        -7.1062
  81   2.0000      -0.260259        -7.0820
  82   2.0000      -0.255072        -6.9409
  83   2.0000      -0.237151        -6.4532
  84   2.0000      -0.224965        -6.1216
  85   2.0000      -0.222066        -6.0427
  86   2.0000      -0.211250        -5.7484
  87   2.0000      -0.202539        -5.5114
  88   2.0000      -0.188766        -5.1366
  89   2.0000      -0.181141        -4.9291
  90   2.0000      -0.172618        -4.6972
  91   2.0000      -0.165809        -4.5119
  92   2.0000      -0.098080        -2.6689
  93   0.0000      -0.073840        -2.0093
  94   0.0000      -0.012374        -0.3367
  95   0.0000       0.004415         0.1201
  96   0.0000       0.061003         1.6600
  97   0.0000       0.067194         1.8284

MULLIKEN ATOMIC CHARGES
-----------------------
   0 C :   -0.356281
   1 O :   -0.176366
   2 C :    0.061312
   3 O :   -0.491055
   4 C :   -0.331788
   5 N :   -0.250917
   6 C :    0.369139
   7 C :   -0.122679
   8 C :   -0.669808
   9 C :   -0.668024
  10 N :    0.048601
  11 C :   -0.150919
  12 O :   -0.464261
  13 C :    0.375506
  14 N :   -0.149353
  15 N :   -0.317496
  16 C :    0.407906
  17 C :   -0.642579
  18 O :   -0.033484
  19 N :   -0.270305
  20 C :   -0.134903
  21 O :   -0.466427
  22 C :    0.378778
  23 C :   -0.686423
  24 O :   -0.461087
  25 H :    0.147368
  26 H :    0.147054
  27 H :    0.147920
  28 H :    0.173157
  29 H :    0.182921
  30 H :    0.182508
  31 H :    0.170471
  32 H :    0.184626
  33 H :    0.183476
  34 H :    0.306642
  35 H :    0.198783
  36 H :    0.203084
  37 H :    0.198125
  38 H :    0.156739
  39 H :    0.171478
  40 H :    0.159865
  41 H :    0.288696
Sum of atomic charges:   -2.0000000

LOEWDIN ATOMIC CHARGES
----------------------
   0 C :   -0.078107
   1 O :   -0.670228
   2 C :    0.343515
   3 O :   -0.591836
   4 C :    0.059907
   5 N :   -0.681968
   6 C :    0.263540
   7 C :    0.104856
   8 C :   -0.365569
   9 C :   -0.366886
  10 N :   -0.598370
  11 C :    0.370671
  12 O :   -0.486586
  13 C :    0.422474
  14 N :   -0.366725
  15 N :   -0.369786
  16 C :    0.370564
  17 C :   -0.319786
  18 O :   -0.367731
  19 N :   -0.662269
  20 C :    0.284068
  21 O :   -0.590370
  22 C :    0.156868
  23 C :   -0.387917
  24 O :   -0.604817
  25 H :    0.166834
  26 H :    0.160799
  27 H :    0.161495
  28 H :    0.165621
  29 H :    0.169034
  30 H :    0.166568
  31 H :    0.165571
  32 H :    0.167475
  33 H :    0.171790
  34 H :    0.313360
  35 H :    0.189844
  36 H :    0.189695
  37 H :    0.189711
  38 H :    0.155353
  39 H :    0.164039
  40 H :    0.155399
  41 H :    0.279899

  Mayer bond orders larger than 0.100000
B(  0-C ,  1-O ) :   0.8671 B(  0-C , 25-H ) :   0.9733 B(  0-C , 26-H ) :   0.9699
B(  0-C , 27-H ) :   0.9709 B(  1-O ,  2-C ) :   0.9732 B(  2-C ,  3-O ) :   1.8073
B(  2-C ,  4-C ) :   1.4150 B(  4-C ,  5-N ) :   1.0034 B(  4-C , 22-C ) :   0.8328
B(  5-N ,  6-C ) :   1.7265 B(  6-C ,  7-C ) :   0.7646 B(  6-C , 10-N ) :  -0.1287
B(  6-C , 19-N ) :   0.9388 B(  7-C ,  8-C ) :   0.8988 B(  7-C ,  9-C ) :   0.8916
B(  7-C , 10-N ) :   0.9434 B(  8-C , 28-H ) :   0.9800 B(  8-C , 29-H ) :   0.9717
B(  8-C , 30-H ) :   0.9672 B(  9-C , 31-H ) :   0.9802 B(  9-C , 32-H ) :   0.9713
B(  9-C , 33-H ) :   0.9665 B( 10-N , 11-C ) :   1.1978 B( 10-N , 34-H ) :   0.8245
B( 11-C , 12-O ) :   1.8965 B( 11-C , 13-C ) :   0.8559 B( 13-C , 14-N ) :   1.6730
B( 13-C , 18-O ) :   1.1193 B( 14-N , 15-N ) :   1.2100 B( 15-N , 16-C ) :   1.6248
B( 16-C , 17-C ) :   0.8321 B( 16-C , 18-O ) :   1.0709 B( 17-C , 35-H ) :   0.9429
B( 17-C , 36-H ) :   0.9906 B( 17-C , 37-H ) :   0.9444 B( 19-N , 20-C ) :   1.5391
B( 20-C , 21-O ) :   2.0099 B( 20-C , 22-C ) :   0.8183 B( 21-O , 22-C ) :  -0.1256
B( 22-C , 23-C ) :   0.7998 B( 22-C , 24-O ) :   0.9186 B( 23-C , 38-H ) :   0.9842
B( 23-C , 39-H ) :   0.9911 B( 23-C , 40-H ) :   0.9813 B( 24-O , 41-H ) :   0.8533

Dispersion correction           -0.019121502
FINAL SINGLE POINT ENERGY     -1268.870584951500

DIPOLE MOMENT
-------------
                                X             Y             Z
Electronic contribution:     -8.93600       3.62451       1.65621
Nuclear contribution   :      1.46953      -2.31018      -3.57713
                        -----------------------------------------
Total Dipole Moment    :     -7.46647       1.31433      -1.92091
                        -----------------------------------------
Magnitude (a.u.)       :      7.82084
Magnitude (Debye)      :     19.87900

Rotational constants in cm-1:     0.011348     0.004251     0.003237
Rotational constants in MHz :   340.196721   127.435634    97.047223

                             ****ORCA TERMINATED NORMALLY****
TOTAL RUN TIME: 0 days 0 hours 2 minutes 44 seconds 777 msec
