   * xtb version 6.5.1 (579679a) compiled by 'ehlert@majestix' on 2022-07-11
          program call               : /lustre/hpc/kemi/ree/PhD/git/ReactivityQM/dep/xtb-6.5.1/bin/xtb --gfn 1 /lustre/hpc/kemi/ree/PhD/git/ReactivityQM/calculations/R02deprot/reac01prodE14/conf07/R02deprot_reac01prodE14_conf07_gfn1.xyz --opt --vfukui --chrg -2 --uhf 0 --alpb DMSO

   ID    Z sym.   atoms
    1    6 C      1, 3, 5, 7-10, 12, 14, 17, 18, 21, 23, 24
    2    8 O      2, 4, 13, 19, 22, 25
    3    7 N      6, 11, 15, 16, 20
    4    1 H      26-42

      * Solvation model:               ALPB
        Solvent                        DMSO
        Solvent mass                       7.8130E+01 g/mol
          :  Hamiltonian                  GFN1-xTB          :
 * total energy  :   -83.5948507 Eh     change       -0.1364242E-11 Eh
 * total energy  :   -83.6173846 Eh     change       -0.2253400E-01 Eh
 * total energy  :   -83.6281643 Eh     change       -0.1077969E-01 Eh
 * total energy  :   -83.6307629 Eh     change       -0.2598525E-02 Eh
 * total energy  :   -83.6326809 Eh     change       -0.1918035E-02 Eh
 * total energy  :   -83.6334194 Eh     change       -0.7385538E-03 Eh
 * total energy  :   -83.6339206 Eh     change       -0.5011689E-03 Eh
 * total energy  :   -83.6342920 Eh     change       -0.3714117E-03 Eh
 * total energy  :   -83.6345301 Eh     change       -0.2380196E-03 Eh
 * total energy  :   -83.6346326 Eh     change       -0.1025616E-03 Eh
 * total energy  :   -83.6355135 Eh     change       -0.1056293E-04 Eh
 * total energy  :   -83.6355240 Eh     change       -0.1055945E-04 Eh
 * total energy  :   -83.6355364 Eh     change       -0.1235524E-04 Eh
 * total energy  :   -83.6355481 Eh     change       -0.1169207E-04 Eh
 * total energy  :   -83.6355555 Eh     change       -0.7404126E-05 Eh
 * total energy  :   -83.6355612 Eh     change       -0.5692638E-05 Eh
 * total energy  :   -83.6355667 Eh     change       -0.5524366E-05 Eh
 * total energy  :   -83.6355718 Eh     change       -0.5112700E-05 Eh
 * total energy  :   -83.6355759 Eh     change       -0.4069917E-05 Eh
   *** GEOMETRY OPTIMIZATION CONVERGED AFTER 38 ITERATIONS ***

 final structure:
================
42
 xtb: 6.5.1 (579679a)
C            3.78038101130649        2.92335917087848       -2.07000444098676
O            3.63796095055642        1.73335578594517       -1.33012236670260
C            2.33730908421781        1.50117888282872       -0.82120667006572
O            1.44483528568910        2.33597065944113       -1.10027695317770
C            2.21554959941091        0.34370007319101       -0.05396188018386
N            0.93872308854115        0.01954394632921        0.38251216915996
C            0.75041367871379       -1.03125604736969        1.11211774615136
C           -0.67872330123368       -1.36933066280248        1.53343488913983
C           -0.83063368608018       -1.14516673887033        3.04640133556652
C           -0.98979674471330       -2.83024098018011        1.17839977427712
N           -1.56349896964423       -0.46722613326115        0.79969621889264
C           -2.89846748818964       -0.46307211438009        0.86156684225745
O           -3.58974980207129       -1.20506079648625        1.55992706109911
C           -3.47993134354865        0.56562058898278       -0.03662793172677
N           -2.81782662248875        1.39320255450587       -0.79578097449720
N           -3.74391969714795        2.14967591715266       -1.45683587781185
C           -4.90664026347354        1.73887873102463       -1.06356706483207
C           -6.23180545466270        2.23943685910460       -1.49409629787786
O           -4.81706708682763        0.74151399087139       -0.16644809038205
N            1.69718777000025       -1.86398343486695        1.65260456133466
C            2.96422100066554       -1.65226551589953        1.33530663018909
O            3.92675676095968       -2.24636378897846        1.87870534714761
C            3.34170857024329       -0.62961628356999        0.21583874739849
C            3.69155958721289       -1.44947123111166       -1.05234311009394
O            4.53159026886046        0.03503576669703        0.66796769752120
H            4.82036025995773        2.98573766507214       -2.39727182519974
H            3.12881539346318        2.93228196351587       -2.95468396394039
H            3.54433475877574        3.80916824510745       -1.46395675020136
H           -0.67262624155394       -0.09346626899788        3.28653725941757
H           -0.08025746676165       -1.74268269112056        3.56460826487920
H           -1.82133823717892       -1.44129161943282        3.38886287642878
H           -0.97418675731688       -2.96481774166104        0.09679155987985
H           -1.96606328488044       -3.12849514618738        1.55776266724445
H           -0.22440531537471       -3.46664265455767        1.62371297883036
H           -1.07903306900535        0.20127429465758        0.19396749879856
H           -6.78309261626816        2.62961233372903       -0.63914296969200
H           -6.10180626465637        3.02724231277346       -2.23156140799215
H           -6.81524679853285        1.42830745268609       -1.92847318824847
H            4.45557760623062       -2.19057378137171       -0.81530544692789
H            4.07163876563546       -0.78759440651594       -1.83051988907519
H            2.80211508869946       -1.95989223662816       -1.42164103871407
H            4.98507698247127       -0.60558792024289        1.24499101271939

          :  Hamiltonian                  GFN1-xTB          :
         :: total energy             -83.635575895853 Eh    ::
         :: gradient norm              0.000382345191 Eh/a0 ::
         :: HOMO-LUMO gap              0.151609168097 eV    ::
         :: SCC energy               -84.368410129992 Eh    ::
         :: -> Gsolv                  -0.281727221131 Eh    ::
         :: repulsion energy           0.758664181032 Eh    ::

    * Orbital Energies and Occupations

         #    Occupation            Energy/Eh            Energy/eV
      -------------------------------------------------------------
         1        2.0000           -0.8413494             -22.8943
       ...           ...                  ...                  ...
        56        2.0000           -0.4377494             -11.9118
        57        2.0000           -0.4349464             -11.8355
        58        2.0000           -0.4283350             -11.6556
        59        2.0000           -0.4233850             -11.5209
        60        2.0000           -0.4213128             -11.4645
        61        2.0000           -0.4139267             -11.2635
        62        2.0000           -0.4096767             -11.1479
        63        2.0000           -0.3966974             -10.7947
        64        2.0000           -0.3812075             -10.3732
        65        2.0000           -0.3602868              -9.8039
        66        2.0000           -0.3558564              -9.6833
        67        2.0000           -0.3295404              -8.9672
        68        1.8988           -0.2894251              -7.8757 (HOMO)
        69        0.1012           -0.2838535              -7.7240 (LUMO)
        70                         -0.2386133              -6.4930
        71                         -0.2018720              -5.4932
        72                         -0.1697135              -4.6181
        73                         -0.1359318              -3.6989
        74                         -0.1351291              -3.6770
        75                         -0.1134445              -3.0870
        76                         -0.1040905              -2.8324
        77                         -0.0944315              -2.5696
        78                         -0.0923641              -2.5134
        79                         -0.0763934              -2.0788
       ...                                ...                  ...
       134                          0.7244716              19.7139
      -------------------------------------------------------------
                  HL-Gap            0.0055715 Eh            0.1516 eV

Wiberg/Mayer (AO) data.
largest (>0.10) Wiberg bond orders for each atom

     #   Z sym  total        # sym  WBO       # sym  WBO       # sym  WBO
 ---------------------------------------------------------------------------
     1   6 C    3.926 --    26 H    0.987    28 H    0.980    27 H    0.980
                             2 O    0.959
     2   8 O    2.063 --     1 C    0.959     3 C    0.918
     3   6 C    3.848 --     4 O    1.425     5 C    1.374     2 O    0.918
     4   8 O    1.719 --     3 C    1.425     5 C    0.119
     5   6 C    3.810 --     3 C    1.374     6 N    1.139    23 C    0.984
                             4 O    0.119
     6   7 N    3.042 --     7 C    1.573     5 C    1.139
     7   6 C    3.929 --     6 N    1.573    20 N    1.173     8 C    0.963
     8   6 C    3.920 --    10 C    0.987     9 C    0.983     7 C    0.963
                            11 N    0.918
     9   6 C    3.991 --    29 H    0.987    31 H    0.985    30 H    0.985
                             8 C    0.983
    10   6 C    3.992 --    32 H    0.987     8 C    0.987    33 H    0.985
                            34 H    0.983
    11   7 N    3.368 --    12 C    1.296     8 C    0.918    35 H    0.874
                            13 O    0.181
    12   6 C    3.898 --    13 O    1.526    11 N    1.296    14 C    0.999
    13   8 O    1.833 --    12 C    1.526    11 N    0.181
    14   6 C    3.821 --    15 N    1.584    19 O    1.041    12 C    0.999
    15   7 N    2.957 --    14 C    1.584    16 N    1.186
    16   7 N    2.980 --    17 C    1.622    15 N    1.186
    17   6 C    3.864 --    16 N    1.622    19 O    1.074    18 C    1.028
    18   6 C    3.990 --    17 C    1.028    37 H    0.984    38 H    0.967
                            36 H    0.966
    19   8 O    2.291 --    17 C    1.074    14 C    1.041
    20   7 N    2.926 --    21 C    1.395     7 C    1.173    22 O    0.134
    21   6 C    3.902 --    22 O    1.460    20 N    1.395    23 C    0.907
    22   8 O    1.773 --    21 C    1.460    20 N    0.134
    23   6 C    3.899 --     5 C    0.984    24 C    0.964    25 O    0.926
                            21 C    0.907
    24   6 C    3.990 --    41 H    0.988    39 H    0.987    40 H    0.985
                            23 C    0.964
    25   8 O    1.873 --    23 C    0.926    42 H    0.858
    26   1 H    1.021 --     1 C    0.987
    27   1 H    1.024 --     1 C    0.980
    28   1 H    1.023 --     1 C    0.980
    29   1 H    1.009 --     9 C    0.987
    30   1 H    1.020 --     9 C    0.985
    31   1 H    1.014 --     9 C    0.985
    32   1 H    1.009 --    10 C    0.987
    33   1 H    1.015 --    10 C    0.985
    34   1 H    1.024 --    10 C    0.983
    35   1 H    0.996 --    11 N    0.874
    36   1 H    0.999 --    18 C    0.966
    37   1 H    1.001 --    18 C    0.984
    38   1 H    0.999 --    18 C    0.967
    39   1 H    1.015 --    24 C    0.987
    40   1 H    1.022 --    24 C    0.985
    41   1 H    1.014 --    24 C    0.988
    42   1 H    0.914 --    25 O    0.858
 ---------------------------------------------------------------------------

           -------------------------------------------------
          | TOTAL ENERGY              -83.635575895853 Eh   |
          | GRADIENT NORM               0.000382345191 Eh/α |
          | HOMO-LUMO GAP               0.151609168097 eV   |
           -------------------------------------------------

 * finished run on 2023/06/20 at 18:04:34.536
