   * xtb version 6.5.1 (579679a) compiled by 'ehlert@majestix' on 2022-07-11
          program call               : /lustre/hpc/kemi/ree/PhD/git/ReactivityQM/dep/xtb-6.5.1/bin/xtb --gfn 1 /lustre/hpc/kemi/ree/PhD/git/ReactivityQM/calculations/R02methylcation/reac01prodE03/conf10/R02methylcation_reac01prodE03_conf10_gfn1.xyz --opt --vfukui --chrg -2 --uhf 0 --alpb DMSO

   ID    Z sym.   atoms
    1    6 C      1, 3, 5, 6, 8-11, 13, 15, 18, 19, 22, 24
    2    8 O      2, 4, 14, 20, 23, 25
    3    7 N      7, 12, 16, 17, 21
    4    1 H      26-42

      * Solvation model:               ALPB
        Solvent                        DMSO
        Solvent mass                       7.8130E+01 g/mol
          :  Hamiltonian                  GFN1-xTB          :
 * total energy  :   -83.5560986 Eh     change       -0.1207923E-11 Eh
 * total energy  :   -83.5701459 Eh     change       -0.1404730E-01 Eh
 * total energy  :   -83.5758871 Eh     change       -0.5741228E-02 Eh
 * total energy  :   -83.5772602 Eh     change       -0.1373155E-02 Eh
 * total energy  :   -83.5782189 Eh     change       -0.9586368E-03 Eh
 * total energy  :   -83.5786992 Eh     change       -0.4803150E-03 Eh
 * total energy  :   -83.5790658 Eh     change       -0.3665870E-03 Eh
 * total energy  :   -83.5793324 Eh     change       -0.2665978E-03 Eh
 * total energy  :   -83.5795010 Eh     change       -0.1686150E-03 Eh
 * total energy  :   -83.5796200 Eh     change       -0.1190521E-03 Eh
 * total energy  :   -83.5830047 Eh     change       -0.5596872E-04 Eh
 * total energy  :   -83.5830403 Eh     change       -0.3561878E-04 Eh
 * total energy  :   -83.5830664 Eh     change       -0.2611647E-04 Eh
 * total energy  :   -83.5830879 Eh     change       -0.2141954E-04 Eh
 * total energy  :   -83.5831006 Eh     change       -0.1276457E-04 Eh
 * total energy  :   -83.5831179 Eh     change       -0.1730466E-04 Eh
 * total energy  :   -83.5831255 Eh     change       -0.7600850E-05 Eh
 * total energy  :   -83.5831337 Eh     change       -0.8203174E-05 Eh
 * total energy  :   -83.5831372 Eh     change       -0.3430772E-05 Eh
   *** GEOMETRY OPTIMIZATION CONVERGED AFTER 79 ITERATIONS ***

 final structure:
================
42
 xtb: 6.5.1 (579679a)
C           -6.10488384333518        0.69613288714687        0.69230137850762
O           -5.11512820093240       -0.32503288271293        0.76521977610468
C           -3.96074735071217       -0.11378188143231        0.02977519541377
O           -4.02478237221903       -0.62298619526293       -1.27287545430423
C           -3.49648161330720       -1.92976304757609       -1.45529616438894
C           -2.80999755284757        0.48413766315717        0.51158473594661
N           -1.71109959810636        0.42241016382755       -0.34983692883437
C           -0.57735915624869        0.90885284749364        0.02945529293599
C            0.62367062492065        0.88790289366039       -0.90219888395400
C            0.37628224346707       -0.09937443474608       -2.05087400155513
C            0.83441732067952        2.30968764640625       -1.44818715047554
N            1.78086119072816        0.48212910073271       -0.09604670254024
C            3.02451490129317        0.24491036161041       -0.69971464229366
O            3.37344973612816        0.76444809775918       -1.77978463377445
C            3.83731898318341       -0.61051041173201        0.10751578756612
N            3.47123315936755       -1.19879405669545        1.25056252770537
N            4.53995699490504       -1.94809871528007        1.66073672563801
C            5.47779140923149       -1.79344104191356        0.78481558796171
C            6.82650833265451       -2.41279498237815        0.79815074392747
O            5.12714653861314       -0.96808011859498       -0.23017532815034
N           -0.39978379275124        1.49117859862215        1.24634072327525
C           -1.42799859326188        1.67151200224377        2.18500002559060
O           -1.13160713433974        2.25922158764858        3.25797109084768
C           -2.72492387630822        1.15659630287298        1.80323372338924
O           -3.74358130047691        1.30877514525819        2.56173281662762
H           -5.74739017053052        1.62354039369212        1.15836804411083
H           -6.38899607638425        0.90037451620620       -0.34754688882600
H           -6.98085345141399        0.33574892077533        1.23530663474585
H           -3.99881076034040       -2.65985587742185       -0.80768291188559
H           -3.66484976745686       -2.20454881100696       -2.49828458561171
H           -2.41762066676629       -1.94857672814052       -1.24911712179816
H            0.27105962334181       -1.11084538626297       -1.65860903149147
H            1.20228912255444       -0.07572472187328       -2.75967080863485
H           -0.54473309508104        0.16968231246949       -2.56763405242188
H            1.65850361873706        2.33363119170098       -2.15883293350236
H           -0.07308606800115        2.64367384756933       -1.95097565730434
H            1.05592363281370        2.99354453313113       -0.62924564773339
H            1.55562818064609       -0.21955413257117        0.60318505121132
H            6.93822762167033       -3.02225759131744        1.69169890479644
H            6.96565574210402       -3.03905714971050       -0.08346755195804
H            7.59833685452523       -1.64307692450747        0.78836928668722
H            0.50593960925645        1.85806507715223        1.49243102845039

          :  Hamiltonian                  GFN1-xTB          :
         :: total energy             -83.583137163666 Eh    ::
         :: gradient norm              0.000709399091 Eh/a0 ::
         :: HOMO-LUMO gap              0.042536071953 eV    ::
         :: SCC energy               -84.305069743322 Eh    ::
         :: -> Gsolv                  -0.267170737407 Eh    ::
         :: repulsion energy           0.747552469614 Eh    ::

    * Orbital Energies and Occupations

         #    Occupation            Energy/Eh            Energy/eV
      -------------------------------------------------------------
         1        2.0000           -0.8030680             -21.8526
       ...           ...                  ...                  ...
        56        2.0000           -0.4312431             -11.7347
        57        2.0000           -0.4266278             -11.6091
        58        2.0000           -0.4212779             -11.4636
        59        2.0000           -0.4100524             -11.1581
        60        2.0000           -0.4066253             -11.0648
        61        2.0000           -0.4062874             -11.0556
        62        2.0000           -0.4035536             -10.9813
        63        2.0000           -0.3991798             -10.8622
        64        2.0000           -0.3902289             -10.6187
        65        2.0000           -0.3786037             -10.3023
        66        2.0000           -0.3476977              -9.4613
        67        2.0000           -0.3423294              -9.3153
        68        1.3896           -0.2700582              -7.3487 (HOMO)
        69        0.6104           -0.2684950              -7.3061 (LUMO)
        70                         -0.2114993              -5.7552
        71                         -0.2075366              -5.6474
        72                         -0.1819756              -4.9518
        73                         -0.1423021              -3.8722
        74                         -0.1246599              -3.3922
        75                         -0.1128048              -3.0696
        76                         -0.1026343              -2.7928
        77                         -0.0976522              -2.6573
        78                         -0.0923507              -2.5130
        79                         -0.0764289              -2.0797
       ...                                ...                  ...
       134                          0.7278073              19.8046
      -------------------------------------------------------------
                  HL-Gap            0.0015632 Eh            0.0425 eV

Wiberg/Mayer (AO) data.
largest (>0.10) Wiberg bond orders for each atom

     #   Z sym  total        # sym  WBO       # sym  WBO       # sym  WBO
 ---------------------------------------------------------------------------
     1   6 C    3.906 --    28 H    0.987    27 H    0.984    26 H    0.978
                             2 O    0.928
     2   8 O    2.011 --     3 C    0.960     1 C    0.928
     3   6 C    3.538 --     6 C    1.459     2 O    0.960     4 O    0.935
     4   8 O    1.995 --     5 C    0.935     3 C    0.935
     5   6 C    3.911 --    30 H    0.986    29 H    0.983    31 H    0.980
                             4 O    0.935
     6   6 C    3.942 --     3 C    1.459    24 C    1.125     7 N    1.110
     7   7 N    2.975 --     8 C    1.574     6 C    1.110    21 N    0.110
     8   6 C    3.912 --     7 N    1.574    21 N    1.161     9 C    0.975
     9   6 C    3.949 --    10 C    0.991    11 C    0.985     8 C    0.975
                            12 N    0.938
    10   6 C    3.993 --     9 C    0.991    32 H    0.986    34 H    0.985
                            33 H    0.984
    11   6 C    3.991 --    36 H    0.988    37 H    0.986     9 C    0.985
                            35 H    0.980
    12   7 N    3.145 --    13 C    1.080     9 C    0.938    38 H    0.918
                            14 O    0.109
    13   6 C    3.751 --    14 O    1.455    15 C    1.149    12 N    1.080
    14   8 O    1.697 --    13 C    1.455    12 N    0.109
    15   6 C    3.697 --    16 N    1.398    13 C    1.149    20 O    0.980
    16   7 N    2.749 --    15 C    1.398    17 N    1.185
    17   7 N    2.980 --    18 C    1.628    16 N    1.185
    18   6 C    3.821 --    17 N    1.628    20 O    1.051    19 C    1.024
    19   6 C    3.994 --    18 C    1.024    39 H    0.986    41 H    0.971
                            40 H    0.970
    20   8 O    2.188 --    18 C    1.051    15 C    0.980
    21   7 N    3.388 --     8 C    1.161    22 C    1.042    42 H    0.907
                             7 N    0.110
    22   6 C    3.782 --    23 O    1.425    24 C    1.144    21 N    1.042
    23   8 O    1.653 --    22 C    1.425
    24   6 C    3.814 --    25 O    1.375    22 C    1.144     6 C    1.125
    25   8 O    1.602 --    24 C    1.375
    26   1 H    1.043 --     1 C    0.978
    27   1 H    1.017 --     1 C    0.984
    28   1 H    1.021 --     1 C    0.987
    29   1 H    1.016 --     5 C    0.983
    30   1 H    1.020 --     5 C    0.986
    31   1 H    1.032 --     5 C    0.980
    32   1 H    1.012 --    10 C    0.986
    33   1 H    1.014 --    10 C    0.984
    34   1 H    1.020 --    10 C    0.985
    35   1 H    1.022 --    11 C    0.980
    36   1 H    1.008 --    11 C    0.988
    37   1 H    1.009 --    11 C    0.986
    38   1 H    0.980 --    12 N    0.918
    39   1 H    1.004 --    19 C    0.986
    40   1 H    1.001 --    19 C    0.970
    41   1 H    1.001 --    19 C    0.971
    42   1 H    0.966 --    21 N    0.907
 ---------------------------------------------------------------------------

           -------------------------------------------------
          | TOTAL ENERGY              -83.583137163666 Eh   |
          | GRADIENT NORM               0.000709399091 Eh/α |
          | HOMO-LUMO GAP               0.042536071953 eV   |
           -------------------------------------------------

 * finished run on 2023/06/21 at 17:07:48.113
