   * xtb version 6.5.1 (579679a) compiled by 'ehlert@majestix' on 2022-07-11
          program call               : /lustre/hpc/kemi/ree/PhD/git/ReactivityQM/dep/xtb-6.5.1/bin/xtb --gfn 1 /lustre/hpc/kemi/ree/PhD/git/ReactivityQM/calculations/R02methylcation/reac01prodN15/conf03/R02methylcation_reac01prodN15_conf03_gfn1.xyz --opt --vfukui --chrg 0 --uhf 0 --alpb DMSO

   ID    Z sym.   atoms
    1    6 C      1, 3, 5, 7-10, 12, 14, 17, 18, 21, 23, 24
    2    8 O      2, 4, 13, 19, 22, 25
    3    7 N      6, 11, 15, 16, 20
    4    1 H      26-42

      * Solvation model:               ALPB
        Solvent                        DMSO
        Solvent mass                       7.8130E+01 g/mol
          :  Hamiltonian                  GFN1-xTB          :
 * total energy  :   -82.8961865 Eh     change       -0.2362128E-09 Eh
 * total energy  :   -82.9158231 Eh     change       -0.1963663E-01 Eh
 * total energy  :   -82.9343341 Eh     change       -0.1851097E-01 Eh
 * total energy  :   -82.9523405 Eh     change       -0.1800647E-01 Eh
 * total energy  :   -82.9755351 Eh     change       -0.2319460E-01 Eh
 * total energy  :   -82.8675540 Eh     change        0.1079811E+00 Eh
 * total energy  :   -82.9943543 Eh     change       -0.1268003E+00 Eh
 * total energy  :   -82.9985920 Eh     change       -0.4237695E-02 Eh
 * total energy  :   -83.0004994 Eh     change       -0.1907420E-02 Eh
 * total energy  :   -83.0015274 Eh     change       -0.1027918E-02 Eh
 * total energy  :   -83.0060461 Eh     change       -0.2656351E-04 Eh
 * total energy  :   -83.0060685 Eh     change       -0.2243607E-04 Eh
 * total energy  :   -83.0060819 Eh     change       -0.1339189E-04 Eh
 * total energy  :   -83.0060979 Eh     change       -0.1599686E-04 Eh
 * total energy  :   -83.0061078 Eh     change       -0.9893863E-05 Eh
 * total energy  :   -83.0061138 Eh     change       -0.6031387E-05 Eh
 * total energy  :   -83.0061197 Eh     change       -0.5897553E-05 Eh
 * total energy  :   -83.0061227 Eh     change       -0.2984860E-05 Eh
 * total energy  :   -83.0061258 Eh     change       -0.3108163E-05 Eh
   *** GEOMETRY OPTIMIZATION CONVERGED AFTER 44 ITERATIONS ***

 final structure:
================
42
 xtb: 6.5.1 (579679a)
C           -6.03321209671734        0.49282876586448        1.17852409435768
O           -4.90640388913878        0.54635528265997        0.29230373865272
C           -3.76262608267023        0.06762727529877        0.75090466172180
O           -3.60732913038168       -0.39754493326797        1.85123297281462
C           -2.62625144542224        0.17523674930920       -0.25575919263658
N           -1.60374898052497       -0.76772002170101        0.00006288205277
C           -0.47345404034183       -0.63250352177955       -0.57067528277853
C            0.57105071690050       -1.72146147025756       -0.43974434959747
C            0.21752305131622       -2.66189437799510        0.71602556124751
C            0.62126476456639       -2.47272806907500       -1.77931148180625
N            1.86135432294024       -1.07426668843818       -0.17826489823926
C            3.01930939809427       -1.76479293844682       -0.06946366619920
O            3.15157244453489       -2.96102696306734       -0.26017109566361
C            4.16351725639192       -0.89447627635213        0.29914279032236
N            5.39460578835651       -1.24672248821164        0.50326399045662
N            6.08216259938780       -0.11268664603406        0.81486585158007
C            5.22880757389318        0.86314250911679        0.78207506108312
C            5.48035917047901        2.29819887732877        1.03519903790703
O            3.99530181797308        0.43592746760304        0.46419909504242
N           -0.12636607019236        0.46395149566690       -1.33455539094067
C           -0.86476841324900        1.62376125237020       -1.36728602856448
O           -0.37372401511683        2.68271239222963       -1.69238646448883
C           -2.29949322968439        1.46201148948372       -0.95820558944309
C           -3.06332643125565        2.74904092499540       -0.75986405878510
O           -2.95814013464713        0.39379419682121       -1.59297632807728
H           -6.83293740674263        1.04798109566762        0.69432918228837
H           -6.33034353256955       -0.54575824565421        1.33605242528217
H           -5.77543960277648        0.94867511289306        2.13624815600486
H           -0.77245291791587       -3.08368607259052        0.55087389723273
H            0.21490257143981       -2.10989369567102        1.65455365342796
H            0.94608728205800       -3.46820109289868        0.77455826521811
H           -0.37138740801257       -2.85220109752629       -2.01740464498230
H            1.31506658897441       -3.30845193591345       -1.71667737309199
H            0.94482515514818       -1.79884470109520       -2.57032428515251
H            1.85782422064891       -0.11537512624261        0.12575757802223
H            6.51582618038871        2.44251718919827        1.33428040817439
H            5.27854423917129        2.87345899294888        0.13147092389088
H            4.81571617058253        2.66028318210907        1.81876598257989
H            0.83240920395146        0.55648358979145       -1.63435191441336
H           -2.84477251666574        3.42203427065021       -1.58879093483929
H           -2.74991687654195        3.22743642088151        0.16636855928409
H           -4.13193629663200        2.55677682932175       -0.72753578893859

          :  Hamiltonian                  GFN1-xTB          :
         :: total energy             -83.006125831833 Eh    ::
         :: gradient norm              0.000388226060 Eh/a0 ::
         :: HOMO-LUMO gap              3.663396958549 eV    ::
         :: SCC energy               -83.778480084319 Eh    ::
         :: -> Gsolv                  -0.055046923055 Eh    ::
         :: repulsion energy           0.797828758417 Eh    ::

    * Orbital Energies and Occupations

         #    Occupation            Energy/Eh            Energy/eV
      -------------------------------------------------------------
         1        2.0000           -0.8661572             -23.5693
       ...           ...                  ...                  ...
        55        2.0000           -0.5059096             -13.7665
        56        2.0000           -0.5051514             -13.7459
        57        2.0000           -0.5042304             -13.7208
        58        2.0000           -0.5012355             -13.6393
        59        2.0000           -0.4813058             -13.0970
        60        2.0000           -0.4776292             -12.9970
        61        2.0000           -0.4689129             -12.7598
        62        2.0000           -0.4660019             -12.6806
        63        2.0000           -0.4633558             -12.6086
        64        2.0000           -0.4621177             -12.5749
        65        2.0000           -0.4530248             -12.3274
        66        2.0000           -0.4519502             -12.2982
        67        2.0000           -0.4471024             -12.1663 (HOMO)
        68                         -0.3124750              -8.5029 (LUMO)
        69                         -0.3027084              -8.2371
        70                         -0.2884962              -7.8504
        71                         -0.2590365              -7.0487
        72                         -0.2571188              -6.9966
        73                         -0.2002346              -5.4487
        74                         -0.1425522              -3.8790
        75                         -0.1417439              -3.8570
        76                         -0.1319994              -3.5919
        77                         -0.1278424              -3.4788
        78                         -0.1251560              -3.4057
       ...                                ...                  ...
       134                          0.7290962              19.8397
      -------------------------------------------------------------
                  HL-Gap            0.1346274 Eh            3.6634 eV

Wiberg/Mayer (AO) data.
largest (>0.10) Wiberg bond orders for each atom

     #   Z sym  total        # sym  WBO       # sym  WBO       # sym  WBO
 ---------------------------------------------------------------------------
     1   6 C    3.859 --    26 H    0.985    28 H    0.980    27 H    0.979
                             2 O    0.883
     2   8 O    2.227 --     3 C    1.142     1 C    0.883     4 O    0.142
     3   6 C    3.851 --     4 O    1.688     2 O    1.142     5 C    0.936
     4   8 O    1.941 --     3 C    1.688     2 O    0.142
     5   6 C    3.869 --     6 N    1.026     3 C    0.936    25 O    0.907
                            23 C    0.835
     6   7 N    3.025 --     7 C    1.711     5 C    1.026
     7   6 C    3.929 --     6 N    1.711    20 N    1.108     8 C    0.979
     8   6 C    3.934 --     9 C    0.991     7 C    0.979    10 C    0.975
                            11 N    0.923
     9   6 C    3.988 --     8 C    0.991    30 H    0.985    29 H    0.983
                            31 H    0.982
    10   6 C    3.988 --    32 H    0.985    34 H    0.985    33 H    0.977
                             8 C    0.975
    11   7 N    3.335 --    12 C    1.244     8 C    0.923    35 H    0.893
                            13 O    0.173
    12   6 C    3.915 --    13 O    1.593    11 N    1.244    14 C    0.993
    13   8 O    1.909 --    12 C    1.593    11 N    0.173
    14   6 C    3.873 --    15 N    1.622    19 O    1.046    12 C    0.993
    15   7 N    3.000 --    14 C    1.622    16 N    1.199
    16   7 N    2.982 --    17 C    1.610    15 N    1.199
    17   6 C    3.868 --    16 N    1.610    19 O    1.072    18 C    1.032
    18   6 C    3.986 --    17 C    1.032    36 H    0.982    38 H    0.964
                            37 H    0.961
    19   8 O    2.316 --    17 C    1.072    14 C    1.046
    20   7 N    3.416 --    21 C    1.141     7 C    1.108    39 H    0.884
                            22 O    0.126
    21   6 C    3.893 --    22 O    1.659    20 N    1.141    23 C    0.979
    22   8 O    1.937 --    21 C    1.659    20 N    0.126
    23   6 C    3.861 --    24 C    1.002    21 C    0.979    25 O    0.894
                             5 C    0.835
    24   6 C    3.985 --    23 C    1.002    42 H    0.980    41 H    0.980
                            40 H    0.974
    25   8 O    1.967 --     5 C    0.907    23 C    0.894
    26   1 H    1.008 --     1 C    0.985
    27   1 H    1.004 --     1 C    0.979
    28   1 H    1.005 --     1 C    0.980
    29   1 H    1.009 --     9 C    0.983
    30   1 H    1.004 --     9 C    0.985
    31   1 H    1.007 --     9 C    0.982
    32   1 H    1.001 --    10 C    0.985
    33   1 H    1.009 --    10 C    0.977
    34   1 H    1.001 --    10 C    0.985
    35   1 H    0.937 --    11 N    0.893
    36   1 H    0.998 --    18 C    0.982
    37   1 H    0.996 --    18 C    0.961
    38   1 H    0.996 --    18 C    0.964
    39   1 H    0.929 --    20 N    0.884
    40   1 H    1.002 --    24 C    0.974
    41   1 H    0.999 --    24 C    0.980
    42   1 H    1.008 --    24 C    0.980
 ---------------------------------------------------------------------------

           -------------------------------------------------
          | TOTAL ENERGY              -83.006125831833 Eh   |
          | GRADIENT NORM               0.000388226060 Eh/α |
          | HOMO-LUMO GAP               3.663396958549 eV   |
           -------------------------------------------------

 * finished run on 2023/06/21 at 17:57:02.533
