   * xtb version 6.5.1 (579679a) compiled by 'ehlert@majestix' on 2022-07-11
          program call               : /lustre/hpc/kemi/ree/PhD/git/ReactivityQM/dep/xtb-6.5.1/bin/xtb --gfn 1 /lustre/hpc/kemi/ree/PhD/git/ReactivityQM/calculations/R01/reac02prodN02/conf03/R01_reac02prodN02_conf03_gfn1.xyz --opt --vfukui --chrg 1 --uhf 0 --alpb DMSO

   ID    Z sym.   atoms
    1    6 C      1, 3-6, 8, 9, 12, 13, 15
    2    7 N      2, 7, 17
    3    8 O      10, 11, 14, 16
    4    1 H      18-33

      * Solvation model:               ALPB
        Solvent                        DMSO
        Solvent mass                       7.8130E+01 g/mol
          :  Hamiltonian                  GFN1-xTB          :
 * total energy  :   -57.8599748 Eh     change       -0.4348522E-11 Eh
 * total energy  :   -57.8693255 Eh     change       -0.9350636E-02 Eh
 * total energy  :   -57.8718793 Eh     change       -0.2553890E-02 Eh
 * total energy  :   -57.8722233 Eh     change       -0.3439962E-03 Eh
 * total energy  :   -57.8724271 Eh     change       -0.2038073E-03 Eh
 * total energy  :   -57.8725422 Eh     change       -0.1150639E-03 Eh
 * total energy  :   -57.8726826 Eh     change       -0.1404355E-03 Eh
 * total energy  :   -57.8728239 Eh     change       -0.1412742E-03 Eh
 * total energy  :   -57.8729510 Eh     change       -0.1271104E-03 Eh
 * total energy  :   -57.8730579 Eh     change       -0.1068516E-03 Eh
 * total energy  :   -57.8748890 Eh     change       -0.6971771E-05 Eh
 * total energy  :   -57.8748965 Eh     change       -0.7518979E-05 Eh
 * total energy  :   -57.8749045 Eh     change       -0.8003850E-05 Eh
 * total energy  :   -57.8749127 Eh     change       -0.8183681E-05 Eh
 * total energy  :   -57.8749206 Eh     change       -0.7940367E-05 Eh
 * total energy  :   -57.8749277 Eh     change       -0.7134442E-05 Eh
 * total energy  :   -57.8749339 Eh     change       -0.6162424E-05 Eh
 * total energy  :   -57.8749392 Eh     change       -0.5279024E-05 Eh
 * total energy  :   -57.8749439 Eh     change       -0.4709486E-05 Eh
   *** GEOMETRY OPTIMIZATION CONVERGED AFTER 59 ITERATIONS ***

 final structure:
================
33
 xtb: 6.5.1 (579679a)
C           -2.15157335796654        1.74875695158891       -1.89084334692079
N           -1.39969907528481        1.25451448741155       -0.71595846788545
C           -1.78772770393021       -0.09162223567037       -0.15651024651364
C           -3.02744052527019        0.08077162826292        0.71398429539350
C           -2.01621431482737       -1.09275592177596       -1.29135841658420
C           -0.55739184456539       -0.52195348678212        0.61732798251258
N            0.58193457195308       -0.06724372149323        0.21938584950534
C            1.72530756864085       -0.47823303687862        0.86500376460452
C            3.01749588913540        0.03972448757993        0.35650872555945
O            4.08288818750993       -0.23526822754640        0.87673604286315
O            2.90169525260441        0.80641504358156       -0.71507121535819
C            4.11987064950405        1.31851985542015       -1.27607717534683
C            1.68185072534825       -1.34935696311949        1.92621681873987
O            2.75365765625069       -1.76625261805417        2.58874988424516
C            0.39151562659756       -1.88508912863794        2.38490418142274
O            0.21334788725427       -2.66208428009741        3.29857025145575
N           -0.68028205438185       -1.40689245365844        1.63716515164056
H           -1.92498681657233        1.12475840976736       -2.75014637547039
H           -3.21484528408041        1.72803958715596       -1.66882623862287
H           -1.82520706806636        2.76975530987954       -2.07305453740663
H           -0.39538153878011        1.18469830902499       -0.94297272453914
H           -1.48254908431653        1.93968044861217        0.03102291441910
H           -3.82529523546015        0.54472231672066        0.13733447111354
H           -3.37742000401182       -0.89227905859597        1.05423005564411
H           -2.80539108852130        0.70325826463439        1.57924392492229
H           -2.92283841109092       -0.85177569382231       -1.84208525439783
H           -2.12489348881879       -2.08709557094553       -0.85977959630746
H           -1.16415251533441       -1.09555203199068       -1.96950383906580
H            4.60608262705905        1.98448602170336       -0.55984465096276
H            3.83814302310023        1.86389183074835       -2.17395445831398
H            4.79083145476548        0.49251315213582       -1.52297027794605
H            3.57023226867426       -1.35801387876737        2.21334209457466
H           -1.59156297711956       -1.74303879638344        1.90922841302716

          :  Hamiltonian                  GFN1-xTB          :
         :: total energy             -57.874943900838 Eh    ::
         :: gradient norm              0.000164528218 Eh/a0 ::
         :: HOMO-LUMO gap              2.923542186205 eV    ::
         :: SCC energy               -58.453159483859 Eh    ::
         :: -> Gsolv                  -0.120451051481 Eh    ::
         :: repulsion energy           0.597169124789 Eh    ::

    * Orbital Energies and Occupations

         #    Occupation            Energy/Eh            Energy/eV
      -------------------------------------------------------------
         1        2.0000           -0.8850928             -24.0846
       ...           ...                  ...                  ...
        35        2.0000           -0.5634486             -15.3322
        36        2.0000           -0.5536859             -15.0666
        37        2.0000           -0.5472221             -14.8907
        38        2.0000           -0.5463248             -14.8663
        39        2.0000           -0.5325260             -14.4908
        40        2.0000           -0.5315911             -14.4653
        41        2.0000           -0.5228600             -14.2277
        42        2.0000           -0.5103912             -13.8885
        43        2.0000           -0.5045045             -13.7283
        44        2.0000           -0.5040256             -13.7152
        45        2.0000           -0.4837545             -13.1636
        46        2.0000           -0.4666957             -12.6994
        47        2.0000           -0.4481764             -12.1955 (HOMO)
        48                         -0.3407382              -9.2720 (LUMO)
        49                         -0.3081736              -8.3858
        50                         -0.2563223              -6.9749
        51                         -0.1792138              -4.8767
        52                         -0.1761939              -4.7945
        53                         -0.1710544              -4.6546
        54                         -0.1660291              -4.5179
        55                         -0.1492849              -4.0623
        56                         -0.1427430              -3.8842
        57                         -0.1362926              -3.7087
        58                         -0.1204699              -3.2782
       ...                                ...                  ...
       100                          0.7187905              19.5593
      -------------------------------------------------------------
                  HL-Gap            0.1074382 Eh            2.9235 eV

Wiberg/Mayer (AO) data.
largest (>0.10) Wiberg bond orders for each atom

     #   Z sym  total        # sym  WBO       # sym  WBO       # sym  WBO
 ---------------------------------------------------------------------------
     1   6 C    3.896 --    18 H    0.984    19 H    0.982    20 H    0.979
                             2 N    0.920
     2   7 N    3.599 --     1 C    0.920    22 H    0.893     3 C    0.887
                            21 H    0.860
     3   6 C    3.907 --     4 C    1.001     5 C    0.985     6 C    0.979
                             2 N    0.887
     4   6 C    3.983 --     3 C    1.001    25 H    0.981    23 H    0.977
                            24 H    0.975
     5   6 C    3.981 --     3 C    0.985    28 H    0.981    26 H    0.979
                            27 H    0.978
     6   6 C    3.942 --     7 N    1.582    17 N    1.193     3 C    0.979
     7   7 N    3.067 --     6 C    1.582     8 C    1.160
     8   6 C    3.957 --    13 C    1.488     7 N    1.160     9 C    1.016
     9   6 C    3.853 --    10 O    1.612    11 O    1.141     8 C    1.016
    10   8 O    1.952 --     9 C    1.612    11 O    0.132
    11   8 O    2.217 --     9 C    1.141    12 C    0.885    10 O    0.132
    12   6 C    3.859 --    30 H    0.986    31 H    0.979    29 H    0.979
                            11 O    0.885
    13   6 C    3.923 --     8 C    1.488    14 O    1.145    15 C    1.046
    14   8 O    2.110 --    13 C    1.145    32 H    0.769
    15   6 C    3.903 --    16 O    1.631    17 N    1.096    13 C    1.046
    16   8 O    1.928 --    15 C    1.631    17 N    0.132
    17   7 N    3.462 --     6 C    1.193    15 C    1.096    33 H    0.878
                            16 O    0.132
    18   1 H    0.994 --     1 C    0.984
    19   1 H    0.993 --     1 C    0.982
    20   1 H    0.989 --     1 C    0.979
    21   1 H    0.951 --     2 N    0.860
    22   1 H    0.921 --     2 N    0.893
    23   1 H    0.994 --     4 C    0.977
    24   1 H    0.993 --     4 C    0.975
    25   1 H    0.993 --     4 C    0.981
    26   1 H    0.994 --     5 C    0.979
    27   1 H    0.996 --     5 C    0.978
    28   1 H    0.995 --     5 C    0.981
    29   1 H    1.004 --    12 C    0.979
    30   1 H    1.009 --    12 C    0.986
    31   1 H    1.005 --    12 C    0.979
    32   1 H    0.845 --    14 O    0.769
    33   1 H    0.921 --    17 N    0.878
 ---------------------------------------------------------------------------

           -------------------------------------------------
          | TOTAL ENERGY              -57.874943900838 Eh   |
          | GRADIENT NORM               0.000164528218 Eh/α |
          | HOMO-LUMO GAP               2.923542186205 eV   |
           -------------------------------------------------

 * finished run on 2023/06/20 at 15:03:47.347
