   * xtb version 6.5.1 (579679a) compiled by 'ehlert@majestix' on 2022-07-11
          program call               : /lustre/hpc/kemi/ree/PhD/git/ReactivityQM/dep/xtb-6.5.1/bin/xtb --gfn 1 /lustre/hpc/kemi/ree/PhD/git/ReactivityQM/calculations/R03/reac02prodE14/conf09/R03_reac02prodE14_conf09_gfn1.xyz --opt --vfukui --chrg -1 --uhf 0 --alpb DMSO

   ID    Z sym.   atoms
    1    6 C      1, 3, 5, 7-10, 12, 14, 17, 18, 21, 22, 24, 25
    2    8 O      2, 4, 13, 19, 23, 26
    3    7 N      6, 11, 15, 16, 20
    4    1 H      27-46

      * Solvation model:               ALPB
        Solvent                        DMSO
        Solvent mass                       7.8130E+01 g/mol
          :  Hamiltonian                  GFN1-xTB          :
 * total energy  :   -87.0440436 Eh     change       -0.1745661E-09 Eh
 * total energy  :   -87.0591649 Eh     change       -0.1512125E-01 Eh
 * total energy  :   -87.0646095 Eh     change       -0.5444609E-02 Eh
 * total energy  :   -87.0656555 Eh     change       -0.1045998E-02 Eh
 * total energy  :   -87.0663486 Eh     change       -0.6931152E-03 Eh
 * total energy  :   -87.0666322 Eh     change       -0.2835821E-03 Eh
 * total energy  :   -87.0668447 Eh     change       -0.2124650E-03 Eh
 * total energy  :   -87.0669892 Eh     change       -0.1444873E-03 Eh
 * total energy  :   -87.0670804 Eh     change       -0.9123214E-04 Eh
 * total energy  :   -87.0671368 Eh     change       -0.5641345E-04 Eh
 * total energy  :   -87.0708754 Eh     change       -0.6347888E-04 Eh
 * total energy  :   -87.0709073 Eh     change       -0.3186662E-04 Eh
 * total energy  :   -87.0708943 Eh     change        0.1298013E-04 Eh
 * total energy  :   -87.0709282 Eh     change       -0.3386359E-04 Eh
 * total energy  :   -87.0709399 Eh     change       -0.1176557E-04 Eh
 * total energy  :   -87.0709580 Eh     change       -0.1805357E-04 Eh
 * total energy  :   -87.0709663 Eh     change       -0.8330967E-05 Eh
 * total energy  :   -87.0709734 Eh     change       -0.7078648E-05 Eh
 * total energy  :   -87.0709772 Eh     change       -0.3816441E-05 Eh
   *** GEOMETRY OPTIMIZATION CONVERGED AFTER 94 ITERATIONS ***

 final structure:
================
46
 xtb: 6.5.1 (579679a)
C           -3.18944230848233        3.74825283117402        2.00606338972395
O           -2.58988697716590        2.54643183891615        1.55709908034820
C           -3.40059425611719        1.74765933341535        0.75439697454020
O           -4.53965933822339        2.14615105319301        0.46561854620075
C           -2.77160711693835        0.56014074086390        0.33727679899414
N           -1.51347100995322        0.28256128848592        0.80373205267199
C           -0.78129642352753       -0.63406184328651        0.27616973469156
C            0.48807801018090       -1.05164691607177        0.99779685093302
C            0.56839730760213       -2.57818498160963        1.13171565312114
C            0.49750616650287       -0.41385975800682        2.39507482573491
N            1.65482675713100       -0.52414603864705        0.25383882356457
C            2.93598300078875       -0.74928548392524        0.59454160417780
O            3.33128344069833       -1.52622930783002        1.44815356371106
C            3.85526337847421        0.07711619067288       -0.23884778339548
N            3.49985404803833        0.93246204065006       -1.14942293706698
N            4.64712838175491        1.47307645959956       -1.65114587083869
C            5.62824838529861        0.91347748891764       -1.01243495381331
C            7.07626861726399        1.16001775148696       -1.18840097509529
O            5.19378037981746        0.02338000786569       -0.10747344862828
N           -1.16624356695375       -1.25504244543756       -0.94366095291098
C           -0.18717107355720       -1.72930478299961       -1.92316033815070
C           -2.40476393246622       -1.01681825306156       -1.46066147859556
O           -2.64080387157951       -1.16244718113366       -2.66375116738637
C           -3.45041571464918       -0.53688989082850       -0.45352043505512
C           -4.72491266034631       -0.12728422620259       -1.19274789883577
O           -3.72950763080225       -1.67747793671836        0.39063490656699
H           -3.47909478018054        4.38614145235857        1.16238311795676
H           -2.45031870534140        4.26919169836552        2.61607426367153
H           -4.08097608283600        3.54418712401793        2.61063403413279
H           -0.37958231013001       -2.94581835745807        1.52359063638232
H            0.75835715155415       -3.05494090163614        0.17291622825821
H            1.36305758755019       -2.86076623739282        1.81969239417369
H            1.41024107006702       -0.68320597022893        2.92364637515009
H            0.43768084730549        0.67050826121657        2.31119740836018
H           -0.36082884245183       -0.76806819364780        2.96345902815745
H            1.48026880242714        0.23978275669771       -0.38469206791221
H            7.51561403270497        1.49005872887916       -0.24745757536967
H            7.22699008053518        1.92235877034406       -1.94854027265194
H            7.57751453890609        0.24054643932434       -1.49003018436833
H            0.81765659723797       -1.69716521931905       -1.51670202097933
H           -0.23149587733358       -1.09903645414987       -2.81534699630463
H           -0.42970308560708       -2.75419059833414       -2.20923019016873
H           -4.53620742555742        0.74423912172312       -1.81731132659343
H           -5.51351215470277        0.10986056770331       -0.48265529022199
H           -5.05408903653437       -0.95315922108907       -1.82376826019104
H           -4.35841240039973       -1.42857474685779        1.07629813331579

          :  Hamiltonian                  GFN1-xTB          :
         :: total energy             -87.070977218695 Eh    ::
         :: gradient norm              0.000479173735 Eh/a0 ::
         :: HOMO-LUMO gap              0.801967815336 eV    ::
         :: SCC energy               -87.868774324883 Eh    ::
         :: -> Gsolv                  -0.114206618030 Eh    ::
         :: repulsion energy           0.827074171707 Eh    ::

    * Orbital Energies and Occupations

         #    Occupation            Energy/Eh            Energy/eV
      -------------------------------------------------------------
         1        2.0000           -0.8600279             -23.4026
       ...           ...                  ...                  ...
        59        2.0000           -0.4709895             -12.8163
        60        2.0000           -0.4691602             -12.7665
        61        2.0000           -0.4574065             -12.4467
        62        2.0000           -0.4550415             -12.3823
        63        2.0000           -0.4476091             -12.1801
        64        2.0000           -0.4469711             -12.1627
        65        2.0000           -0.4459896             -12.1360
        66        2.0000           -0.4361752             -11.8689
        67        2.0000           -0.4224187             -11.4946
        68        2.0000           -0.4152503             -11.2995
        69        2.0000           -0.4051100             -11.0236
        70        2.0000           -0.3903410             -10.6217
        71        2.0000           -0.3336543              -9.0792 (HOMO)
        72        0.0000           -0.3041825              -8.2772 (LUMO)
        73                         -0.2538580              -6.9078
        74                         -0.2456673              -6.6849
        75                         -0.2064042              -5.6165
        76                         -0.1928172              -5.2468
        77                         -0.1482637              -4.0345
        78                         -0.1414116              -3.8480
        79                         -0.1236848              -3.3656
        80                         -0.1140628              -3.1038
        81                         -0.1115477              -3.0354
        82                         -0.1053181              -2.8659
       ...                                ...                  ...
       144                          0.7309673              19.8906
      -------------------------------------------------------------
                  HL-Gap            0.0294718 Eh            0.8020 eV

Wiberg/Mayer (AO) data.
largest (>0.10) Wiberg bond orders for each atom

     #   Z sym  total        # sym  WBO       # sym  WBO       # sym  WBO
 ---------------------------------------------------------------------------
     1   6 C    3.911 --    28 H    0.987    29 H    0.981    27 H    0.981
                             2 O    0.941
     2   8 O    2.091 --     3 C    0.968     1 C    0.941
     3   6 C    3.868 --     4 O    1.476     5 C    1.292     2 O    0.968
     4   8 O    1.813 --     3 C    1.476     5 C    0.104
     5   6 C    3.864 --     3 C    1.292     6 N    1.200    24 C    0.969
                             4 O    0.104     7 C    0.103
     6   7 N    3.068 --     7 C    1.621     5 C    1.200
     7   6 C    3.908 --     6 N    1.621    20 N    0.992     8 C    0.980
                             5 C    0.103
     8   6 C    3.925 --     9 C    0.992    10 C    0.991     7 C    0.980
                            11 N    0.896
     9   6 C    3.992 --     8 C    0.992    30 H    0.986    31 H    0.982
                            32 H    0.981
    10   6 C    3.994 --     8 C    0.991    35 H    0.985    33 H    0.985
                            34 H    0.984
    11   7 N    3.361 --    12 C    1.271    36 H    0.900     8 C    0.896
                            13 O    0.181
    12   6 C    3.920 --    13 O    1.583    11 N    1.271    14 C    0.982
    13   8 O    1.901 --    12 C    1.583    11 N    0.181
    14   6 C    3.871 --    15 N    1.615    19 O    1.063    12 C    0.982
    15   7 N    3.015 --    14 C    1.615    16 N    1.195
    16   7 N    2.980 --    17 C    1.610    15 N    1.195
    17   6 C    3.872 --    16 N    1.610    19 O    1.081    18 C    1.031
    18   6 C    3.987 --    17 C    1.031    38 H    0.983    37 H    0.964
                            39 H    0.964
    19   8 O    2.327 --    17 C    1.081    14 C    1.063
    20   7 N    3.409 --    22 C    1.217     7 C    0.992    21 C    0.945
                            23 O    0.138
    21   6 C    3.953 --    42 H    0.984    40 H    0.981    41 H    0.979
                            20 N    0.945
    22   6 C    3.893 --    23 O    1.547    20 N    1.217    24 C    0.937
    23   8 O    1.856 --    22 C    1.547    20 N    0.138
    24   6 C    3.908 --    25 C    0.996     5 C    0.969    22 C    0.937
                            26 O    0.906
    25   6 C    3.996 --    24 C    0.996    45 H    0.985    43 H    0.985
                            44 H    0.984
    26   8 O    1.869 --    24 C    0.906    46 H    0.868
    27   1 H    1.018 --     1 C    0.981
    28   1 H    1.018 --     1 C    0.987
    29   1 H    1.017 --     1 C    0.981
    30   1 H    1.006 --     9 C    0.986
    31   1 H    1.005 --     9 C    0.982
    32   1 H    1.014 --     9 C    0.981
    33   1 H    1.008 --    10 C    0.985
    34   1 H    1.020 --    10 C    0.984
    35   1 H    1.011 --    10 C    0.985
    36   1 H    0.965 --    11 N    0.900
    37   1 H    0.997 --    18 C    0.964
    38   1 H    0.999 --    18 C    0.983
    39   1 H    0.997 --    18 C    0.964
    40   1 H    1.014 --    21 C    0.981
    41   1 H    1.013 --    21 C    0.979
    42   1 H    1.010 --    21 C    0.984
    43   1 H    1.016 --    25 C    0.985
    44   1 H    1.023 --    25 C    0.984
    45   1 H    1.016 --    25 C    0.985
    46   1 H    0.891 --    26 O    0.868
 ---------------------------------------------------------------------------

           -------------------------------------------------
          | TOTAL ENERGY              -87.070977218695 Eh   |
          | GRADIENT NORM               0.000479173735 Eh/α |
          | HOMO-LUMO GAP               0.801967815336 eV   |
           -------------------------------------------------

 * finished run on 2023/06/20 at 15:34:42.516
