   * xtb version 6.5.1 (579679a) compiled by 'ehlert@majestix' on 2022-07-11
          program call               : /lustre/hpc/kemi/ree/PhD/git/ReactivityQM/dep/xtb-6.5.1/bin/xtb --gfn 1 /lustre/hpc/kemi/ree/PhD/git/ReactivityQM/calculations/R01/reac02prodN02/conf16/R01_reac02prodN02_conf16_gfn1.xyz --opt --vfukui --chrg 1 --uhf 0 --alpb DMSO

   ID    Z sym.   atoms
    1    6 C      1, 3-6, 8, 9, 12, 13, 15
    2    7 N      2, 7, 17
    3    8 O      10, 11, 14, 16
    4    1 H      18-33

      * Solvation model:               ALPB
        Solvent                        DMSO
        Solvent mass                       7.8130E+01 g/mol
          :  Hamiltonian                  GFN1-xTB          :
 * total energy  :   -57.8618909 Eh     change       -0.4767742E-11 Eh
 * total energy  :   -57.8703029 Eh     change       -0.8412075E-02 Eh
 * total energy  :   -57.8725909 Eh     change       -0.2287952E-02 Eh
 * total energy  :   -57.8730052 Eh     change       -0.4143423E-03 Eh
 * total energy  :   -57.8732888 Eh     change       -0.2835531E-03 Eh
 * total energy  :   -57.8734403 Eh     change       -0.1514735E-03 Eh
 * total energy  :   -57.8735922 Eh     change       -0.1519389E-03 Eh
 * total energy  :   -57.8737210 Eh     change       -0.1287880E-03 Eh
 * total energy  :   -57.8737975 Eh     change       -0.7655028E-04 Eh
 * total energy  :   -57.8738509 Eh     change       -0.5334742E-04 Eh
 * total energy  :   -57.8738897 Eh     change       -0.3881578E-04 Eh
 * total energy  :   -57.8739162 Eh     change       -0.2649860E-04 Eh
 * total energy  :   -57.8739420 Eh     change       -0.2576234E-04 Eh
 * total energy  :   -57.8739694 Eh     change       -0.2744859E-04 Eh
 * total energy  :   -57.8739924 Eh     change       -0.2295925E-04 Eh
 * total energy  :   -57.8740164 Eh     change       -0.2398968E-04 Eh
 * total energy  :   -57.8740266 Eh     change       -0.1023476E-04 Eh
 * total energy  :   -57.8740324 Eh     change       -0.5832917E-05 Eh
 * total energy  :   -57.8740364 Eh     change       -0.3933562E-05 Eh
   *** GEOMETRY OPTIMIZATION CONVERGED AFTER 19 ITERATIONS ***

 final structure:
================
33
 xtb: 6.5.1 (579679a)
C           -1.77281988450075        1.75965379571399        1.00762569043912
N           -1.77716032715418        1.06071609152388       -0.29986251018694
C           -1.79465006712169       -0.44343772568857       -0.24331126013189
C           -2.07913035518480       -0.92567626561533       -1.66997334411733
C           -2.86257939419241       -0.93217321578694        0.72958881176563
C           -0.38822185881495       -0.84086129410457        0.14150326682576
N            0.55243485986642        0.02079359501111       -0.03994329448717
C            1.85920488176041       -0.31325612292631        0.23986152771767
C            2.86949952528654        0.75806127534930       -0.00675130146266
O            4.05624975017965        0.64350801760618        0.17835283896991
O            2.29993776990627        1.87315308196608       -0.46642632632758
C            3.17956720561531        2.96696845434156       -0.75480629911506
C            2.16647537826599       -1.56347073659531        0.70456304417688
O            3.40093243291727       -1.96542361689614        0.99792743959927
C            1.10843562568912       -2.55679942501395        0.90641606757391
O            1.31710888676515       -3.68450716040143        1.31331152893624
N           -0.15731586876662       -2.10292128293412        0.59125313691133
H           -0.96178632357516        1.35870030344527        1.61027193832448
H           -1.61230427810187        2.81656306790902        0.80782285954301
H           -2.73168415230358        1.61239111156772        1.49487756553370
H           -0.90498813266842        1.30938591299195       -0.78265679273260
H           -2.56403298457304        1.39022176398845       -0.85027387759102
H           -1.34150013399812       -0.51674268164164       -2.35908464443336
H           -3.07461692368787       -0.61098418214997       -1.97773745013531
H           -2.02710898016280       -2.01258599618506       -1.69920042037674
H           -3.80884483519875       -0.43725502368048        0.51884940857012
H           -3.00205986054119       -2.00396579421017        0.59865372326382
H           -2.57499095723620       -0.74023037952709        1.76145922609799
H            3.92122513457025        2.66501316719378       -1.49884060448313
H            2.55629305269156        3.76829202551469       -1.14496623184265
H            3.68701758654164        3.28933952142699        0.15780825375441
H            3.37794690327952       -2.88749719144861        1.31412261968068
H           -0.91653467555355       -2.75497309074356        0.71573240973959

          :  Hamiltonian                  GFN1-xTB          :
         :: total energy             -57.874036351455 Eh    ::
         :: gradient norm              0.000773455093 Eh/a0 ::
         :: HOMO-LUMO gap              3.001776211548 eV    ::
         :: SCC energy               -58.456114623633 Eh    ::
         :: -> Gsolv                  -0.123559295772 Eh    ::
         :: repulsion energy           0.601393304689 Eh    ::

    * Orbital Energies and Occupations

         #    Occupation            Energy/Eh            Energy/eV
      -------------------------------------------------------------
         1        2.0000           -0.8870041             -24.1366
       ...           ...                  ...                  ...
        35        2.0000           -0.5603366             -15.2475
        36        2.0000           -0.5534628             -15.0605
        37        2.0000           -0.5487656             -14.9327
        38        2.0000           -0.5462178             -14.8633
        39        2.0000           -0.5355575             -14.5733
        40        2.0000           -0.5313868             -14.4598
        41        2.0000           -0.5215401             -14.1918
        42        2.0000           -0.5096464             -13.8682
        43        2.0000           -0.5027741             -13.6812
        44        2.0000           -0.4989795             -13.5779
        45        2.0000           -0.4837330             -13.1630
        46        2.0000           -0.4690397             -12.7632
        47        2.0000           -0.4499739             -12.2444 (HOMO)
        48                         -0.3396607              -9.2426 (LUMO)
        49                         -0.3086597              -8.3991
        50                         -0.2540233              -6.9123
        51                         -0.1819741              -4.9518
        52                         -0.1756460              -4.7796
        53                         -0.1716236              -4.6701
        54                         -0.1641189              -4.4659
        55                         -0.1454517              -3.9579
        56                         -0.1430314              -3.8921
        57                         -0.1380515              -3.7566
        58                         -0.1217172              -3.3121
       ...                                ...                  ...
       100                          0.7379148              20.0797
      -------------------------------------------------------------
                  HL-Gap            0.1103132 Eh            3.0018 eV

Wiberg/Mayer (AO) data.
largest (>0.10) Wiberg bond orders for each atom

     #   Z sym  total        # sym  WBO       # sym  WBO       # sym  WBO
 ---------------------------------------------------------------------------
     1   6 C    3.896 --    20 H    0.984    18 H    0.984    19 H    0.980
                             2 N    0.919
     2   7 N    3.602 --     1 C    0.919    22 H    0.891     3 C    0.889
                            21 H    0.872
     3   6 C    3.906 --     5 C    0.998     6 C    0.985     4 C    0.981
                             2 N    0.889
     4   6 C    3.980 --    23 H    0.981     3 C    0.981    24 H    0.979
                            25 H    0.978
     5   6 C    3.982 --     3 C    0.998    28 H    0.981    26 H    0.979
                            27 H    0.975
     6   6 C    3.942 --     7 N    1.587    17 N    1.182     3 C    0.985
     7   7 N    3.054 --     6 C    1.587     8 C    1.162
     8   6 C    3.957 --    13 C    1.505     7 N    1.162     9 C    0.996
     9   6 C    3.856 --    10 O    1.669    11 O    1.112     8 C    0.996
    10   8 O    1.935 --     9 C    1.669    11 O    0.137
    11   8 O    2.197 --     9 C    1.112    12 C    0.892    10 O    0.137
    12   6 C    3.866 --    30 H    0.986    31 H    0.979    29 H    0.979
                            11 O    0.892
    13   6 C    3.922 --     8 C    1.505    14 O    1.127    15 C    1.053
    14   8 O    2.104 --    13 C    1.127    32 H    0.802
    15   6 C    3.906 --    16 O    1.604    17 N    1.118    13 C    1.053
    16   8 O    1.926 --    15 C    1.604    17 N    0.132
    17   7 N    3.466 --     6 C    1.182    15 C    1.118    33 H    0.876
                            16 O    0.132
    18   1 H    0.999 --     1 C    0.984
    19   1 H    0.989 --     1 C    0.980
    20   1 H    0.993 --     1 C    0.984
    21   1 H    0.948 --     2 N    0.872
    22   1 H    0.916 --     2 N    0.891
    23   1 H    0.994 --     4 C    0.981
    24   1 H    0.992 --     4 C    0.979
    25   1 H    0.994 --     4 C    0.978
    26   1 H    0.992 --     5 C    0.979
    27   1 H    0.994 --     5 C    0.975
    28   1 H    0.996 --     5 C    0.981
    29   1 H    1.006 --    12 C    0.979
    30   1 H    1.010 --    12 C    0.986
    31   1 H    1.006 --    12 C    0.979
    32   1 H    0.838 --    14 O    0.802
    33   1 H    0.918 --    17 N    0.876
 ---------------------------------------------------------------------------

           -------------------------------------------------
          | TOTAL ENERGY              -57.874036351455 Eh   |
          | GRADIENT NORM               0.000773455093 Eh/α |
          | HOMO-LUMO GAP               3.001776211548 eV   |
           -------------------------------------------------

 * finished run on 2023/06/20 at 15:03:42.741
