                         Program Version 5.0.1 -  RELEASE  -
|  1> # ORCA input file
|  2> ! SP r2SCAN-3c CPCM
|  3>
|  4> %maxcore 1875.0
|  5> %pal nprocs 4 end
|  6> %cpcm smd true SMDsolvent "DMSO" end
|  7>
|  8> *xyz 1 1
|  9> C      -1.567313   -1.148150    0.943776
| 10> C      -0.385056   -0.484419    0.375897
| 11> O       0.842656   -0.916647    0.572498
| 12> C       1.650755   -0.066380   -0.089033
| 13> C       3.136575   -0.226539   -0.102186
| 14> O       3.839700    0.546162   -0.676950
| 15> Cl      3.693908   -1.582909    0.757922
| 16> N       0.963823    0.865598   -0.679933
| 17> N      -0.315176    0.595231   -0.380292
| 18> C      -1.375141    1.435504   -0.899960
| 19> H      -2.063513   -0.479423    1.650216
| 20> H      -1.261626   -2.058512    1.456273
| 21> H      -2.279869   -1.384854    0.152603
| 22> H      -2.199791    1.432863   -0.192271
| 23> H      -1.702242    1.033071   -1.858438
| 24> H      -0.977689    2.439404   -1.030123
| 25> **                         ****END OF INPUT****

CARTESIAN COORDINATES (ANGSTROEM)
---------------------------------
  C     -1.567313   -1.148150    0.943776
  C     -0.385056   -0.484419    0.375897
  O      0.842656   -0.916647    0.572498
  C      1.650755   -0.066380   -0.089033
  C      3.136575   -0.226539   -0.102186
  O      3.839700    0.546162   -0.676950
  Cl     3.693908   -1.582909    0.757922
  N      0.963823    0.865598   -0.679933
  N     -0.315176    0.595231   -0.380292
  C     -1.375141    1.435504   -0.899960
  H     -2.063513   -0.479423    1.650216
  H     -1.261626   -2.058512    1.456273
  H     -2.279869   -1.384854    0.152603
  H     -2.199791    1.432863   -0.192271
  H     -1.702242    1.033071   -1.858438
  H     -0.977689    2.439404   -1.030123

 Total Charge           Charge          ....    1
 Multiplicity           Mult            ....    1
 Number of Electrons    NEL             ....   82
 Basis Dimension        Dim             ....  248

ORBITAL ENERGIES
----------------

  NO   OCC          E(Eh)            E(eV)
   0   2.0000    -101.269168     -2755.6742
   1   2.0000     -19.124839      -520.4133
   2   2.0000     -19.012753      -517.3633
   3   2.0000     -14.334179      -390.0528
   4   2.0000     -14.272666      -388.3790
   5   2.0000     -10.231594      -278.4158
   6   2.0000     -10.226087      -278.2660
   7   2.0000     -10.207706      -277.7658
   8   2.0000     -10.095843      -274.7219
   9   2.0000     -10.074308      -274.1359
  10   2.0000      -9.425969      -256.4937
  11   2.0000      -7.172354      -195.1697
  12   2.0000      -7.162878      -194.9118
  13   2.0000      -7.160750      -194.8539
  14   2.0000      -1.228357       -33.4253
  15   2.0000      -1.092883       -29.7388
  16   2.0000      -1.070616       -29.1330
  17   2.0000      -0.916035       -24.9266
  18   2.0000      -0.877981       -23.8911
  19   2.0000      -0.789395       -21.4805
  20   2.0000      -0.748377       -20.3644
  21   2.0000      -0.720355       -19.6019
  22   2.0000      -0.655519       -17.8376
  23   2.0000      -0.626179       -17.0392
  24   2.0000      -0.562009       -15.2930
  25   2.0000      -0.544820       -14.8253
  26   2.0000      -0.505030       -13.7426
  27   2.0000      -0.481976       -13.1152
  28   2.0000      -0.470175       -12.7941
  29   2.0000      -0.466267       -12.6878
  30   2.0000      -0.454312       -12.3625
  31   2.0000      -0.449777       -12.2390
  32   2.0000      -0.417543       -11.3619
  33   2.0000      -0.410940       -11.1822
  34   2.0000      -0.402488       -10.9523
  35   2.0000      -0.378085       -10.2882
  36   2.0000      -0.353609        -9.6222
  37   2.0000      -0.340413        -9.2631
  38   2.0000      -0.340362        -9.2617
  39   2.0000      -0.315353        -8.5812
  40   2.0000      -0.307876        -8.3777
  41   0.0000      -0.154072        -4.1925
  42   0.0000      -0.097000        -2.6395
  43   0.0000      -0.020983        -0.5710
  44   0.0000      -0.015294        -0.4162
  45   0.0000       0.034740         0.9453

MULLIKEN ATOMIC CHARGES
-----------------------
   0 C :   -0.598819
   1 C :    0.261555
   2 O :    0.023806
   3 C :    0.406209
   4 C :    0.108282
   5 O :   -0.273348
   6 Cl:   -0.007408
   7 N :   -0.368746
   8 N :    0.494416
   9 C :   -0.401680
  10 H :    0.241392
  11 H :    0.222684
  12 H :    0.235669
  13 H :    0.214447
  14 H :    0.223307
  15 H :    0.218234
Sum of atomic charges:    1.0000000

LOEWDIN ATOMIC CHARGES
----------------------
   0 C :   -0.287204
   1 C :    0.488923
   2 O :   -0.334671
   3 C :    0.415904
   4 C :    0.162787
   5 O :   -0.357398
   6 Cl:    0.293748
   7 N :   -0.173754
   8 N :   -0.489081
   9 C :   -0.015021
  10 H :    0.217847
  11 H :    0.205915
  12 H :    0.215427
  13 H :    0.217426
  14 H :    0.217474
  15 H :    0.221675

  Mayer bond orders larger than 0.100000
B(  0-C ,  1-C ) :   0.8909 B(  0-C , 10-H ) :   0.9161 B(  0-C , 11-H ) :   0.9514
B(  0-C , 12-H ) :   0.9235 B(  1-C ,  2-O ) :   1.1750 B(  1-C ,  7-N ) :   0.1638
B(  1-C ,  8-N ) :   1.4482 B(  2-O ,  3-C ) :   1.0783 B(  3-C ,  4-C ) :   0.8801
B(  3-C ,  7-N ) :   1.5749 B(  4-C ,  5-O ) :   1.9703 B(  4-C ,  6-Cl) :   1.1141
B(  5-O ,  6-Cl) :   0.1110 B(  7-N ,  8-N ) :   1.2784 B(  8-N ,  9-C ) :   0.9152
B(  9-C , 13-H ) :   0.9275 B(  9-C , 14-H ) :   0.9097 B(  9-C , 15-H ) :   0.9270

Dispersion correction           -0.005216828
FINAL SINGLE POINT ENERGY      -913.995330658216

DIPOLE MOMENT
-------------
                                X             Y             Z
Electronic contribution:     15.72287      -4.28028       1.61328
Nuclear contribution   :    -20.66572       4.29386      -1.21294
                        -----------------------------------------
Total Dipole Moment    :     -4.94285       0.01358       0.40034
                        -----------------------------------------
Magnitude (a.u.)       :      4.95906
Magnitude (Debye)      :     12.60492

Rotational constants in cm-1:     0.081181     0.024018     0.018666
Rotational constants in MHz :  2433.739952   720.034381   559.582765

                             ****ORCA TERMINATED NORMALLY****
TOTAL RUN TIME: 0 days 0 hours 0 minutes 24 seconds 750 msec
