   * xtb version 6.5.1 (579679a) compiled by 'ehlert@majestix' on 2022-07-11
          program call               : /lustre/hpc/kemi/ree/PhD/git/ReactivityQM/dep/xtb-6.5.1/bin/xtb --gfn 1 /lustre/hpc/kemi/ree/PhD/git/ReactivityQM/calculations/RaltegravirCLI/reac01prodN02/conf07/RaltegravirCLI_reac01prodN02_conf07_gfn1.xyz --opt --vfukui --chrg 1 --uhf 0 --alpb DMSO

   ID    Z sym.   atoms
    1    6 C      1, 2, 4, 5, 10
    2    8 O      3, 6
    3   17 Cl     7
    4    7 N      8, 9
    5    1 H      11-16

      * Solvation model:               ALPB
        Solvent                        DMSO
        Solvent mass                       7.8130E+01 g/mol
          :  Hamiltonian                  GFN1-xTB          :
 * total energy  :   -33.4356420 Eh     change       -0.8526513E-12 Eh
 * total energy  :   -33.4404088 Eh     change       -0.4766853E-02 Eh
 * total energy  :   -33.4418325 Eh     change       -0.1423644E-02 Eh
 * total energy  :   -33.4419851 Eh     change       -0.1526735E-03 Eh
 * total energy  :   -33.4420732 Eh     change       -0.8803976E-04 Eh
 * total energy  :   -33.4420811 Eh     change       -0.7952382E-05 Eh
 * total energy  :   -33.4420863 Eh     change       -0.5156889E-05 Eh
 * total energy  :   -33.4420875 Eh     change       -0.1237334E-05 Eh
   *** GEOMETRY OPTIMIZATION CONVERGED AFTER 8 ITERATIONS ***

 final structure:
================
16
 xtb: 6.5.1 (579679a)
C           -1.56731280729111       -1.14814976791442        0.94377568434132
C           -0.38505555975330       -0.48441853796150        0.37589728658991
O            0.84265581277611       -0.91664679081550        0.57249846586267
C            1.65075499449287       -0.06638009532750       -0.08903262854172
C            3.13657546815429       -0.22653929817502       -0.10218614848124
O            3.83969966228060        0.54616157775521       -0.67694977812048
Cl           3.69390787403418       -1.58290939867943        0.75792169912489
N            0.96382271440496        0.86559807796752       -0.67993280282774
N           -0.31517611383893        0.59523105104450       -0.38029219232141
C           -1.37514068659592        1.43550431645394       -0.89996039883961
H           -2.06351347617722       -0.47942257879259        1.65021560998798
H           -1.26162626750466       -2.05851192098748        1.45627268973620
H           -2.27986901652330       -1.38485375487211        0.15260311838227
H           -2.19979094987262        1.43286288924059       -0.19227073543311
H           -1.70224205909008        1.03307120141623       -1.85843791909736
H           -0.97768858949586        2.43940402964756       -1.03012295036259

          :  Hamiltonian                  GFN1-xTB          :
         :: total energy             -33.442087520953 Eh    ::
         :: gradient norm              0.000380870616 Eh/a0 ::
         :: HOMO-LUMO gap              3.203517770800 eV    ::
         :: SCC energy               -33.737142450102 Eh    ::
         :: -> Gsolv                  -0.090767912206 Eh    ::
         :: repulsion energy           0.302243536305 Eh    ::

    * Orbital Energies and Occupations

         #    Occupation            Energy/Eh            Energy/eV
      -------------------------------------------------------------
         1        2.0000           -0.9808134             -26.6893
       ...           ...                  ...                  ...
        15        2.0000           -0.6358219             -17.3016
        16        2.0000           -0.6273388             -17.0708
        17        2.0000           -0.6267750             -17.0554
        18        2.0000           -0.6129221             -16.6785
        19        2.0000           -0.5967180             -16.2375
        20        2.0000           -0.5824545             -15.8494
        21        2.0000           -0.5778369             -15.7237
        22        2.0000           -0.5694452             -15.4954
        23        2.0000           -0.5567500             -15.1499
        24        2.0000           -0.5317944             -14.4709
        25        2.0000           -0.5210350             -14.1781
        26        2.0000           -0.5167917             -14.0626
        27        2.0000           -0.5063853             -13.7794 (HOMO)
        28                         -0.3886581             -10.5759 (LUMO)
        29                         -0.3540141              -9.6332
        30                         -0.2832201              -7.7068
        31                         -0.2365970              -6.4381
        32                         -0.1882202              -5.1217
        33                         -0.1760561              -4.7907
        34                         -0.1236614              -3.3650
        35                         -0.1164417              -3.1685
        36                         -0.1074329              -2.9234
        37                         -0.1062020              -2.8899
        38                         -0.1055016              -2.8708
       ...                                ...                  ...
        57                          0.7180173              19.5382
      -------------------------------------------------------------
                  HL-Gap            0.1177271 Eh            3.2035 eV

Wiberg/Mayer (AO) data.
largest (>0.10) Wiberg bond orders for each atom

     #   Z sym  total        # sym  WBO       # sym  WBO       # sym  WBO
 ---------------------------------------------------------------------------
     1   6 C    3.957 --     2 C    1.044    12 H    0.971    13 H    0.946
                            11 H    0.937
     2   6 C    3.835 --     9 N    1.409     3 O    1.154     1 C    1.044
     3   8 O    2.381 --     2 C    1.154     4 C    1.057
     4   6 C    3.857 --     8 N    1.606     3 O    1.057     5 C    0.982
     5   6 C    3.901 --     6 O    1.782     7 Cl   1.095     4 C    0.982
     6   8 O    2.056 --     5 C    1.782     7 Cl   0.175
     7  17 Cl   1.327 --     5 C    1.095     6 O    0.175
     8   7 N    2.997 --     4 C    1.606     9 N    1.168
     9   7 N    3.633 --     2 C    1.409     8 N    1.168    10 C    0.906
    10   6 C    3.878 --    14 H    0.976    16 H    0.974    15 H    0.961
                             9 N    0.906
    11   1 H    0.983 --     1 C    0.937
    12   1 H    0.984 --     1 C    0.971
    13   1 H    0.984 --     1 C    0.946
    14   1 H    0.988 --    10 C    0.976
    15   1 H    0.987 --    10 C    0.961
    16   1 H    0.990 --    10 C    0.974
 ---------------------------------------------------------------------------

           -------------------------------------------------
          | TOTAL ENERGY              -33.442087520953 Eh   |
          | GRADIENT NORM               0.000380870616 Eh/α |
          | HOMO-LUMO GAP               3.203517770800 eV   |
           -------------------------------------------------

 * finished run on 2023/06/20 at 14:54:31.091
