   * xtb version 6.5.1 (579679a) compiled by 'ehlert@majestix' on 2022-07-11
          program call               : /lustre/hpc/kemi/ree/PhD/git/ReactivityQM/dep/xtb-6.5.1/bin/xtb --gfn 1 /lustre/hpc/kemi/ree/PhD/git/ReactivityQM/calculations/R02/reac01prodN06/conf16/R02_reac01prodN06_conf16_gfn1.xyz --opt --vfukui --chrg 1 --uhf 0 --alpb DMSO

   ID    Z sym.   atoms
    1    6 C      1, 3, 5, 7-10, 12, 14, 16, 17, 20, 22, 24
    2    8 O      2, 4, 13, 15, 23, 25
    3    7 N      6, 11, 18, 19, 21
    4    1 H      26-43

      * Solvation model:               ALPB
        Solvent                        DMSO
        Solvent mass                       7.8130E+01 g/mol
          :  Hamiltonian                  GFN1-xTB          :
 * total energy  :   -83.1575859 Eh     change       -0.5202594E-10 Eh
 * total energy  :   -83.1756467 Eh     change       -0.1806075E-01 Eh
 * total energy  :   -83.1825126 Eh     change       -0.6865974E-02 Eh
 * total energy  :   -83.1837002 Eh     change       -0.1187523E-02 Eh
 * total energy  :   -83.1845424 Eh     change       -0.8422247E-03 Eh
 * total energy  :   -83.1848990 Eh     change       -0.3566384E-03 Eh
 * total energy  :   -83.1853000 Eh     change       -0.4009926E-03 Eh
 * total energy  :   -83.1856724 Eh     change       -0.3723776E-03 Eh
 * total energy  :   -83.1860125 Eh     change       -0.3401417E-03 Eh
 * total energy  :   -83.1862812 Eh     change       -0.2687238E-03 Eh
 * total energy  :   -83.1891184 Eh     change       -0.1039747E-04 Eh
 * total energy  :   -83.1891287 Eh     change       -0.1035293E-04 Eh
 * total energy  :   -83.1891383 Eh     change       -0.9602544E-05 Eh
 * total energy  :   -83.1891475 Eh     change       -0.9176148E-05 Eh
 * total energy  :   -83.1891569 Eh     change       -0.9456171E-05 Eh
 * total energy  :   -83.1891666 Eh     change       -0.9687976E-05 Eh
 * total energy  :   -83.1891750 Eh     change       -0.8374057E-05 Eh
 * total energy  :   -83.1891806 Eh     change       -0.5577190E-05 Eh
 * total energy  :   -83.1891846 Eh     change       -0.3992307E-05 Eh
   *** GEOMETRY OPTIMIZATION CONVERGED AFTER 56 ITERATIONS ***

 final structure:
================
43
 xtb: 6.5.1 (579679a)
C           -1.76040885480838        3.96734328592011       -0.17859088740812
O           -1.81305114248099        2.53645623200892       -0.23592542843505
C           -2.98270839635762        1.99831671134090       -0.54840370594677
O           -3.97958790122837        2.65467760942522       -0.78871401354038
C           -2.97218402848702        0.51785007569462       -0.56864452251597
N           -1.77869402417532       -0.10334416435012       -0.29141550345284
C           -1.72946528900077       -1.39147592516778       -0.27943132229449
C           -0.42357568480928       -2.08341220951840        0.05041881597805
C           -0.54295769424894       -2.80044470787166        1.40211582783915
C           -0.01126788106151       -3.04856080337595       -1.06749773379601
N            0.57169924854427       -1.00872817257608        0.15035688155213
C            1.84954247942685       -1.20769431314400        0.45029738787625
O            2.40934326000078       -2.25868958201017        0.70330479245806
C            2.65558107570448        0.06004668712172        0.45161952991164
O            2.20073446286895        1.26539872337136        0.15188828656297
C            3.25621717331819        2.09407722815277        0.25003855752832
C            3.11646159433278        3.53445735233788       -0.02017566247194
N            4.32953560712652        1.44291427908619        0.59674379078968
N            3.93656431535079        0.16433898328003        0.71843297194700
C            4.88072193233049       -0.86760935017746        1.09600576812496
N           -2.82067697603107       -2.16376026064015       -0.53125745044455
C           -4.07845232530676       -1.66275547851763       -0.83524181745814
O           -5.00974327969832       -2.40983317510373       -1.06041836642442
C           -4.11449792053861       -0.19413041486979       -0.84077019266256
O           -5.29135693527918        0.36169412493563       -1.11550879872749
H           -0.74854236768911        4.22294408584560        0.12629317695547
H           -1.98037305868633        4.38799527035527       -1.16218991280663
H           -2.48512639448475        4.33844252052011        0.54967016428555
H           -1.32721970841043       -3.55282439930669        1.34612546823496
H            0.39815475834929       -3.28853187576787        1.64771783141958
H           -0.79067896207978       -2.08256364322397        2.18233459111491
H            0.94660082495415       -3.50448953505123       -0.82469705206282
H            0.07612957241853       -2.51085610056835       -2.01009771615467
H           -0.75633106174864       -3.83472271130895       -1.17059771907314
H            0.22078735111283       -0.07035989777801       -0.02179079027327
H            2.38724508270113        3.96691983701346        0.66590102613525
H            2.74685365854989        3.68340176986566       -1.03532997502057
H            4.07782596771748        4.02832611884389        0.10108480810555
H            4.92321417911541       -1.60853280684510        0.29882766786795
H            4.52751234728061       -1.34592935909892        2.00847333365265
H            5.84969037582301       -0.40045650191542        1.24851104857896
H           -2.74401482600558       -3.17028795406266       -0.51470856091790
H           -5.21950155440393        1.34439544712987       -1.09475459502920

          :  Hamiltonian                  GFN1-xTB          :
         :: total energy             -83.189184570867 Eh    ::
         :: gradient norm              0.000289997263 Eh/a0 ::
         :: HOMO-LUMO gap              1.764625099224 eV    ::
         :: SCC energy               -83.996130969166 Eh    ::
         :: -> Gsolv                  -0.113148835941 Eh    ::
         :: repulsion energy           0.833137158514 Eh    ::

    * Orbital Energies and Occupations

         #    Occupation            Energy/Eh            Energy/eV
      -------------------------------------------------------------
         1        2.0000           -0.9376571             -25.5149
       ...           ...                  ...                  ...
        55        2.0000           -0.5309704             -14.4484
        56        2.0000           -0.5222860             -14.2121
        57        2.0000           -0.5193970             -14.1335
        58        2.0000           -0.5188870             -14.1196
        59        2.0000           -0.5175846             -14.0842
        60        2.0000           -0.5059132             -13.7666
        61        2.0000           -0.5010431             -13.6341
        62        2.0000           -0.4976251             -13.5411
        63        2.0000           -0.4970736             -13.5261
        64        2.0000           -0.4835686             -13.1586
        65        2.0000           -0.4723219             -12.8525
        66        2.0000           -0.4581738             -12.4675
        67        2.0000           -0.4396585             -11.9637 (HOMO)
        68                         -0.3748097             -10.1991 (LUMO)
        69                         -0.3339830              -9.0881
        70                         -0.3237909              -8.8108
        71                         -0.2959129              -8.0522
        72                         -0.2542386              -6.9182
        73                         -0.2499921              -6.8026
        74                         -0.1709116              -4.6507
        75                         -0.1689145              -4.5964
        76                         -0.1684502              -4.5838
        77                         -0.1495183              -4.0686
        78                         -0.1413402              -3.8461
       ...                                ...                  ...
       136                          0.7214243              19.6310
      -------------------------------------------------------------
                  HL-Gap            0.0648488 Eh            1.7646 eV

Wiberg/Mayer (AO) data.
largest (>0.10) Wiberg bond orders for each atom

     #   Z sym  total        # sym  WBO       # sym  WBO       # sym  WBO
 ---------------------------------------------------------------------------
     1   6 C    3.863 --    26 H    0.987    28 H    0.978    27 H    0.978
                             2 O    0.889
     2   8 O    2.215 --     3 C    1.135     1 C    0.889     4 O    0.130
     3   6 C    3.850 --     4 O    1.612     2 O    1.135     5 C    1.019
     4   8 O    1.948 --     3 C    1.612     2 O    0.130
     5   6 C    3.960 --    24 C    1.489     6 N    1.166     3 C    1.019
     6   7 N    3.056 --     7 C    1.586     5 C    1.166
     7   6 C    3.936 --     6 N    1.586    21 N    1.181     8 C    0.983
     8   6 C    3.921 --     7 C    0.983    10 C    0.980     9 C    0.975
                            11 N    0.916
     9   6 C    3.983 --    31 H    0.984    29 H    0.982    30 H    0.978
                             8 C    0.975
    10   6 C    3.983 --    33 H    0.984    34 H    0.981     8 C    0.980
                            32 H    0.978
    11   7 N    3.413 --    12 C    1.328     8 C    0.916    35 H    0.861
                            13 O    0.204
    12   6 C    3.931 --    13 O    1.573    11 N    1.328    14 C    0.955
    13   8 O    1.934 --    12 C    1.573    11 N    0.204
    14   6 C    3.841 --    19 N    1.454    15 O    1.129    12 C    0.955
    15   8 O    2.372 --    14 C    1.129    16 C    1.068
    16   6 C    3.840 --    18 N    1.572    15 O    1.068    17 C    1.043
    17   6 C    3.970 --    16 C    1.043    38 H    0.977    37 H    0.950
                            36 H    0.950
    18   7 N    2.967 --    16 C    1.572    19 N    1.160
    19   7 N    3.660 --    14 C    1.454    18 N    1.160    20 C    0.908
    20   6 C    3.879 --    41 H    0.980    40 H    0.963    39 H    0.962
                            19 N    0.908
    21   7 N    3.459 --     7 C    1.181    22 C    1.108    42 H    0.882
                            23 O    0.134
    22   6 C    3.906 --    23 O    1.618    21 N    1.108    24 C    1.050
    23   8 O    1.916 --    22 C    1.618    21 N    0.134
    24   6 C    3.922 --     5 C    1.489    25 O    1.136    22 C    1.050
    25   8 O    2.102 --    24 C    1.136    43 H    0.773
    26   1 H    1.011 --     1 C    0.987
    27   1 H    1.005 --     1 C    0.978
    28   1 H    1.005 --     1 C    0.978
    29   1 H    0.997 --     9 C    0.982
    30   1 H    1.003 --     9 C    0.978
    31   1 H    0.999 --     9 C    0.984
    32   1 H    1.002 --    10 C    0.978
    33   1 H    0.999 --    10 C    0.984
    34   1 H    0.997 --    10 C    0.981
    35   1 H    0.947 --    11 N    0.861
    36   1 H    0.990 --    17 C    0.950
    37   1 H    0.989 --    17 C    0.950
    38   1 H    0.990 --    17 C    0.977
    39   1 H    0.998 --    20 C    0.962
    40   1 H    0.998 --    20 C    0.963
    41   1 H    0.994 --    20 C    0.980
    42   1 H    0.927 --    21 N    0.882
    43   1 H    0.848 --    25 O    0.773
 ---------------------------------------------------------------------------

           -------------------------------------------------
          | TOTAL ENERGY              -83.189184570867 Eh   |
          | GRADIENT NORM               0.000289997263 Eh/α |
          | HOMO-LUMO GAP               1.764625099224 eV   |
           -------------------------------------------------

 * finished run on 2023/06/20 at 15:25:24.607
