   * xtb version 6.5.1 (579679a) compiled by 'ehlert@majestix' on 2022-07-11
          program call               : /lustre/hpc/kemi/ree/PhD/git/ReactivityQM/dep/xtb-6.5.1/bin/xtb --gfn 1 /lustre/hpc/kemi/ree/PhD/git/ReactivityQM/calculations/R01/reac01/conf08/R01_reac01_conf08_gfn1.xyz --opt --vfukui --chrg 0 --uhf 0 --alpb DMSO

   ID    Z sym.   atoms
    1    6 C      1, 3, 5, 8, 9
    2    8 O      2, 4, 10
    3    7 N      6, 7
    4    1 H      11-16

      * Solvation model:               ALPB
        Solvent                        DMSO
        Solvent mass                       7.8130E+01 g/mol
          :  Hamiltonian                  GFN1-xTB          :
 * total energy  :   -34.2877194 Eh     change       -0.2195577E-11 Eh
 * total energy  :   -34.2931328 Eh     change       -0.5413393E-02 Eh
 * total energy  :   -34.2951904 Eh     change       -0.2057533E-02 Eh
 * total energy  :   -34.2957447 Eh     change       -0.5542816E-03 Eh
 * total energy  :   -34.2961416 Eh     change       -0.3969482E-03 Eh
 * total energy  :   -34.2963583 Eh     change       -0.2167430E-03 Eh
 * total energy  :   -34.2965047 Eh     change       -0.1463942E-03 Eh
 * total energy  :   -34.2966021 Eh     change       -0.9730815E-04 Eh
 * total energy  :   -34.2966516 Eh     change       -0.4959130E-04 Eh
 * total energy  :   -34.2966771 Eh     change       -0.2541013E-04 Eh
 * total energy  :   -34.2966825 Eh     change       -0.5429310E-05 Eh
 * total energy  :   -34.2966866 Eh     change       -0.4133804E-05 Eh
   *** GEOMETRY OPTIMIZATION CONVERGED AFTER 12 ITERATIONS ***

 final structure:
================
16
 xtb: 6.5.1 (579679a)
C            3.23392973749886        0.70129064412909       -0.25596234956478
O            1.82939675217965        0.49092365043315       -0.06599292773787
C            1.45315634641656       -0.72042364791222        0.31819856528754
O            2.20358316727362       -1.64524166107682        0.51581692456260
C           -0.01714836203144       -0.81466381158233        0.48287968011942
N           -0.69320746667184       -1.85410824793909        0.87219611158632
N           -2.00084522157085       -1.48989773858826        0.88188862980745
C           -2.04652085354635       -0.24862918109596        0.49660826014573
C           -3.24290108687890        0.60413906644727        0.32994214224112
O           -0.82699899061659        0.23371614637036        0.23069446358451
H            3.60404560936824        0.04526198079916       -1.04631434230916
H            3.77040075185086        0.49384886864677        0.67222414569806
H            3.35159037758232        1.74431621367367       -0.53981505507598
H           -3.46755624338883        0.72264065214664       -0.73109376124088
H           -4.09507966408805        0.14492013526384        0.82530230026589
H           -3.05584585337723        1.59190593028470        0.74793321263005

          :  Hamiltonian                  GFN1-xTB          :
         :: total energy             -34.296686615767 Eh    ::
         :: gradient norm              0.000651336727 Eh/a0 ::
         :: HOMO-LUMO gap              3.730337656025 eV    ::
         :: SCC energy               -34.589826784088 Eh    ::
         :: -> Gsolv                  -0.021499874567 Eh    ::
         :: repulsion energy           0.299101396600 Eh    ::

    * Orbital Energies and Occupations

         #    Occupation            Energy/Eh            Energy/eV
      -------------------------------------------------------------
         1        2.0000           -0.8708143             -23.6961
       ...           ...                  ...                  ...
        15        2.0000           -0.5965358             -16.2326
        16        2.0000           -0.5708290             -15.5330
        17        2.0000           -0.5648298             -15.3698
        18        2.0000           -0.5497322             -14.9590
        19        2.0000           -0.5483708             -14.9219
        20        2.0000           -0.5372454             -14.6192
        21        2.0000           -0.5203499             -14.1594
        22        2.0000           -0.5119799             -13.9317
        23        2.0000           -0.5037743             -13.7084
        24        2.0000           -0.4942751             -13.4499
        25        2.0000           -0.4836437             -13.1606
        26        2.0000           -0.4619390             -12.5700
        27        2.0000           -0.4603722             -12.5274 (HOMO)
        28                         -0.3232848              -8.7970 (LUMO)
        29                         -0.2624139              -7.1406
        30                         -0.2088351              -5.6827
        31                         -0.1450490              -3.9470
        32                         -0.1402831              -3.8173
        33                         -0.0773199              -2.1040
        34                         -0.0767754              -2.0892
        35                         -0.0762322              -2.0744
        36                         -0.0755944              -2.0570
        37                          0.0030302               0.0825
        38                          0.0388753               1.0579
       ...                                ...                  ...
        52                          0.7385182              20.0961
      -------------------------------------------------------------
                  HL-Gap            0.1370874 Eh            3.7303 eV

Wiberg/Mayer (AO) data.
largest (>0.10) Wiberg bond orders for each atom

     #   Z sym  total        # sym  WBO       # sym  WBO       # sym  WBO
 ---------------------------------------------------------------------------
     1   6 C    3.861 --    13 H    0.985    12 H    0.979    11 H    0.979
                             2 O    0.887
     2   8 O    2.217 --     3 C    1.132     1 C    0.887     4 O    0.142
     3   6 C    3.866 --     4 O    1.661     2 O    1.132     5 C    0.991
     4   8 O    1.931 --     3 C    1.661     2 O    0.142
     5   6 C    3.880 --     6 N    1.607    10 O    1.055     3 C    0.991
     6   7 N    3.005 --     5 C    1.607     7 N    1.216
     7   7 N    2.981 --     8 C    1.590     6 N    1.216
     8   6 C    3.868 --     7 N    1.590    10 O    1.090     9 C    1.032
     9   6 C    3.985 --     8 C    1.032    15 H    0.981    16 H    0.969
                            14 H    0.957
    10   8 O    2.329 --     8 C    1.090     5 C    1.055
    11   1 H    1.004 --     1 C    0.979
    12   1 H    1.005 --     1 C    0.979
    13   1 H    1.009 --     1 C    0.985
    14   1 H    0.996 --     9 C    0.957
    15   1 H    0.998 --     9 C    0.981
    16   1 H    0.996 --     9 C    0.969
 ---------------------------------------------------------------------------

           -------------------------------------------------
          | TOTAL ENERGY              -34.296686615767 Eh   |
          | GRADIENT NORM               0.000651336727 Eh/α |
          | HOMO-LUMO GAP               3.730337656025 eV   |
           -------------------------------------------------

 * finished run on 2023/06/20 at 14:51:55.628
