   * xtb version 6.5.1 (579679a) compiled by 'ehlert@majestix' on 2022-07-11
          program call               : /lustre/hpc/kemi/ree/PhD/git/ReactivityQM/dep/xtb-6.5.1/bin/xtb --gfn 1 /lustre/hpc/kemi/ree/PhD/git/ReactivityQM/calculations/R02/reac01prodE03/conf14/R02_reac01prodE03_conf14_gfn1.xyz --opt --vfukui --chrg -1 --uhf 0 --alpb DMSO

   ID    Z sym.   atoms
    1    6 C      1, 3, 5, 6, 8-11, 13, 15, 18, 19, 22, 24
    2    8 O      2, 4, 14, 20, 23, 25
    3    7 N      7, 12, 16, 17, 21
    4    1 H      26-43

      * Solvation model:               ALPB
        Solvent                        DMSO
        Solvent mass                       7.8130E+01 g/mol
          :  Hamiltonian                  GFN1-xTB          :
 * total energy  :   -83.8098413 Eh     change       -0.5152998E-09 Eh
 * total energy  :   -83.8258686 Eh     change       -0.1602733E-01 Eh
 * total energy  :   -83.8326074 Eh     change       -0.6738747E-02 Eh
 * total energy  :   -83.8342430 Eh     change       -0.1635657E-02 Eh
 * total energy  :   -83.8349349 Eh     change       -0.6919179E-03 Eh
 * total energy  :   -83.8352063 Eh     change       -0.2713926E-03 Eh
 * total energy  :   -83.8354583 Eh     change       -0.2519432E-03 Eh
 * total energy  :   -83.8357543 Eh     change       -0.2960755E-03 Eh
 * total energy  :   -83.8360748 Eh     change       -0.3204644E-03 Eh
 * total energy  :   -83.8364764 Eh     change       -0.4015847E-03 Eh
 * total energy  :   -83.8413315 Eh     change       -0.6702223E-04 Eh
 * total energy  :   -83.8413614 Eh     change       -0.2990690E-04 Eh
 * total energy  :   -83.8413711 Eh     change       -0.9634753E-05 Eh
 * total energy  :   -83.8413910 Eh     change       -0.1990303E-04 Eh
 * total energy  :   -83.8414057 Eh     change       -0.1478081E-04 Eh
 * total energy  :   -83.8414240 Eh     change       -0.1827769E-04 Eh
 * total energy  :   -83.8414329 Eh     change       -0.8905782E-05 Eh
 * total energy  :   -83.8414414 Eh     change       -0.8493787E-05 Eh
 * total energy  :   -83.8414442 Eh     change       -0.2768870E-05 Eh
   *** GEOMETRY OPTIMIZATION CONVERGED AFTER 79 ITERATIONS ***

 final structure:
================
43
 xtb: 6.5.1 (579679a)
C           -5.33461954904938       -2.60882899870969        0.64978888561340
O           -4.86017248098323       -1.28495727793309        0.87561861528490
C           -3.74424906599647       -0.91837621208746        0.11556269078964
O           -3.93884139089021       -0.99284486408326       -1.26254688019782
C           -4.27694331735638        0.23263258249152       -1.90564193833356
C           -2.58780847407622       -0.44355030281792        0.67105290524204
N           -1.62123630747620        0.00743093879030       -0.24775976856091
C           -0.52030461842882        0.50914028837292        0.18707610725885
C            0.49080635094685        1.02754490020076       -0.83433688586239
C            0.55218665898317        2.55898978897759       -0.77343165767353
C            0.07243814746131        0.58538372381716       -2.23857989687556
N            1.81303615707119        0.43333656220690       -0.58733473058667
C            2.74430053300825        0.86665810578526        0.28826329896046
O            2.59742955908687        1.75587484010938        1.11825446830315
C            4.00050114649643        0.09879148553876        0.14235959129044
N            4.19962840817041       -0.91012605405279       -0.66073564258002
N            5.48874714551654       -1.31533403656253       -0.46946794815685
C            5.99393757829545       -0.53224236279353        0.43284079749920
C            7.36870084404387       -0.55893785977340        0.98110894709359
O            5.10736838667900        0.37965463080394        0.86408201013429
N           -0.21500596693006        0.63141530357510        1.49664048923974
C           -1.08721154437555        0.18146192258168        2.54094254922904
O           -0.68058771476432        0.31770697040329        3.71866510959465
C           -2.28117224724562       -0.35390951120051        2.07068925910343
O           -3.18468750565974       -0.84418787033615        3.02731015267979
H           -5.56282345338066       -2.76687134862237       -0.41052969173432
H           -6.24774449234293       -2.72684667929266        1.23420965954635
H           -4.59533467319919       -3.35345978348431        0.97297475727714
H           -5.17596036795810        0.68119918738403       -1.46552247695956
H           -3.44704396453903        0.94750656172746       -1.83555930847755
H           -4.46560095562206        0.00393284894536       -2.95602651187801
H            0.73590683660335        2.90875888685391        0.24023075281293
H           -0.40095788218475        2.96203645874419       -1.11287892425374
H            1.34273266604701        2.92814367887914       -1.42438342333848
H            0.79766294668850        0.93078613242581       -2.97301821155044
H           -0.90312585842190        1.00611587685243       -2.47702860480994
H           -0.00170577545358       -0.50043047770880       -2.28822697087138
H            2.09824167656418       -0.29386336953599       -1.22641191549919
H            7.94884798812088       -1.32461522137164        0.47236364592485
H            7.84433599886394        0.41143861344571        0.84203230077446
H            7.34385547471407       -0.77227252433722        2.04983874898937
H            0.65350580205389        1.05906480414492        1.78404860913495
H           -4.06103369906465       -0.92334933835141        2.61927303642817

          :  Hamiltonian                  GFN1-xTB          :
         :: total energy             -83.841444191445 Eh    ::
         :: gradient norm              0.000648630276 Eh/a0 ::
         :: HOMO-LUMO gap              0.153865418553 eV    ::
         :: SCC energy               -84.599172383120 Eh    ::
         :: -> Gsolv                  -0.119569530910 Eh    ::
         :: repulsion energy           0.783944426577 Eh    ::

    * Orbital Energies and Occupations

         #    Occupation            Energy/Eh            Energy/eV
      -------------------------------------------------------------
         1        2.0000           -0.8513291             -23.1658
       ...           ...                  ...                  ...
        56        2.0000           -0.4713909             -12.8272
        57        2.0000           -0.4698966             -12.7865
        58        2.0000           -0.4516246             -12.2893
        59        2.0000           -0.4482104             -12.1964
        60        2.0000           -0.4419971             -12.0274
        61        2.0000           -0.4396721             -11.9641
        62        2.0000           -0.4384641             -11.9312
        63        2.0000           -0.4315627             -11.7434
        64        2.0000           -0.4234289             -11.5221
        65        2.0000           -0.3931267             -10.6975
        66        2.0000           -0.3878414             -10.5537
        67        2.0000           -0.3718751             -10.1192
        68        1.9029           -0.3044169              -8.2836 (HOMO)
        69        0.0971           -0.2987624              -8.1297 (LUMO)
        70                         -0.2474728              -6.7341
        71                         -0.2278375              -6.1998
        72                         -0.1931043              -5.2546
        73                         -0.1850238              -5.0348
        74                         -0.1386047              -3.7716
        75                         -0.1219063              -3.3172
        76                         -0.1162139              -3.1623
        77                         -0.1132665              -3.0821
        78                         -0.1099852              -2.9929
        79                         -0.0911474              -2.4802
       ...                                ...                  ...
       136                          0.7238284              19.6964
      -------------------------------------------------------------
                  HL-Gap            0.0056545 Eh            0.1539 eV

Wiberg/Mayer (AO) data.
largest (>0.10) Wiberg bond orders for each atom

     #   Z sym  total        # sym  WBO       # sym  WBO       # sym  WBO
 ---------------------------------------------------------------------------
     1   6 C    3.909 --    27 H    0.986    28 H    0.983    26 H    0.983
                             2 O    0.930
     2   8 O    2.045 --     3 C    0.935     1 C    0.930
     3   6 C    3.706 --     6 C    1.517     4 O    0.947     2 O    0.935
     4   8 O    2.013 --     3 C    0.947     5 C    0.931
     5   6 C    3.913 --    31 H    0.986    29 H    0.983    30 H    0.980
                             4 O    0.931
     6   6 C    3.951 --     3 C    1.517    24 C    1.174     7 N    1.072
     7   7 N    3.002 --     8 C    1.614     6 C    1.072    21 N    0.135
     8   6 C    3.948 --     7 N    1.614    21 N    1.209     9 C    0.959
     9   6 C    3.931 --    11 C    1.001    10 C    0.987     8 C    0.959
                            12 N    0.914
    10   6 C    3.991 --     9 C    0.987    33 H    0.985    34 H    0.985
                            32 H    0.980
    11   6 C    3.994 --     9 C    1.001    35 H    0.987    37 H    0.983
                            36 H    0.981
    12   7 N    3.326 --    13 C    1.250     9 C    0.914    38 H    0.901
                            14 O    0.173
    13   6 C    3.888 --    14 O    1.551    12 N    1.250    15 C    1.005
    14   8 O    1.873 --    13 C    1.551    12 N    0.173
    15   6 C    3.834 --    16 N    1.578    20 O    1.050    13 C    1.005
    16   7 N    2.965 --    15 C    1.578    17 N    1.193
    17   7 N    2.979 --    18 C    1.613    16 N    1.193
    18   6 C    3.863 --    17 N    1.613    20 O    1.078    19 C    1.030
    19   6 C    3.988 --    18 C    1.030    39 H    0.983    40 H    0.966
                            41 H    0.964
    20   8 O    2.305 --    18 C    1.078    15 C    1.050
    21   7 N    3.371 --     8 C    1.209    22 C    0.962    42 H    0.893
                             7 N    0.135
    22   6 C    3.896 --    23 O    1.419    24 C    1.363    21 N    0.962
    23   8 O    1.714 --    22 C    1.419    24 C    0.130
    24   6 C    3.802 --    22 C    1.363     6 C    1.174    25 O    0.967
                            23 O    0.130
    25   8 O    1.927 --    24 C    0.967    43 H    0.847
    26   1 H    1.020 --     1 C    0.983
    27   1 H    1.018 --     1 C    0.986
    28   1 H    1.015 --     1 C    0.983
    29   1 H    1.014 --     5 C    0.983
    30   1 H    1.031 --     5 C    0.980
    31   1 H    1.019 --     5 C    0.986
    32   1 H    1.015 --    10 C    0.980
    33   1 H    1.004 --    10 C    0.985
    34   1 H    1.002 --    10 C    0.985
    35   1 H    1.002 --    11 C    0.987
    36   1 H    1.017 --    11 C    0.981
    37   1 H    1.009 --    11 C    0.983
    38   1 H    0.959 --    12 N    0.901
    39   1 H    1.000 --    19 C    0.983
    40   1 H    0.998 --    19 C    0.966
    41   1 H    0.997 --    19 C    0.964
    42   1 H    0.959 --    21 N    0.893
    43   1 H    0.898 --    25 O    0.847
 ---------------------------------------------------------------------------

           -------------------------------------------------
          | TOTAL ENERGY              -83.841444191445 Eh   |
          | GRADIENT NORM               0.000648630276 Eh/α |
          | HOMO-LUMO GAP               0.153865418553 eV   |
           -------------------------------------------------

 * finished run on 2023/06/20 at 14:55:25.013
