   * xtb version 6.5.1 (579679a) compiled by 'ehlert@majestix' on 2022-07-11
          program call               : /lustre/hpc/kemi/ree/PhD/applications/universalRXNpredictor/dep/xtb-6.5.1/bin/xtb --gfn 1 /lustre/hpc/kemi/ree/PhD/applications/universalRXNpredictor/src/uniRXNpred/ref_calcs/calc/methyl_anion/methyl_anion.xyz --opt --vfukui --lmo --chrg -1 --uhf 0 --alpb DMSO

   ID    Z sym.   atoms
    1    6 C      1
    2    1 H      2-4

      * Solvation model:               ALPB
        Solvent                        DMSO
        Solvent mass                       7.8130E+01 g/mol
          :  Hamiltonian                  GFN1-xTB          :
 * total energy  :    -3.9178504 Eh     change       -0.2270184E-11 Eh
 * total energy  :    -3.9217870 Eh     change       -0.3936611E-02 Eh
 * total energy  :    -3.9227535 Eh     change       -0.9664607E-03 Eh
 * total energy  :    -3.9229970 Eh     change       -0.2434911E-03 Eh
 * total energy  :    -3.9229994 Eh     change       -0.2408402E-05 Eh
 * total energy  :    -3.9230016 Eh     change       -0.2221048E-05 Eh
   *** GEOMETRY OPTIMIZATION CONVERGED AFTER 6 ITERATIONS ***

 final structure:
================
4
 xtb: 6.5.1 (579679a)
C            0.00110000436723        0.00038900846934        0.30563342656198
H            0.98348912364015       -0.22584606263776       -0.10530923917067
H           -0.68787993071382       -0.73941820061713       -0.09832118602195
H           -0.29670919729357        0.96487525478555       -0.10200300136937

          :  Hamiltonian                  GFN1-xTB          :
         :: total energy              -3.923001615610 Eh    ::
         :: gradient norm              0.000058291867 Eh/a0 ::
         :: HOMO-LUMO gap              6.857220167660 eV    ::
         :: SCC energy                -3.972920646329 Eh    ::
         :: -> Gsolv                  -0.099032472324 Eh    ::
         :: repulsion energy           0.050243514894 Eh    ::

    * Orbital Energies and Occupations

         #    Occupation            Energy/Eh            Energy/eV
      -------------------------------------------------------------
         1        2.0000           -0.4733151             -12.8796
         2        2.0000           -0.3754146             -10.2156
         3        2.0000           -0.3753916             -10.2149
         4        2.0000           -0.2476235              -6.7382 (HOMO)
         5                          0.0043747               0.1190 (LUMO)
         6                          0.0761612               2.0725
         7                          0.0761739               2.0728
         8                          0.3921045              10.6697
         9                          0.3922217              10.6729
        10                          0.6090027              16.5718
      -------------------------------------------------------------
                  HL-Gap            0.2519982 Eh            6.8572 eV

Wiberg/Mayer (AO) data.
largest (>0.10) Wiberg bond orders for each atom

     #   Z sym  total        # sym  WBO       # sym  WBO       # sym  WBO
 ---------------------------------------------------------------------------
     1   6 C    3.035 --     3 H    1.012     4 H    1.012     2 H    1.012
     2   1 H    1.018 --     1 C    1.012
     3   1 H    1.018 --     1 C    1.012
     4   1 H    1.018 --     1 C    1.012
 ---------------------------------------------------------------------------

           -------------------------------------------------
          | TOTAL ENERGY               -3.923001615610 Eh   |
          | GRADIENT NORM               0.000058291867 Eh/α |
          | HOMO-LUMO GAP               6.857220167660 eV   |
           -------------------------------------------------

 * finished run on 2022/12/19 at 14:21:08.603
