                         Program Version 5.0.1 -  RELEASE  -
|  1> # ORCA input file
|  2> ! OPT NumFreq r2SCAN-3c CPCM
|  3>
|  4> %maxcore 7500.0
|  5> %pal nprocs True end
|  6> %cpcm smd true SMDsolvent "DMSO" end
|  7>
|  8> *xyz -1 1
|  9> C       0.001100    0.000389    0.305633
| 10> H       0.983489   -0.225846   -0.105309
| 11> H      -0.687880   -0.739418   -0.098321
| 12> H      -0.296709    0.964875   -0.102003
| 13> **                         ****END OF INPUT****
 Total Charge           Charge          ....   -1
 Multiplicity           Mult            ....    1
 Number of Electrons    NEL             ....   10
Dispersion correction           -0.000278854
FINAL SINGLE POINT ENERGY       -39.927165477763
Dispersion correction            ... Starting D4
Dispersion correction           -0.000279360
FINAL SINGLE POINT ENERGY       -39.927550974720
Dispersion correction            ... Starting D4
Dispersion correction           -0.000279397
FINAL SINGLE POINT ENERGY       -39.927564780312
Dispersion correction            ... Starting D4
Dispersion correction           -0.000279408
FINAL SINGLE POINT ENERGY       -39.927573576077
Dispersion correction            ... Starting D4
Dispersion correction           -0.000279398
FINAL SINGLE POINT ENERGY       -39.927573989591
Dispersion correction            ... Starting D4
                    ***********************HURRAY********************

CARTESIAN COORDINATES (ANGSTROEM)
---------------------------------
  C      0.000917    0.000224    0.317963
  H      0.993438   -0.227606   -0.109502
  H     -0.695166   -0.747218   -0.102317
  H     -0.299188    0.974601   -0.106144

 Multiplicity           Mult            ....    1
 Number of Electrons    NEL             ....   10
 Basis Dimension        Dim             ....   34

ORBITAL ENERGIES
----------------

  NO   OCC          E(Eh)            E(eV)
   0   2.0000      -9.942620      -270.5524
   1   2.0000      -0.569592       -15.4994
   2   2.0000      -0.297063        -8.0835
   3   2.0000      -0.296851        -8.0777
   4   2.0000      -0.131012        -3.5650
   5   0.0000       0.121723         3.3123
   6   0.0000       0.190421         5.1816
   7   0.0000       0.190578         5.1859
   8   0.0000       0.247532         6.7357
   9   0.0000       0.253986         6.9113

MULLIKEN ATOMIC CHARGES
-----------------------
   0 C :   -1.338551
   1 H :    0.112807
   2 H :    0.112996
   3 H :    0.112748
Sum of atomic charges:   -1.0000000

LOEWDIN ATOMIC CHARGES
----------------------
   0 C :   -1.331977
   1 H :    0.110659
   2 H :    0.110689
   3 H :    0.110629

  Mayer bond orders larger than 0.100000
B(  0-C ,  1-H ) :   0.9813 B(  0-C ,  2-H ) :   0.9812 B(  0-C ,  3-H ) :   0.9813

Dispersion correction           -0.000279394
FINAL SINGLE POINT ENERGY       -39.927574010800

DIPOLE MOMENT
-------------
                                X             Y             Z
Electronic contribution:     -0.00085      -0.00003      -0.14824
Nuclear contribution   :     -0.00275      -0.00067      -0.95323
                        -----------------------------------------
Total Dipole Moment    :     -0.00360      -0.00070      -1.10147
                        -----------------------------------------
Magnitude (a.u.)       :      1.10147
Magnitude (Debye)      :      2.79972

VIBRATIONAL FREQUENCIES
-----------------------

Scaling factor for frequencies =  1.000000000 (already applied!)

   0:         0.00 cm**-1
   1:         0.00 cm**-1
   2:         0.00 cm**-1
   3:         0.00 cm**-1
   4:         0.00 cm**-1
   5:         0.00 cm**-1
   6:       944.45 cm**-1
   7:      1425.30 cm**-1
   8:      1432.68 cm**-1
   9:      2924.48 cm**-1
  10:      3002.79 cm**-1
  11:      3003.54 cm**-1

IR SPECTRUM
-----------

 Mode   freq       eps      Int      T**2         TX        TY        TZ
       cm**-1   L/(mol*cm) km/mol    a.u.
----------------------------------------------------------------------------
  6:    944.45   0.038274  193.42  0.012646  ( 0.000146 -0.000082  0.112456)
  7:   1425.30   0.000569    2.88  0.000125  ( 0.009681 -0.005526  0.000627)
  8:   1432.68   0.000536    2.71  0.000117  (-0.005666 -0.009195 -0.000430)
  9:   2924.48   0.016017   80.94  0.001709  ( 0.000247  0.000115 -0.041341)
 10:   3002.79   0.025632  129.53  0.002664  (-0.038073  0.034845  0.000263)
 11:   3003.54   0.025917  130.97  0.002693  (-0.035181 -0.038143 -0.000389)

--------------------------
THERMOCHEMISTRY AT 298.15K
--------------------------

Temperature         ... 298.15 K
Pressure            ... 1.00 atm
Total Mass          ... 15.03 AMU

Throughout the following assumptions are being made:
  (1) The electronic state is orbitally nondegenerate
  (2) There are no thermally accessible electronically excited states
  (3) Hindered rotations indicated by low frequency modes are not
      treated as such but are treated as vibrations and this may
      cause some error
  (4) All equations used are the standard statistical mechanics
      equations for an ideal gas
  (5) All vibrations are strictly harmonic

freq.     944.45  E(vib)   ...       0.03
freq.    1425.30  E(vib)   ...       0.00
freq.    1432.68  E(vib)   ...       0.00
freq.    2924.48  E(vib)   ...       0.00
freq.    3002.79  E(vib)   ...       0.00
freq.    3003.54  E(vib)   ...       0.00

------------
INNER ENERGY
------------

The inner energy is: U= E(el) + E(ZPE) + E(vib) + E(rot) + E(trans)
    E(el)   - is the total energy from the electronic structure calculation
              = E(kin-el) + E(nuc-el) + E(el-el) + E(nuc-nuc)
    E(ZPE)  - the the zero temperature vibrational energy from the frequency calculation
    E(vib)  - the the finite temperature correction to E(ZPE) due to population
              of excited vibrational states
    E(rot)  - is the rotational thermal energy
    E(trans)- is the translational thermal energy

Summary of contributions to the inner energy U:
Electronic energy                ...    -39.92757401 Eh
Zero point energy                ...      0.02900846 Eh      18.20 kcal/mol
Thermal vibrational correction   ...      0.00005883 Eh       0.04 kcal/mol
Thermal rotational correction    ...      0.00141627 Eh       0.89 kcal/mol
Thermal translational correction ...      0.00141627 Eh       0.89 kcal/mol
-----------------------------------------------------------------------
Total thermal energy                    -39.89567418 Eh

Summary of corrections to the electronic energy:
(perhaps to be used in another calculation)
Total thermal correction                  0.00289137 Eh       1.81 kcal/mol
Non-thermal (ZPE) correction              0.02900846 Eh      18.20 kcal/mol
-----------------------------------------------------------------------
Total correction                          0.03189983 Eh      20.02 kcal/mol

--------
ENTHALPY
--------

The enthalpy is H = U + kB*T
                kB is Boltzmann's constant
Total free energy                 ...    -39.89567418 Eh
Thermal Enthalpy correction       ...      0.00094421 Eh       0.59 kcal/mol
-----------------------------------------------------------------------
Total Enthalpy                    ...    -39.89472997 Eh

Note: Only C1 symmetry has been detected, increase convergence thresholds
      if your molecule has a higher symmetry. Symmetry factor of 1.0 is
      used for the rotational entropy correction.

Note: Rotational entropy computed according to Herzberg
Infrared and Raman Spectra, Chapter V,1, Van Nostrand Reinhold, 1945
Point Group:  C1, Symmetry Number:   1
Rotational constants in cm-1:     8.408791     8.393998     5.360722

Vibrational entropy computed according to the QRRHO of S. Grimme
Chem.Eur.J. 2012 18 9955

-------
ENTROPY
-------

The entropy contributions are T*S = T*(S(el)+S(vib)+S(rot)+S(trans))
     S(el)   - electronic entropy
     S(vib)  - vibrational entropy
     S(rot)  - rotational entropy
     S(trans)- translational entropy
The entropies will be listed as multiplied by the temperature to get
units of energy

Electronic entropy                ...      0.00000000 Eh      0.00 kcal/mol
Vibrational entropy               ...      0.00007073 Eh      0.04 kcal/mol
Rotational entropy                ...      0.00670853 Eh      4.21 kcal/mol
Translational entropy             ...      0.01618771 Eh     10.16 kcal/mol
-----------------------------------------------------------------------
Final entropy term                ...      0.02296697 Eh     14.41 kcal/mol

In case the symmetry of your molecule has not been determined correctly
or in case you have a reason to use a different symmetry number we print
out the resulting rotational entropy values for sn=1,12 :
 --------------------------------------------------------
|  sn= 1 | S(rot)=       0.00670853 Eh      4.21 kcal/mol|
|  sn= 2 | S(rot)=       0.00605408 Eh      3.80 kcal/mol|
|  sn= 3 | S(rot)=       0.00567124 Eh      3.56 kcal/mol|
|  sn= 4 | S(rot)=       0.00539962 Eh      3.39 kcal/mol|
|  sn= 5 | S(rot)=       0.00518893 Eh      3.26 kcal/mol|
|  sn= 6 | S(rot)=       0.00501679 Eh      3.15 kcal/mol|
|  sn= 7 | S(rot)=       0.00487124 Eh      3.06 kcal/mol|
|  sn= 8 | S(rot)=       0.00474516 Eh      2.98 kcal/mol|
|  sn= 9 | S(rot)=       0.00463395 Eh      2.91 kcal/mol|
|  sn=10 | S(rot)=       0.00453447 Eh      2.85 kcal/mol|
|  sn=11 | S(rot)=       0.00444448 Eh      2.79 kcal/mol|
|  sn=12 | S(rot)=       0.00436233 Eh      2.74 kcal/mol|
 --------------------------------------------------------

-------------------
GIBBS FREE ENERGY
-------------------

The Gibbs free energy is G = H - T*S

Total enthalpy                    ...    -39.89472997 Eh
Total entropy correction          ...     -0.02296697 Eh    -14.41 kcal/mol
-----------------------------------------------------------------------
Final Gibbs free energy         ...    -39.91769694 Eh

For completeness - the Gibbs free energy minus the electronic energy
G-E(el)                           ...      0.00987707 Eh      6.20 kcal/mol

                             ****ORCA TERMINATED NORMALLY****
TOTAL RUN TIME: 0 days 0 hours 6 minutes 2 seconds 740 msec
