   * xtb version 6.5.1 (579679a) compiled by 'ehlert@majestix' on 2022-07-11
          program call               : /lustre/hpc/kemi/ree/PhD/git/ReactivityQM/dep/xtb-6.5.1/bin/xtb --gfn 1 /lustre/hpc/kemi/ree/PhD/git/ReactivityQM/calculations/RaltegravirCLI/reac02prodE06/conf07/RaltegravirCLI_reac02prodE06_conf07_gfn1.xyz --opt --vfukui --chrg -1 --uhf 0 --alpb DMSO

   ID    Z sym.   atoms
    1    6 C      1, 3-6, 9, 10, 13-18, 20-22, 24
    2    7 N      2, 7, 8, 12
    3    8 O      11, 23, 25
    4    9 F      19
    5    1 H      26-47

      * Solvation model:               ALPB
        Solvent                        DMSO
        Solvent mass                       7.8130E+01 g/mol
          :  Hamiltonian                  GFN1-xTB          :
 * total energy  :   -80.1743004 Eh     change       -0.2472689E-11 Eh
 * total energy  :   -80.1809946 Eh     change       -0.6694290E-02 Eh
 * total energy  :   -80.1826768 Eh     change       -0.1682196E-02 Eh
 * total energy  :   -80.1830546 Eh     change       -0.3777944E-03 Eh
 * total energy  :   -80.1834373 Eh     change       -0.3826763E-03 Eh
 * total energy  :   -80.1836994 Eh     change       -0.2620382E-03 Eh
 * total energy  :   -80.1839846 Eh     change       -0.2852746E-03 Eh
 * total energy  :   -80.1842562 Eh     change       -0.2715927E-03 Eh
 * total energy  :   -80.1845511 Eh     change       -0.2949276E-03 Eh
 * total energy  :   -80.1848345 Eh     change       -0.2833205E-03 Eh
 * total energy  :   -80.1879036 Eh     change       -0.1100642E-04 Eh
 * total energy  :   -80.1879141 Eh     change       -0.1049304E-04 Eh
 * total energy  :   -80.1879237 Eh     change       -0.9537075E-05 Eh
 * total energy  :   -80.1879319 Eh     change       -0.8234576E-05 Eh
 * total energy  :   -80.1879388 Eh     change       -0.6946303E-05 Eh
 * total energy  :   -80.1879449 Eh     change       -0.6096825E-05 Eh
 * total energy  :   -80.1879505 Eh     change       -0.5581481E-05 Eh
 * total energy  :   -80.1879562 Eh     change       -0.5687981E-05 Eh
 * total energy  :   -80.1879595 Eh     change       -0.3342342E-05 Eh
   *** GEOMETRY OPTIMIZATION CONVERGED AFTER 94 ITERATIONS ***

 final structure:
================
47
 xtb: 6.5.1 (579679a)
C           -4.43367487834775       -0.92282150593256        1.92444765085974
N           -3.14775087172912       -0.71396649209643        1.26446390236745
C           -2.99028783838785        0.01884448459396        0.10833433049719
C           -4.17936208193002        0.61315678168368       -0.64105153535769
C           -4.82265103812345       -0.49164666170907       -1.49320298366830
C           -3.68201325100116        1.73772301723675       -1.56554265642570
N           -5.17591001008256        1.14680804937546        0.28450329699090
N           -1.83596220637269        0.18485792455641       -0.44634578868899
C           -0.68312100098187       -0.34879046261802        0.07746442943498
C            0.53090447796259       -0.05853694312353       -0.72002092158673
O            0.51746402135832        0.75781367353934       -1.65205422892668
N            1.64143128402356       -0.76856433046355       -0.40697150281685
C            2.91119880171374       -0.52331156710165       -1.04841686953261
C            3.89255779448835        0.38239520231394       -0.18620556178678
C            3.12931138517345        1.67216331587475        0.19726598999227
C            4.32058853724436       -0.36656698317792        1.04998799427735
C            5.59297684945659       -0.82726364072178        1.23661012439901
C            6.58589659505957       -0.55369179619213        0.29373868454164
F            7.86407321384203       -1.02074149501310        0.51099146867657
C            6.33157639779544        0.23093608453993       -0.83083317701530
C            5.07417709836785        0.71554239471682       -1.06267898408134
C           -0.77849442681652       -1.06988509432147        1.25102693122870
O            0.29257404726718       -1.62657911130858        1.88951553225324
C           -2.03696895358513       -1.27065701062203        1.90152511329927
O           -2.14110130348306       -1.90847883070635        2.96107008630980
H           -4.31947203682074       -1.73580667952483        2.64228335355687
H           -4.73852748269695       -0.01692518341270        2.44822278764116
H           -5.19694467200208       -1.18649045930222        1.19793210904272
H           -5.62970348831301       -0.07154417446444       -2.09166186917844
H           -4.07889041921809       -0.92563903028407       -2.16131294739321
H           -5.23350926719089       -1.28143134558765       -0.86671039702933
H           -2.98233828409473        1.34427991761447       -2.30288951511873
H           -4.53078397672785        2.18330548733064       -2.08112819550158
H           -3.17945837480868        2.50785918226572       -0.98141135592290
H           -4.85967932701796        2.03392118734255        0.65446635453142
H           -6.03575855800315        1.31829980649488       -0.21573627549318
H            1.63626784682960       -1.39440179998407        0.38193064583923
H            2.73103247382742       -0.03379531365818       -2.01158590533903
H            3.41092599533341       -1.47985825416789       -1.22673715162597
H            2.30490861755944        1.44273205611915        0.87357980712672
H            3.81152762520368        2.35515546903965        0.70354262218756
H            2.73148764626020        2.16528863925253       -0.69104757961995
H            3.55371021327322       -0.56131925272588        1.79282695347657
H            5.84967277021397       -1.39037106570510        2.12863589140247
H            7.14707753472637        0.47215516505238       -1.50578089317606
H            4.88066444220794        1.34598191483222       -1.92483852244227
H           -0.04964192143880       -2.08013726983692        2.68178475779679

          :  Hamiltonian                  GFN1-xTB          :
         :: total energy             -80.187959544372 Eh    ::
         :: gradient norm              0.000185524295 Eh/a0 ::
         :: HOMO-LUMO gap              0.261883718938 eV    ::
         :: SCC energy               -81.043964015639 Eh    ::
         :: -> Gsolv                  -0.102360474708 Eh    ::
         :: repulsion energy           0.886652489587 Eh    ::

    * Orbital Energies and Occupations

         #    Occupation            Energy/Eh            Energy/eV
      -------------------------------------------------------------
         1        2.0000           -0.8011582             -21.8006
       ...           ...                  ...                  ...
        56        2.0000           -0.4559799             -12.4078
        57        2.0000           -0.4415566             -12.0154
        58        2.0000           -0.4409482             -11.9988
        59        2.0000           -0.4390751             -11.9478
        60        2.0000           -0.4308532             -11.7241
        61        2.0000           -0.4224635             -11.4958
        62        2.0000           -0.4161862             -11.3250
        63        2.0000           -0.4093857             -11.1400
        64        2.0000           -0.4044474             -11.0056
        65        2.0000           -0.4027817             -10.9602
        66        2.0000           -0.3951562             -10.7527
        67        2.0000           -0.3948580             -10.7446
        68        1.9875           -0.2979254              -8.1070 (HOMO)
        69        0.0125           -0.2883014              -7.8451 (LUMO)
        70                         -0.2501128              -6.8059
        71                         -0.2098840              -5.7112
        72                         -0.1996938              -5.4339
        73                         -0.1279732              -3.4823
        74                         -0.1258637              -3.4249
        75                         -0.1213675              -3.3026
        76                         -0.1157484              -3.1497
        77                         -0.1100041              -2.9934
        78                         -0.0930085              -2.5309
        79                         -0.0895470              -2.4367
       ...                                ...                  ...
       144                          0.7037606              19.1503
      -------------------------------------------------------------
                  HL-Gap            0.0096240 Eh            0.2619 eV

Wiberg/Mayer (AO) data.
largest (>0.10) Wiberg bond orders for each atom

     #   Z sym  total        # sym  WBO       # sym  WBO       # sym  WBO
 ---------------------------------------------------------------------------
     1   6 C    3.935 --    28 H    0.979    27 H    0.978    26 H    0.976
                             2 N    0.938
     2   7 N    3.425 --     3 C    1.151    24 C    1.088     1 C    0.938
                            25 O    0.113
     3   6 C    3.905 --     8 N    1.585     2 N    1.151     4 C    0.975
     4   6 C    3.966 --     6 C    0.990     5 C    0.984     7 N    0.982
                             3 C    0.975
     5   6 C    3.993 --    30 H    0.986     4 C    0.984    29 H    0.983
                            31 H    0.980
     6   6 C    3.995 --     4 C    0.990    33 H    0.987    34 H    0.985
                            32 H    0.983
     7   7 N    2.977 --     4 C    0.982    35 H    0.943    36 H    0.942
     8   7 N    3.024 --     3 C    1.585     9 C    1.176
     9   6 C    3.899 --    22 C    1.417     8 N    1.176    10 C    1.040
    10   6 C    3.899 --    11 O    1.504    12 N    1.234     9 C    1.040
    11   8 O    1.810 --    10 C    1.504    12 N    0.158
    12   7 N    3.358 --    10 C    1.234    13 C    0.966    37 H    0.899
                            11 O    0.158
    13   6 C    3.926 --    39 H    0.979    38 H    0.975    12 N    0.966
                            14 C    0.899
    14   6 C    3.983 --    16 C    1.023    21 C    1.021    15 C    0.977
                            13 C    0.899
    15   6 C    3.990 --    41 H    0.988    40 H    0.986    42 H    0.985
                            14 C    0.977
    16   6 C    3.911 --    17 C    1.599    14 C    1.023    43 H    0.974
    17   6 C    3.994 --    16 C    1.599    18 C    1.309    44 H    0.971
    18   6 C    3.653 --    20 C    1.317    17 C    1.309    19 F    0.858
    19   9 F    0.949 --    18 C    0.858
    20   6 C    3.993 --    21 C    1.589    18 C    1.317    45 H    0.971
    21   6 C    3.855 --    20 C    1.589    14 C    1.021    46 H    0.975
    22   6 C    3.854 --     9 C    1.417    24 C    1.160    23 O    1.035
    23   8 O    2.024 --    22 C    1.035    47 H    0.815
    24   6 C    3.870 --    25 O    1.484    22 C    1.160     2 N    1.088
    25   8 O    1.817 --    24 C    1.484     2 N    0.113
    26   1 H    1.013 --     1 C    0.976
    27   1 H    1.020 --     1 C    0.978
    28   1 H    1.022 --     1 C    0.979
    29   1 H    1.001 --     5 C    0.983
    30   1 H    1.005 --     5 C    0.986
    31   1 H    1.006 --     5 C    0.980
    32   1 H    1.018 --     6 C    0.983
    33   1 H    1.005 --     6 C    0.987
    34   1 H    1.009 --     6 C    0.985
    35   1 H    0.960 --     7 N    0.943
    36   1 H    0.957 --     7 N    0.942
    37   1 H    0.960 --    12 N    0.899
    38   1 H    1.021 --    13 C    0.975
    39   1 H    1.024 --    13 C    0.979
    40   1 H    1.010 --    15 C    0.986
    41   1 H    1.021 --    15 C    0.988
    42   1 H    1.013 --    15 C    0.985
    43   1 H    1.004 --    16 C    0.974
    44   1 H    1.006 --    17 C    0.971
    45   1 H    1.006 --    20 C    0.971
    46   1 H    1.003 --    21 C    0.975
    47   1 H    0.862 --    23 O    0.815
 ---------------------------------------------------------------------------

           -------------------------------------------------
          | TOTAL ENERGY              -80.187959544372 Eh   |
          | GRADIENT NORM               0.000185524295 Eh/α |
          | HOMO-LUMO GAP               0.261883718938 eV   |
           -------------------------------------------------

 * finished run on 2023/06/20 at 15:03:31.825
