   * xtb version 6.5.1 (579679a) compiled by 'ehlert@majestix' on 2022-07-11
          program call               : /lustre/hpc/kemi/ree/PhD/git/ReactivityQM/dep/xtb-6.5.1/bin/xtb --gfn 1 /lustre/hpc/kemi/ree/PhD/git/ReactivityQM/calculations/R02deprot/reac01prodN13/conf05/R02deprot_reac01prodN13_conf05_gfn1.xyz --opt --vfukui --chrg 0 --uhf 0 --alpb DMSO

   ID    Z sym.   atoms
    1    6 C      1, 3, 5, 7-10, 12, 14, 15, 18, 19, 22, 24
    2    8 O      2, 4, 13, 20, 23, 25
    3    7 N      6, 11, 16, 17, 21
    4    1 H      26-42

      * Solvation model:               ALPB
        Solvent                        DMSO
        Solvent mass                       7.8130E+01 g/mol
          :  Hamiltonian                  GFN1-xTB          :
 * total energy  :   -82.9248846 Eh     change        0.1421085E-12 Eh
 * total energy  :   -82.9364902 Eh     change       -0.1160565E-01 Eh
 * total energy  :   -82.9406839 Eh     change       -0.4193694E-02 Eh
 * total energy  :   -82.9414525 Eh     change       -0.7685503E-03 Eh
 * total energy  :   -82.9420805 Eh     change       -0.6279962E-03 Eh
 * total energy  :   -82.9423443 Eh     change       -0.2638021E-03 Eh
 * total energy  :   -82.9425096 Eh     change       -0.1652869E-03 Eh
 * total energy  :   -82.9426065 Eh     change       -0.9688675E-04 Eh
 * total energy  :   -82.9426683 Eh     change       -0.6184965E-04 Eh
 * total energy  :   -82.9427140 Eh     change       -0.4568076E-04 Eh
 * total energy  :   -82.9428139 Eh     change       -0.2032612E-04 Eh
 * total energy  :   -82.9428396 Eh     change       -0.2568273E-04 Eh
 * total energy  :   -82.9428562 Eh     change       -0.1659849E-04 Eh
 * total energy  :   -82.9428700 Eh     change       -0.1386094E-04 Eh
 * total energy  :   -82.9428829 Eh     change       -0.1286200E-04 Eh
 * total energy  :   -82.9428954 Eh     change       -0.1249300E-04 Eh
 * total energy  :   -82.9429100 Eh     change       -0.1461051E-04 Eh
 * total energy  :   -82.9429277 Eh     change       -0.1772317E-04 Eh
 * total energy  :   -82.9429323 Eh     change       -0.4544703E-05 Eh
   *** GEOMETRY OPTIMIZATION CONVERGED AFTER 22 ITERATIONS ***

 final structure:
================
42
 xtb: 6.5.1 (579679a)
C           -6.12042314752958        0.76508008284563        1.15198300788570
O           -4.77233262700188        0.60852355060379        0.70003067510360
C           -4.39827663506134        1.36425894329753       -0.32541619991684
O           -5.15053853520029        2.15152476977811       -0.87624647893079
C           -2.98806420291136        1.17357756188498       -0.73167044698393
N           -2.25537377513966        0.25378847472686       -0.06399226552780
C           -0.98855163054800        0.11040471568436       -0.43359909594203
C           -0.21124137957420       -0.95252653724367        0.32603037291243
C           -0.79543356725405       -2.33135410346601       -0.00213909736633
C           -0.27228837925145       -0.67102881862240        1.82955762466085
N            1.17612633233968       -0.86817195418698       -0.14608913233272
C            2.14500322435469       -1.65532556334399        0.25939690003399
O            2.10651909670957       -2.56425206167884        1.05569919198155
C            3.55039639262390       -1.29846367087250       -0.43873023333305
C            4.49464771237873       -2.48005737408544       -0.26443800778561
N            3.32295737912875       -0.92893527086948       -1.78408410608826
N            3.60422617823812        0.32411680579358       -1.92982387135971
C            4.04845240265661        0.79199531618494       -0.75430981784129
C            4.51903701924127        2.15813725192944       -0.49289217579341
O            4.04868464278579       -0.12565012485748        0.17398335050042
N           -0.36119120197403        0.77132156719381       -1.38298210981929
C           -1.01913867243133        1.72479975196699       -2.12106462329991
O           -0.46311266869739        2.36043952353080       -3.01495572356289
C           -2.43779616934176        1.92343148392872       -1.75939324408730
O           -3.11869753255852        2.83427876604307       -2.45423807229193
H           -6.25106325606401        0.07772715490042        1.98523687622761
H           -6.81709467612708        0.52361695589395        0.34603579791282
H           -6.28803485308364        1.79416557256978        1.47801694798108
H           -0.68454743046752       -2.54230498550143       -1.06485660498290
H           -0.28926114818322       -3.10579758711352        0.57126756121073
H           -1.85438713347387       -2.33203576600578        0.25223561630477
H            0.23597844881028       -1.45793174162604        2.38398153568275
H            0.20051662708603        0.28440163277403        2.05023340642569
H           -1.31618766033391       -0.63043571594009        2.13764482180615
H            1.33640680470186       -0.15612374335565       -0.85851637375141
H            4.57294645061720       -2.71555257014803        0.79466789002167
H            5.47270434081232       -2.21960061982316       -0.66047182619341
H            4.09143982573390       -3.33585868463970       -0.80026854158657
H            5.61099212396280        2.16470066861776       -0.53222557227279
H            4.22497421699748        2.47610228769334        0.50595964303656
H            4.13881765245467        2.84329969805110       -1.24690460779094
H           -4.04779158942584        2.89171335749280       -2.13352199084815

          :  Hamiltonian                  GFN1-xTB          :
         :: total energy             -82.942932253959 Eh    ::
         :: gradient norm              0.000336477406 Eh/a0 ::
         :: HOMO-LUMO gap              0.080608185558 eV    ::
         :: SCC energy               -83.705466267970 Eh    ::
         :: -> Gsolv                  -0.057177312381 Eh    ::
         :: repulsion energy           0.789033230240 Eh    ::

    * Orbital Energies and Occupations

         #    Occupation            Energy/Eh            Energy/eV
      -------------------------------------------------------------
         1        2.0000           -0.8944696             -24.3398
       ...           ...                  ...                  ...
        55        2.0000           -0.5088480             -13.8465
        56        2.0000           -0.5019976             -13.6601
        57        2.0000           -0.5006670             -13.6238
        58        2.0000           -0.4950125             -13.4700
        59        2.0000           -0.4877765             -13.2731
        60        2.0000           -0.4792372             -13.0407
        61        2.0000           -0.4749897             -12.9251
        62        2.0000           -0.4695906             -12.7782
        63        2.0000           -0.4680672             -12.7368
        64        2.0000           -0.4542407             -12.3605
        65        2.0000           -0.4383617             -11.9284
        66        1.9990           -0.4077580             -11.0957
        67        1.6529           -0.4020205             -10.9395 (HOMO)
        68        0.3481           -0.3990582             -10.8589 (LUMO)
        69                         -0.3062767              -8.3342
        70                         -0.2963179              -8.0632
        71                         -0.2748222              -7.4783
        72                         -0.2625669              -7.1448
        73                         -0.2205737              -6.0021
        74                         -0.1609128              -4.3787
        75                         -0.1412757              -3.8443
        76                         -0.1402692              -3.8169
        77                         -0.1352525              -3.6804
        78                         -0.1227452              -3.3401
       ...                                ...                  ...
       134                          0.7209001              19.6167
      -------------------------------------------------------------
                  HL-Gap            0.0029623 Eh            0.0806 eV

Wiberg/Mayer (AO) data.
largest (>0.10) Wiberg bond orders for each atom

     #   Z sym  total        # sym  WBO       # sym  WBO       # sym  WBO
 ---------------------------------------------------------------------------
     1   6 C    3.870 --    26 H    0.986    27 H    0.979    28 H    0.979
                             2 O    0.896
     2   8 O    2.211 --     3 C    1.129     1 C    0.896     4 O    0.127
     3   6 C    3.838 --     4 O    1.603     2 O    1.129     5 C    1.019
     4   8 O    1.933 --     3 C    1.603     2 O    0.127
     5   6 C    3.928 --    24 C    1.397     6 N    1.272     3 C    1.019
     6   7 N    2.881 --     7 C    1.372     5 C    1.272
     7   6 C    3.926 --    21 N    1.436     6 N    1.372     8 C    0.971
     8   6 C    3.914 --    10 C    0.986     9 C    0.982     7 C    0.971
                            11 N    0.900
     9   6 C    3.988 --    29 H    0.986    31 H    0.983     8 C    0.982
                            30 H    0.981
    10   6 C    3.988 --    33 H    0.986     8 C    0.986    34 H    0.982
                            32 H    0.982
    11   7 N    3.403 --    12 C    1.380     8 C    0.900    35 H    0.861
                            13 O    0.186
    12   6 C    3.878 --    13 O    1.623    11 N    1.380    14 C    0.764
    13   8 O    1.986 --    12 C    1.623    11 N    0.186
    14   6 C    3.835 --    16 N    1.087    15 C    0.944    20 O    0.900
                            12 C    0.764
    15   6 C    3.944 --    37 H    0.980    38 H    0.980    36 H    0.976
                            14 C    0.944
    16   7 N    2.774 --    17 N    1.491    14 C    1.087
    17   7 N    2.970 --    16 N    1.491    18 C    1.318
    18   6 C    3.727 --    17 N    1.318    20 O    1.203    19 C    1.054
    19   6 C    3.972 --    18 C    1.054    41 H    0.973    40 H    0.960
                            39 H    0.929
    20   8 O    2.268 --    18 C    1.203    14 C    0.900
    21   7 N    2.977 --     7 C    1.436    22 C    1.169
    22   6 C    3.888 --    23 O    1.561    21 N    1.169    24 C    1.041
    23   8 O    1.777 --    22 C    1.561
    24   6 C    3.785 --     5 C    1.397    25 O    1.134    22 C    1.041
    25   8 O    2.057 --    24 C    1.134    42 H    0.780
    26   1 H    1.011 --     1 C    0.986
    27   1 H    1.007 --     1 C    0.979
    28   1 H    1.007 --     1 C    0.979
    29   1 H    1.002 --     9 C    0.986
    30   1 H    1.005 --     9 C    0.981
    31   1 H    1.007 --     9 C    0.983
    32   1 H    1.005 --    10 C    0.982
    33   1 H    1.002 --    10 C    0.986
    34   1 H    1.010 --    10 C    0.982
    35   1 H    0.965 --    11 N    0.861
    36   1 H    1.001 --    15 C    0.976
    37   1 H    0.995 --    15 C    0.980
    38   1 H    0.998 --    15 C    0.980
    39   1 H    0.978 --    19 C    0.929
    40   1 H    0.987 --    19 C    0.960
    41   1 H    0.992 --    19 C    0.973
    42   1 H    0.856 --    25 O    0.780
 ---------------------------------------------------------------------------

           -------------------------------------------------
          | TOTAL ENERGY              -82.942932253959 Eh   |
          | GRADIENT NORM               0.000336477406 Eh/α |
          | HOMO-LUMO GAP               0.080608185558 eV   |
           -------------------------------------------------

 * finished run on 2023/06/20 at 18:21:43.939
