   * xtb version 6.5.1 (579679a) compiled by 'ehlert@majestix' on 2022-07-11
          program call               : /lustre/hpc/kemi/ree/PhD/git/ReactivityQM/dep/xtb-6.5.1/bin/xtb --gfn 1 /lustre/hpc/kemi/ree/PhD/git/ReactivityQM/calculations/R02methylcation/reac01/conf17/R02methylcation_reac01_conf17_gfn1.xyz --opt --vfukui --chrg -1 --uhf 0 --alpb DMSO

   ID    Z sym.   atoms
    1    6 C      1, 3, 5, 7-10, 12, 14, 17, 18, 21, 23
    2    8 O      2, 4, 13, 19, 22, 24
    3    7 N      6, 11, 15, 16, 20
    4    1 H      25-38

      * Solvation model:               ALPB
        Solvent                        DMSO
        Solvent mass                       7.8130E+01 g/mol
          :  Hamiltonian                  GFN1-xTB          :
 * total energy  :   -79.6048425 Eh     change       -0.3871037E-10 Eh
 * total energy  :   -79.6170076 Eh     change       -0.1216514E-01 Eh
 * total energy  :   -79.6214811 Eh     change       -0.4473521E-02 Eh
 * total energy  :   -79.6223405 Eh     change       -0.8593047E-03 Eh
 * total energy  :   -79.6231837 Eh     change       -0.8432619E-03 Eh
 * total energy  :   -79.6237877 Eh     change       -0.6040301E-03 Eh
 * total energy  :   -79.6243458 Eh     change       -0.5580303E-03 Eh
 * total energy  :   -79.6247506 Eh     change       -0.4048154E-03 Eh
 * total energy  :   -79.6249613 Eh     change       -0.2107156E-03 Eh
 * total energy  :   -79.6250691 Eh     change       -0.1077816E-03 Eh
 * total energy  :   -79.6271426 Eh     change       -0.4994827E-04 Eh
 * total energy  :   -79.6271926 Eh     change       -0.4999235E-04 Eh
 * total energy  :   -79.6272120 Eh     change       -0.1945402E-04 Eh
 * total energy  :   -79.6272289 Eh     change       -0.1683522E-04 Eh
 * total energy  :   -79.6272387 Eh     change       -0.9888123E-05 Eh
 * total energy  :   -79.6272544 Eh     change       -0.1564211E-04 Eh
 * total energy  :   -79.6272590 Eh     change       -0.4614627E-05 Eh
 * total energy  :   -79.6272665 Eh     change       -0.7519299E-05 Eh
 * total energy  :   -79.6272694 Eh     change       -0.2889145E-05 Eh
   *** GEOMETRY OPTIMIZATION CONVERGED AFTER 60 ITERATIONS ***

 final structure:
================
38
 xtb: 6.5.1 (579679a)
C           -6.53344956777532       -0.92603331529988        0.14598993635037
O           -5.28286359358500       -0.75090057748709        0.79437949950387
C           -4.26304414720279       -0.32132677100054        0.00645260702807
O           -4.44684298792355       -0.11350853553388       -1.18817136378414
C           -2.99587790565012       -0.13691932232818        0.69605747547069
N           -1.99332337431300        0.32065196745386       -0.14243357285699
C           -0.81912510179440        0.54124124314771        0.31258533735107
C            0.27233963893250        1.09548716404132       -0.57878347748135
C           -0.07729731745547        0.86900620589428       -2.05206358523051
C            0.45633550152460        2.58804725595660       -0.28613738590937
N            1.54349058035163        0.43088551789839       -0.25956099807696
C            1.69293493425022       -0.90764213822468       -0.30868046859954
O            0.79569072313586       -1.70983796620289       -0.50801853288698
C            3.09539967798893       -1.33950808792446       -0.06543078992020
N            3.54849249220001       -2.55221283896504        0.00844473237118
N            4.89139974946841       -2.45783188637010        0.23024604372562
C            5.17378778775934       -1.19397466552183        0.27648540900498
C            6.49549164694858       -0.56573732666863        0.48865926168945
O            4.08219206284070       -0.43129109692758        0.09856576368310
N           -0.49795444475622        0.35537417494043        1.64203201689893
C           -1.38573169197508       -0.10069155192883        2.58034857575450
O           -1.02383033383283       -0.24276056690207        3.74687692968713
C           -2.78344795444460       -0.39047302689583        2.07642319010402
O           -3.62808781520080       -0.81651501486206        2.88672970683268
H           -6.46549442370630       -1.69721573465173       -0.62818526359042
H           -7.24962449228765       -1.23207905694696        0.90789939344426
H           -6.86436693280887        0.00829384871684       -0.31790928195086
H           -0.20085805930200       -0.19524325687481       -2.25067733255202
H           -1.01183691717327        1.37981869062088       -2.28100391465728
H            0.71384862078639        1.26329297613985       -2.68595626628271
H            0.71548525132511        2.73686878120477        0.76065670906406
H            1.25014323516402        2.99818249175922       -0.90712836460308
H           -0.46931946538476        3.12098131225048       -0.49948047308950
H            2.36183740228200        1.00641808491280       -0.17654960065565
H            6.70896550133747        0.13026787649814       -0.32150409696743
H            7.26476080886362       -1.33294471205151        0.52596085495095
H            6.49635503827982       -0.00398108380824        1.42248720795177
H            0.43342687312604        0.57380894194243        1.95346411823430

          :  Hamiltonian                  GFN1-xTB          :
         :: total energy             -79.627269409181 Eh    ::
         :: gradient norm              0.000657605284 Eh/a0 ::
         :: HOMO-LUMO gap              1.620349539879 eV    ::
         :: SCC energy               -80.355321529267 Eh    ::
         :: -> Gsolv                  -0.142406907523 Eh    ::
         :: repulsion energy           0.751253350126 Eh    ::

    * Orbital Energies and Occupations

         #    Occupation            Energy/Eh            Energy/eV
      -------------------------------------------------------------
         1        2.0000           -0.8608026             -23.4236
       ...           ...                  ...                  ...
        52        2.0000           -0.4813441             -13.0980
        53        2.0000           -0.4750736             -12.9274
        54        2.0000           -0.4639193             -12.6239
        55        2.0000           -0.4595586             -12.5052
        56        2.0000           -0.4546189             -12.3708
        57        2.0000           -0.4539668             -12.3531
        58        2.0000           -0.4470719             -12.1654
        59        2.0000           -0.4415197             -12.0144
        60        2.0000           -0.4368761             -11.8880
        61        2.0000           -0.4347131             -11.8291
        62        2.0000           -0.4134048             -11.2493
        63        2.0000           -0.3770009             -10.2587
        64        2.0000           -0.3637146              -9.8972 (HOMO)
        65                         -0.3041678              -8.2768 (LUMO)
        66                         -0.2683568              -7.3024
        67                         -0.2526518              -6.8750
        68                         -0.2357381              -6.4148
        69                         -0.1953708              -5.3163
        70                         -0.1922065              -5.2302
        71                         -0.1395909              -3.7985
        72                         -0.1240140              -3.3746
        73                         -0.1213991              -3.3034
        74                         -0.1130795              -3.0770
        75                         -0.1069414              -2.9100
       ...                                ...                  ...
       124                          0.7549090              20.5421
      -------------------------------------------------------------
                  HL-Gap            0.0595467 Eh            1.6203 eV

Wiberg/Mayer (AO) data.
largest (>0.10) Wiberg bond orders for each atom

     #   Z sym  total        # sym  WBO       # sym  WBO       # sym  WBO
 ---------------------------------------------------------------------------
     1   6 C    3.900 --    26 H    0.987    25 H    0.980    27 H    0.980
                             2 O    0.926
     2   8 O    2.159 --     3 C    1.045     1 C    0.926     4 O    0.109
     3   6 C    3.850 --     4 O    1.573     5 C    1.117     2 O    1.045
     4   8 O    1.849 --     3 C    1.573     2 O    0.109
     5   6 C    3.916 --    23 C    1.274     6 N    1.149     3 C    1.117
                            24 O    0.130
     6   7 N    3.029 --     7 C    1.640     5 C    1.149
     7   6 C    3.933 --     6 N    1.640    20 N    1.091     8 C    0.974
     8   6 C    3.932 --     9 C    0.992    10 C    0.988     7 C    0.974
                            11 N    0.916
     9   6 C    3.991 --     8 C    0.992    30 H    0.987    29 H    0.983
                            28 H    0.982
    10   6 C    3.991 --     8 C    0.988    31 H    0.984    33 H    0.984
                            32 H    0.984
    11   7 N    3.353 --    12 C    1.263     8 C    0.916    34 H    0.895
                            13 O    0.179
    12   6 C    3.919 --    13 O    1.585    11 N    1.263    14 C    0.988
    13   8 O    1.888 --    12 C    1.585    11 N    0.179
    14   6 C    3.870 --    15 N    1.626    19 O    1.047    12 C    0.988
    15   7 N    2.997 --    14 C    1.626    16 N    1.194
    16   7 N    2.981 --    17 C    1.614    15 N    1.194
    17   6 C    3.870 --    16 N    1.614    19 O    1.072    18 C    1.031
    18   6 C    3.987 --    17 C    1.031    36 H    0.983    35 H    0.965
                            37 H    0.961
    19   8 O    2.316 --    17 C    1.072    14 C    1.047
    20   7 N    3.428 --    21 C    1.165     7 C    1.091    38 H    0.898
                            22 O    0.136
    21   6 C    3.879 --    22 O    1.574    20 N    1.165    23 C    0.968
    22   8 O    1.854 --    21 C    1.574    20 N    0.136
    23   6 C    3.943 --    24 O    1.516     5 C    1.274    21 C    0.968
    24   8 O    1.822 --    23 C    1.516     5 C    0.130
    25   1 H    1.014 --     1 C    0.980
    26   1 H    1.016 --     1 C    0.987
    27   1 H    1.015 --     1 C    0.980
    28   1 H    1.013 --     9 C    0.982
    29   1 H    1.013 --     9 C    0.983
    30   1 H    1.003 --     9 C    0.987
    31   1 H    1.001 --    10 C    0.984
    32   1 H    0.998 --    10 C    0.984
    33   1 H    1.003 --    10 C    0.984
    34   1 H    0.938 --    11 N    0.895
    35   1 H    0.997 --    18 C    0.965
    36   1 H    0.999 --    18 C    0.983
    37   1 H    0.997 --    18 C    0.961
    38   1 H    0.949 --    20 N    0.898
 ---------------------------------------------------------------------------

           -------------------------------------------------
          | TOTAL ENERGY              -79.627269409181 Eh   |
          | GRADIENT NORM               0.000657605284 Eh/α |
          | HOMO-LUMO GAP               1.620349539879 eV   |
           -------------------------------------------------

 * finished run on 2023/06/21 at 17:03:55.626
