   * xtb version 6.5.1 (579679a) compiled by 'ehlert@majestix' on 2022-07-11
          program call               : /lustre/hpc/kemi/ree/PhD/git/ReactivityQM/dep/xtb-6.5.1/bin/xtb --gfn 1 /lustre/hpc/kemi/ree/PhD/git/ReactivityQM/calculations/R02methylcation/reac01prodN05/conf15/R02methylcation_reac01prodN05_conf15_gfn1.xyz --opt --vfukui --chrg 0 --uhf 0 --alpb DMSO

   ID    Z sym.   atoms
    1    6 C      1, 3, 5, 6, 8, 11-14, 16, 18, 21, 22, 25
    2    8 O      2, 4, 7, 9, 17, 23
    3    7 N      10, 15, 19, 20, 24
    4    1 H      26-42

      * Solvation model:               ALPB
        Solvent                        DMSO
        Solvent mass                       7.8130E+01 g/mol
          :  Hamiltonian                  GFN1-xTB          :
 * total energy  :   -82.9716015 Eh     change       -0.2802381E-10 Eh
 * total energy  :   -82.9841904 Eh     change       -0.1258895E-01 Eh
 * total energy  :   -82.9894411 Eh     change       -0.5250695E-02 Eh
 * total energy  :   -82.9906555 Eh     change       -0.1214422E-02 Eh
 * total energy  :   -82.9913373 Eh     change       -0.6818122E-03 Eh
 * total energy  :   -82.9916169 Eh     change       -0.2795178E-03 Eh
 * total energy  :   -82.9917700 Eh     change       -0.1531008E-03 Eh
 * total energy  :   -82.9918886 Eh     change       -0.1186244E-03 Eh
 * total energy  :   -82.9920155 Eh     change       -0.1269419E-03 Eh
 * total energy  :   -82.9921752 Eh     change       -0.1596474E-03 Eh
 * total energy  :   -82.9927445 Eh     change       -0.2180338E-04 Eh
 * total energy  :   -82.9927530 Eh     change       -0.8496035E-05 Eh
 * total energy  :   -82.9927705 Eh     change       -0.1745949E-04 Eh
 * total energy  :   -82.9927786 Eh     change       -0.8062442E-05 Eh
 * total energy  :   -82.9927917 Eh     change       -0.1312561E-04 Eh
 * total energy  :   -82.9928010 Eh     change       -0.9266851E-05 Eh
 * total energy  :   -82.9928091 Eh     change       -0.8152819E-05 Eh
 * total energy  :   -82.9928146 Eh     change       -0.5458587E-05 Eh
 * total energy  :   -82.9928187 Eh     change       -0.4090865E-05 Eh
   *** GEOMETRY OPTIMIZATION CONVERGED AFTER 31 ITERATIONS ***

 final structure:
================
42
 xtb: 6.5.1 (579679a)
C           -5.35073990490303        1.24333466658369        2.11573619577117
O           -4.75455593917951        0.70950690598839        0.93357928914765
C           -3.42731777207012        0.55810924659716        0.95892797567862
O           -2.77297137818129        0.85599717102576        1.94573609284031
C           -2.87442486873185        0.05858947752720       -0.30816739981934
C           -3.60076238031113        0.19832401713120       -1.52447793788040
O           -4.76785315293996        0.57477526425369       -1.63360861965657
C           -2.83160182661146       -0.11647314581289       -2.78242522606686
O           -3.28295635694600       -0.08729675310000       -3.90802754887772
N           -1.49145921783640       -0.42167921495088       -2.59429581630087
C           -0.85625611798113       -0.59288062125336       -1.41277842449613
C            0.60937122988780       -1.01062478364582       -1.49304203523056
C            0.71170913722260       -2.54081100509141       -1.38725197391385
C            1.25493404060573       -0.55143912595146       -2.81106354166635
N            1.32118297874696       -0.32203352880510       -0.41362486524275
C            2.60063546009762       -0.61707235307747       -0.05506186910871
O            3.22516326397338       -1.60222963362342       -0.38967997476208
C            3.12887751239349        0.43453287252415        0.84691734689055
N            2.50645943765220        1.51987794230884        1.19907322205802
N            3.35215416117539        2.21117047869815        2.01048432012595
C            4.43927001574476        1.50452231329695        2.10076915892774
C            5.66578187771181        1.82436282725055        2.86292772089439
O            4.35804337320216        0.37209130865244        1.38741341056854
N           -1.54760520202272       -0.41296902125349       -0.30620877478415
C           -0.98637116456048       -0.81382446522805        0.99251403942226
H           -5.14507191634933        0.59300867324163        2.96947093085082
H           -4.95729853827002        2.24184048996340        2.32296802170187
H           -6.42229364924040        1.29169247376218        1.93018125955694
H           -0.98370846927024       -0.58881566664898       -3.44915453913858
H            0.52437358621244       -2.88873877566547       -0.37427673151342
H            1.70549713091571       -2.86643672641066       -1.68680458170056
H           -0.02108339206932       -2.98848875151851       -2.05683204581342
H            0.88437393821340       -1.12943245795870       -3.65514317099430
H            1.07409351705411        0.50813825646405       -2.98071847566985
H            2.32873393808393       -0.71642026876073       -2.73770083311829
H            1.02040714328576        0.62415439575604       -0.22102049239766
H            5.53576221734593        2.76739057821939        3.38819447575892
H            5.87546906742510        1.03084768199256        3.57999056014270
H            6.51566029526104        1.89802926280302        2.18411475688832
H           -0.58527870268167        0.05634541450773        1.50832481290917
H           -1.77662465132520       -1.26464197839143        1.58761687695885
H           -0.20172172073202       -1.54433444139819        0.84297241105726

          :  Hamiltonian                  GFN1-xTB          :
         :: total energy             -82.992818660210 Eh    ::
         :: gradient norm              0.000420899362 Eh/a0 ::
         :: HOMO-LUMO gap              2.512572531549 eV    ::
         :: SCC energy               -83.773752123866 Eh    ::
         :: -> Gsolv                  -0.067278362969 Eh    ::
         :: repulsion energy           0.807893100447 Eh    ::

    * Orbital Energies and Occupations

         #    Occupation            Energy/Eh            Energy/eV
      -------------------------------------------------------------
         1        2.0000           -0.8682416             -23.6261
       ...           ...                  ...                  ...
        55        2.0000           -0.5108843             -13.9019
        56        2.0000           -0.5107357             -13.8978
        57        2.0000           -0.4961211             -13.5001
        58        2.0000           -0.4928509             -13.4112
        59        2.0000           -0.4900735             -13.3356
        60        2.0000           -0.4877270             -13.2717
        61        2.0000           -0.4744597             -12.9107
        62        2.0000           -0.4735687             -12.8865
        63        2.0000           -0.4671493             -12.7118
        64        2.0000           -0.4579753             -12.4621
        65        2.0000           -0.4547050             -12.3732
        66        2.0000           -0.4273094             -11.6277
        67        2.0000           -0.4166200             -11.3368 (HOMO)
        68                         -0.3242846              -8.8242 (LUMO)
        69                         -0.3190355              -8.6814
        70                         -0.3056830              -8.3181
        71                         -0.2608500              -7.0981
        72                         -0.2397094              -6.5228
        73                         -0.2067587              -5.6262
        74                         -0.1681127              -4.5746
        75                         -0.1487565              -4.0479
        76                         -0.1435547              -3.9063
        77                         -0.1399813              -3.8091
        78                         -0.1343774              -3.6566
       ...                                ...                  ...
       134                          0.7509124              20.4334
      -------------------------------------------------------------
                  HL-Gap            0.0923353 Eh            2.5126 eV

Wiberg/Mayer (AO) data.
largest (>0.10) Wiberg bond orders for each atom

     #   Z sym  total        # sym  WBO       # sym  WBO       # sym  WBO
 ---------------------------------------------------------------------------
     1   6 C    3.877 --    28 H    0.986    26 H    0.980    27 H    0.980
                             2 O    0.903
     2   8 O    2.201 --     3 C    1.104     1 C    0.903     4 O    0.121
     3   6 C    3.865 --     4 O    1.583     2 O    1.104     5 C    1.081
     4   8 O    1.895 --     3 C    1.583     2 O    0.121
     5   6 C    3.850 --     6 C    1.257     3 C    1.081    24 N    1.056
                             7 O    0.139
     6   6 C    3.944 --     7 O    1.574     5 C    1.257     8 C    0.954
     7   8 O    1.884 --     6 C    1.574     5 C    0.139
     8   6 C    3.867 --     9 O    1.661    10 N    1.089     6 C    0.954
     9   8 O    1.932 --     8 C    1.661    10 N    0.117
    10   7 N    3.454 --    11 C    1.207     8 C    1.089    29 H    0.877
                             9 O    0.117
    11   6 C    3.914 --    24 N    1.434    10 N    1.207    12 C    0.977
    12   6 C    3.934 --    14 C    0.986    11 C    0.977    13 C    0.977
                            15 N    0.933
    13   6 C    3.981 --    32 H    0.984    12 C    0.977    30 H    0.976
                            31 H    0.975
    14   6 C    3.986 --    12 C    0.986    34 H    0.984    33 H    0.978
                            35 H    0.977
    15   7 N    3.311 --    16 C    1.209    12 C    0.933    36 H    0.894
                            17 O    0.167
    16   6 C    3.912 --    17 O    1.621    15 N    1.209    18 C    0.993
    17   8 O    1.932 --    16 C    1.621    15 N    0.167
    18   6 C    3.878 --    19 N    1.604    23 O    1.066    16 C    0.993
    19   7 N    3.022 --    18 C    1.604    20 N    1.205
    20   7 N    2.981 --    21 C    1.599    19 N    1.205
    21   6 C    3.869 --    20 N    1.599    23 O    1.084    22 C    1.032
    22   6 C    3.985 --    21 C    1.032    37 H    0.982    38 H    0.963
                            39 H    0.962
    23   8 O    2.334 --    21 C    1.084    18 C    1.066
    24   7 N    3.589 --    11 C    1.434     5 C    1.056    25 C    0.917
    25   6 C    3.910 --    42 H    0.976    41 H    0.975    40 H    0.970
                            24 N    0.917
    26   1 H    1.009 --     1 C    0.980
    27   1 H    1.009 --     1 C    0.980
    28   1 H    1.012 --     1 C    0.986
    29   1 H    0.932 --    10 N    0.877
    30   1 H    1.001 --    13 C    0.976
    31   1 H    1.009 --    13 C    0.975
    32   1 H    1.000 --    13 C    0.984
    33   1 H    0.996 --    14 C    0.978
    34   1 H    0.997 --    14 C    0.984
    35   1 H    0.999 --    14 C    0.977
    36   1 H    0.953 --    15 N    0.894
    37   1 H    0.998 --    22 C    0.982
    38   1 H    0.996 --    22 C    0.963
    39   1 H    0.996 --    22 C    0.962
    40   1 H    1.015 --    25 C    0.970
    41   1 H    1.004 --    25 C    0.975
    42   1 H    1.010 --    25 C    0.976
 ---------------------------------------------------------------------------

           -------------------------------------------------
          | TOTAL ENERGY              -82.992818660210 Eh   |
          | GRADIENT NORM               0.000420899362 Eh/α |
          | HOMO-LUMO GAP               2.512572531549 eV   |
           -------------------------------------------------

 * finished run on 2023/06/21 at 17:35:19.227
