   * xtb version 6.5.1 (579679a) compiled by 'ehlert@majestix' on 2022-07-11
          program call               : /lustre/hpc/kemi/ree/PhD/git/ReactivityQM/dep/xtb-6.5.1/bin/xtb --gfn 1 /lustre/hpc/kemi/ree/PhD/git/ReactivityQM/calculations/R03/reac02/conf13/R03_reac02_conf13_gfn1.xyz --opt --vfukui --chrg 0 --uhf 0 --alpb DMSO

   ID    Z sym.   atoms
    1    6 C      1, 3, 5, 7-10, 12, 14, 17, 18, 21, 22, 24
    2    8 O      2, 4, 13, 19, 23, 25
    3    7 N      6, 11, 15, 16, 20
    4    1 H      26-42

      * Solvation model:               ALPB
        Solvent                        DMSO
        Solvent mass                       7.8130E+01 g/mol
          :  Hamiltonian                  GFN1-xTB          :
 * total energy  :   -82.9967895 Eh     change       -0.1331557E-10 Eh
 * total energy  :   -83.0057640 Eh     change       -0.8974414E-02 Eh
 * total energy  :   -83.0087962 Eh     change       -0.3032255E-02 Eh
 * total energy  :   -83.0095017 Eh     change       -0.7054594E-03 Eh
 * total energy  :   -83.0101433 Eh     change       -0.6415806E-03 Eh
 * total energy  :   -83.0105514 Eh     change       -0.4081247E-03 Eh
 * total energy  :   -83.0108869 Eh     change       -0.3355217E-03 Eh
 * total energy  :   -83.0111445 Eh     change       -0.2576492E-03 Eh
 * total energy  :   -83.0112624 Eh     change       -0.1178394E-03 Eh
 * total energy  :   -83.0113108 Eh     change       -0.4839964E-04 Eh
 * total energy  :   -83.0114614 Eh     change       -0.4034153E-04 Eh
 * total energy  :   -83.0115079 Eh     change       -0.4650612E-04 Eh
 * total energy  :   -83.0115235 Eh     change       -0.1556102E-04 Eh
 * total energy  :   -83.0115439 Eh     change       -0.2045938E-04 Eh
 * total energy  :   -83.0115536 Eh     change       -0.9626474E-05 Eh
 * total energy  :   -83.0115601 Eh     change       -0.6480718E-05 Eh
 * total energy  :   -83.0115608 Eh     change       -0.7252176E-06 Eh
 * total energy  :   -83.0115666 Eh     change       -0.5838161E-05 Eh
 * total energy  :   -83.0115705 Eh     change       -0.3921509E-05 Eh
   *** GEOMETRY OPTIMIZATION CONVERGED AFTER 22 ITERATIONS ***

 final structure:
================
42
 xtb: 6.5.1 (579679a)
C           -4.79339548206668        2.68002991496751        2.03403467948138
O           -3.80476827337821        1.81370730773636        1.47118352653106
C           -4.13124290719329        1.20134588595542        0.33081109765315
O           -5.19799039019555        1.35162025850304       -0.21835028498368
C           -3.03342824490267        0.32237656421469       -0.16547490387534
N           -1.90069246675525        0.27462575312877        0.59793483987081
C           -0.88762643246218       -0.46015674115078        0.27108323844953
C            0.28130303994575       -0.44202329594976        1.24723009918917
C            0.24512783100691       -1.72831895111258        2.08738311362515
C            0.15562331190707        0.78166213514963        2.16699609477250
N            1.53258465596486       -0.31960245827264        0.49058260523163
C            2.75383296733974       -0.35790887541754        1.07208065303607
O            2.97736137714239       -0.63964021411056        2.23632078915090
C            3.84485285923758       -0.03213291692670        0.12085458556228
N            5.11638341035976        0.02711469425320        0.37010084151125
N            5.72955975946758        0.38587581611807       -0.79047045004283
C            4.79524617265512        0.52589129840407       -1.68023592475576
C            4.94844577454866        0.91396624913151       -3.10095071056562
O            3.57933667623338        0.27598060072790       -1.16829499576143
N           -0.90062615708463       -1.25051589545153       -0.85086895811976
C            0.18299331700339       -2.13250050943838       -1.29055557252162
C           -1.98572732817674       -1.25257873228127       -1.70896134395606
O           -2.00745876145893       -1.93172965325474       -2.73045423753881
C           -3.10687705220614       -0.41188395938709       -1.31672513681654
O           -4.15894211357662       -0.42916793151176       -2.14080187490508
H           -5.10448640110601        3.42566124372596        1.29806300393998
H           -5.66360407510926        2.09994618952821        2.35113911828672
H           -4.33185048067323        3.16539110999449        2.89170119593481
H           -0.75362059989032       -1.84430788690771        2.50633671675097
H            0.96329450305519       -1.66639000880152        2.90255836196164
H            0.47479219805762       -2.60264025995079        1.48329465281916
H            0.99928715187701        0.80883820815795        2.85424015843513
H           -0.76935222174792        0.72165301487585        2.73732835336676
H            0.14577410535553        1.69388225381978        1.57307242352180
H            1.47272496341837        0.07292672102185       -0.43463465682707
H            3.97742326668083        0.92080240448270       -3.58874564401430
H            5.39364483885797        1.90671666292902       -3.16914420563485
H            5.60644500826820        0.21078368414498       -3.61113286643030
H            0.66764138506137       -1.68647029791051       -2.15852472341833
H           -0.25773929996158       -3.08627610140959       -1.58090850475592
H            0.90688327185122       -2.28423517251551       -0.50020755545258
H           -3.96113315734679       -1.02231510920992       -2.88889059870884

          :  Hamiltonian                  GFN1-xTB          :
         :: total energy             -83.011570539143 Eh    ::
         :: gradient norm              0.000479041183 Eh/a0 ::
         :: HOMO-LUMO gap              2.885999059319 eV    ::
         :: SCC energy               -83.794927149906 Eh    ::
         :: -> Gsolv                  -0.058119057899 Eh    ::
         :: repulsion energy           0.809726198491 Eh    ::

    * Orbital Energies and Occupations

         #    Occupation            Energy/Eh            Energy/eV
      -------------------------------------------------------------
         1        2.0000           -0.8670836             -23.5945
       ...           ...                  ...                  ...
        55        2.0000           -0.5059747             -13.7683
        56        2.0000           -0.5017940             -13.6545
        57        2.0000           -0.4960622             -13.4985
        58        2.0000           -0.4839691             -13.1695
        59        2.0000           -0.4811370             -13.0924
        60        2.0000           -0.4755097             -12.9393
        61        2.0000           -0.4687333             -12.7549
        62        2.0000           -0.4624169             -12.5830
        63        2.0000           -0.4591271             -12.4935
        64        2.0000           -0.4525280             -12.3139
        65        2.0000           -0.4492016             -12.2234
        66        2.0000           -0.4457421             -12.1293
        67        2.0000           -0.4292422             -11.6803 (HOMO)
        68                         -0.3231837              -8.7943 (LUMO)
        69                         -0.3128124              -8.5121
        70                         -0.2853775              -7.7655
        71                         -0.2581569              -7.0248
        72                         -0.2399145              -6.5284
        73                         -0.2006204              -5.4592
        74                         -0.1571472              -4.2762
        75                         -0.1427673              -3.8849
        76                         -0.1400232              -3.8102
        77                         -0.1379092              -3.7527
        78                         -0.1270577              -3.4574
       ...                                ...                  ...
       134                          0.7402719              20.1438
      -------------------------------------------------------------
                  HL-Gap            0.1060585 Eh            2.8860 eV

Wiberg/Mayer (AO) data.
largest (>0.10) Wiberg bond orders for each atom

     #   Z sym  total        # sym  WBO       # sym  WBO       # sym  WBO
 ---------------------------------------------------------------------------
     1   6 C    3.873 --    28 H    0.986    26 H    0.980    27 H    0.979
                             2 O    0.899
     2   8 O    2.199 --     3 C    1.110     1 C    0.899     4 O    0.134
     3   6 C    3.851 --     4 O    1.660     2 O    1.110     5 C    1.000
     4   8 O    1.925 --     3 C    1.660     2 O    0.134
     5   6 C    3.963 --    24 C    1.490     6 N    1.189     3 C    1.000
     6   7 N    3.032 --     7 C    1.573     5 C    1.189
     7   6 C    3.930 --     6 N    1.573    20 N    1.168     8 C    0.978
     8   6 C    3.933 --    10 C    0.989     9 C    0.980     7 C    0.978
                            11 N    0.923
     9   6 C    3.987 --    29 H    0.985     8 C    0.980    31 H    0.980
                            30 H    0.977
    10   6 C    3.988 --     8 C    0.989    34 H    0.985    33 H    0.983
                            32 H    0.982
    11   7 N    3.340 --    12 C    1.241     8 C    0.923    35 H    0.896
                            13 O    0.172
    12   6 C    3.915 --    13 O    1.593    11 N    1.241    14 C    0.994
    13   8 O    1.909 --    12 C    1.593    11 N    0.172
    14   6 C    3.872 --    15 N    1.620    19 O    1.045    12 C    0.994
    15   7 N    3.001 --    14 C    1.620    16 N    1.204
    16   7 N    2.980 --    17 C    1.606    15 N    1.204
    17   6 C    3.867 --    16 N    1.606    19 O    1.075    18 C    1.030
    18   6 C    3.986 --    17 C    1.030    36 H    0.983    38 H    0.964
                            37 H    0.963
    19   8 O    2.318 --    17 C    1.075    14 C    1.045
    20   7 N    3.511 --     7 C    1.168    22 C    1.132    21 C    0.926
                            23 O    0.135
    21   6 C    3.919 --    41 H    0.979    39 H    0.975    40 H    0.974
                            20 N    0.926
    22   6 C    3.914 --    23 O    1.557    20 N    1.132    24 C    1.076
    23   8 O    1.901 --    22 C    1.557    20 N    0.135
    24   6 C    3.921 --     5 C    1.490    25 O    1.110    22 C    1.076
    25   8 O    2.088 --    24 C    1.110    42 H    0.806
    26   1 H    1.008 --     1 C    0.980
    27   1 H    1.007 --     1 C    0.979
    28   1 H    1.011 --     1 C    0.986
    29   1 H    1.002 --     9 C    0.985
    30   1 H    1.011 --     9 C    0.977
    31   1 H    1.002 --     9 C    0.980
    32   1 H    1.006 --    10 C    0.982
    33   1 H    1.013 --    10 C    0.983
    34   1 H    1.006 --    10 C    0.985
    35   1 H    0.940 --    11 N    0.896
    36   1 H    0.997 --    18 C    0.983
    37   1 H    0.997 --    18 C    0.963
    38   1 H    0.997 --    18 C    0.964
    39   1 H    1.000 --    21 C    0.975
    40   1 H    1.004 --    21 C    0.974
    41   1 H    1.010 --    21 C    0.979
    42   1 H    0.847 --    25 O    0.806
 ---------------------------------------------------------------------------

           -------------------------------------------------
          | TOTAL ENERGY              -83.011570539143 Eh   |
          | GRADIENT NORM               0.000479041183 Eh/α |
          | HOMO-LUMO GAP               2.885999059319 eV   |
           -------------------------------------------------

 * finished run on 2023/06/20 at 15:12:21.254
