   * xtb version 6.5.1 (579679a) compiled by 'ehlert@majestix' on 2022-07-11
          program call               : /lustre/hpc/kemi/ree/PhD/git/ReactivityQM/dep/xtb-6.5.1/bin/xtb --gfn 1 /lustre/hpc/kemi/ree/PhD/git/ReactivityQM/calculations/R01/reac02prodN04/conf18/R01_reac02prodN04_conf18_gfn1.xyz --opt --vfukui --chrg 1 --uhf 0 --alpb DMSO

   ID    Z sym.   atoms
    1    6 C      1, 3, 5, 6, 8, 11-14, 17
    2    8 O      2, 4, 7, 9
    3    7 N      10, 15, 16
    4    1 H      18-33

      * Solvation model:               ALPB
        Solvent                        DMSO
        Solvent mass                       7.8130E+01 g/mol
          :  Hamiltonian                  GFN1-xTB          :
 * total energy  :   -57.8317287 Eh     change       -0.1241318E-10 Eh
 * total energy  :   -57.8483438 Eh     change       -0.1661507E-01 Eh
 * total energy  :   -57.8539581 Eh     change       -0.5614388E-02 Eh
 * total energy  :   -57.8552053 Eh     change       -0.1247202E-02 Eh
 * total energy  :   -57.8559286 Eh     change       -0.7232942E-03 Eh
 * total energy  :   -57.8561552 Eh     change       -0.2265983E-03 Eh
 * total energy  :   -57.8562438 Eh     change       -0.8852338E-04 Eh
 * total energy  :   -57.8562760 Eh     change       -0.3222715E-04 Eh
 * total energy  :   -57.8563017 Eh     change       -0.2571031E-04 Eh
 * total energy  :   -57.8563204 Eh     change       -0.1871066E-04 Eh
 * total energy  :   -57.8584239 Eh     change       -0.5290844E-04 Eh
 * total energy  :   -57.8584501 Eh     change       -0.2624840E-04 Eh
 * total energy  :   -57.8584885 Eh     change       -0.3838667E-04 Eh
 * total energy  :   -57.8585123 Eh     change       -0.2374841E-04 Eh
 * total energy  :   -57.8585257 Eh     change       -0.1346449E-04 Eh
 * total energy  :   -57.8585384 Eh     change       -0.1262748E-04 Eh
 * total energy  :   -57.8585347 Eh     change        0.3703237E-05 Eh
 * total energy  :   -57.8585423 Eh     change       -0.7608493E-05 Eh
 * total energy  :   -57.8585472 Eh     change       -0.4920664E-05 Eh
   *** GEOMETRY OPTIMIZATION CONVERGED AFTER 34 ITERATIONS ***

 final structure:
================
33
 xtb: 6.5.1 (579679a)
C            4.91657947336659       -0.07007805817770       -0.85581422769315
O            3.70375636760315       -0.38749018040100       -0.14018950202604
C            2.61055298713116        0.25486494580402       -0.52674866998186
O            2.59927345680080        1.09700535924296       -1.38681826405643
C            1.40866532733945       -0.14858423989199        0.28628420929719
C            1.52332404991869       -0.52638093776533        1.59674975789236
O            2.65199245434346       -0.71680036254281        2.25729180085045
C            0.32034705178260       -0.70752343404513        2.42186482059373
O            0.28508077284609       -1.02156854356592        3.58444928658138
N           -0.85200999508245       -0.44906611386294        1.71556237942675
C           -0.97239424422395       -0.15290163732353        0.41349366748833
C           -2.38916368450367        0.06976977293872       -0.11604026129157
C           -2.54760506906744        1.56492184542542       -0.43597771602970
C           -3.46314262461388       -0.33784089692524        0.90414511851553
N           -2.57590690435682       -0.71716046137619       -1.32833852146765
N            0.13743235333376       -0.00933611909272       -0.29498995330904
C            0.09616334898365        0.23955837586523       -1.74499322151385
H            4.80668108604809       -0.37284721455424       -1.89801736385317
H            5.71099587600634       -0.63222250916078       -0.37217484643509
H            5.10671401311547        1.00268169473912       -0.79905402048502
H            3.45050667131052       -0.64249472463651        1.70224887606028
H           -1.68867722627985       -0.55091710932026        2.27560356048715
H           -3.56651931317648        1.74392154264750       -0.77457937286598
H           -2.36306893950524        2.15760122334421        0.45863782854438
H           -1.86076074553063        1.87882771492875       -1.21804542934973
H           -3.33857159345934       -1.37571656525384        1.20730643806087
H           -3.45490922229900        0.31131385480207        1.77863363426342
H           -4.43473374231995       -0.24160616200404        0.42220409357108
H           -2.63712371028125       -1.69742473525092       -1.09149539325161
H           -3.44531040204075       -0.44185264205648       -1.76408905398328
H            0.86068194783203       -0.36656825372743       -2.22388660955387
H           -0.88269167428740       -0.04906802149767       -2.12045831254091
H            0.28384085326534        1.29498259269507       -1.93276373194398

          :  Hamiltonian                  GFN1-xTB          :
         :: total energy             -57.858547188073 Eh    ::
         :: gradient norm              0.000672881728 Eh/a0 ::
         :: HOMO-LUMO gap              2.110285491116 eV    ::
         :: SCC energy               -58.438532736965 Eh    ::
         :: -> Gsolv                  -0.101816974954 Eh    ::
         :: repulsion energy           0.599614685242 Eh    ::

    * Orbital Energies and Occupations

         #    Occupation            Energy/Eh            Energy/eV
      -------------------------------------------------------------
         1        2.0000           -0.8879646             -24.1627
       ...           ...                  ...                  ...
        35        2.0000           -0.5559545             -15.1283
        36        2.0000           -0.5435016             -14.7894
        37        2.0000           -0.5379196             -14.6375
        38        2.0000           -0.5356709             -14.5763
        39        2.0000           -0.5335770             -14.5194
        40        2.0000           -0.5286301             -14.3848
        41        2.0000           -0.5267565             -14.3338
        42        2.0000           -0.5222682             -14.2116
        43        2.0000           -0.5195849             -14.1386
        44        2.0000           -0.5162633             -14.0482
        45        2.0000           -0.4983851             -13.5617
        46        2.0000           -0.4783896             -13.0176
        47        2.0000           -0.4409982             -12.0002 (HOMO)
        48                         -0.3634466              -9.8899 (LUMO)
        49                         -0.3505554              -9.5391
        50                         -0.2847672              -7.7489
        51                         -0.2178185              -5.9271
        52                         -0.1600532              -4.3553
        53                         -0.1512680              -4.1162
        54                         -0.1503451              -4.0911
        55                         -0.1420519              -3.8654
        56                         -0.1304104              -3.5486
        57                         -0.1201389              -3.2691
        58                         -0.1095668              -2.9815
       ...                                ...                  ...
       100                          0.7145958              19.4451
      -------------------------------------------------------------
                  HL-Gap            0.0775516 Eh            2.1103 eV

Wiberg/Mayer (AO) data.
largest (>0.10) Wiberg bond orders for each atom

     #   Z sym  total        # sym  WBO       # sym  WBO       # sym  WBO
 ---------------------------------------------------------------------------
     1   6 C    3.837 --    19 H    0.984    20 H    0.979    18 H    0.978
                             2 O    0.863
     2   8 O    2.230 --     3 C    1.131     1 C    0.863     4 O    0.138
     3   6 C    3.862 --     4 O    1.676     2 O    1.131     5 C    0.981
     4   8 O    1.969 --     3 C    1.676     2 O    0.138
     5   6 C    3.922 --     6 C    1.527    16 N    1.073     3 C    0.981
                             7 O    0.108
     6   6 C    3.925 --     5 C    1.527     7 O    1.154     8 C    1.029
     7   8 O    2.126 --     6 C    1.154    21 H    0.780     5 C    0.108
     8   6 C    3.901 --     9 O    1.677    10 N    1.070     6 C    1.029
     9   8 O    1.964 --     8 C    1.677    10 N    0.119
    10   7 N    3.487 --    11 C    1.274     8 C    1.070    22 H    0.863
                             9 O    0.119
    11   6 C    3.884 --    16 N    1.408    10 N    1.274    12 C    0.967
    12   6 C    3.953 --    14 C    0.993    15 N    0.986    13 C    0.971
                            11 C    0.967
    13   6 C    3.986 --    24 H    0.984    25 H    0.981    23 H    0.977
                            12 C    0.971
    14   6 C    3.989 --    12 C    0.993    26 H    0.980    27 H    0.977
                            28 H    0.976
    15   7 N    3.002 --    12 C    0.986    29 H    0.931    30 H    0.926
    16   7 N    3.584 --    11 C    1.408     5 C    1.073    17 C    0.901
    17   6 C    3.879 --    31 H    0.976    33 H    0.967    32 H    0.952
                            16 N    0.901
    18   1 H    1.001 --     1 C    0.978
    19   1 H    1.005 --     1 C    0.984
    20   1 H    1.002 --     1 C    0.979
    21   1 H    0.832 --     7 O    0.780
    22   1 H    0.921 --    10 N    0.863
    23   1 H    0.994 --    13 C    0.977
    24   1 H    0.998 --    13 C    0.984
    25   1 H    0.999 --    13 C    0.981
    26   1 H    0.996 --    14 C    0.980
    27   1 H    0.995 --    14 C    0.977
    28   1 H    0.997 --    14 C    0.976
    29   1 H    0.944 --    15 N    0.931
    30   1 H    0.941 --    15 N    0.926
    31   1 H    0.998 --    17 C    0.976
    32   1 H    1.019 --    17 C    0.952
    33   1 H    1.006 --    17 C    0.967
 ---------------------------------------------------------------------------

           -------------------------------------------------
          | TOTAL ENERGY              -57.858547188073 Eh   |
          | GRADIENT NORM               0.000672881728 Eh/α |
          | HOMO-LUMO GAP               2.110285491116 eV   |
           -------------------------------------------------

 * finished run on 2023/06/20 at 15:05:28.315
