   * xtb version 6.5.1 (579679a) compiled by 'ehlert@majestix' on 2022-07-11
          program call               : /lustre/hpc/kemi/ree/PhD/git/ReactivityQM/dep/xtb-6.5.1/bin/xtb --gfn 1 /lustre/hpc/kemi/ree/PhD/git/ReactivityQM/calculations/R02/reac01prodE11/conf09/R02_reac01prodE11_conf09_gfn1.xyz --opt --vfukui --chrg -1 --uhf 0 --alpb DMSO

   ID    Z sym.   atoms
    1    6 C      1, 3, 5, 7-10, 12, 14, 17-19, 22, 24
    2    8 O      2, 4, 13, 20, 23, 25
    3    7 N      6, 11, 15, 16, 21
    4    1 H      26-43

      * Solvation model:               ALPB
        Solvent                        DMSO
        Solvent mass                       7.8130E+01 g/mol
          :  Hamiltonian                  GFN1-xTB          :
 * total energy  :   -83.8680652 Eh     change       -0.4620091E-09 Eh
 * total energy  :   -83.8781405 Eh     change       -0.1007528E-01 Eh
 * total energy  :   -83.8819258 Eh     change       -0.3785378E-02 Eh
 * total energy  :   -83.8826184 Eh     change       -0.6925734E-03 Eh
 * total energy  :   -83.8830908 Eh     change       -0.4723492E-03 Eh
 * total energy  :   -83.8832704 Eh     change       -0.1796432E-03 Eh
 * total energy  :   -83.8833919 Eh     change       -0.1215081E-03 Eh
 * total energy  :   -83.8834653 Eh     change       -0.7334058E-04 Eh
 * total energy  :   -83.8835169 Eh     change       -0.5160910E-04 Eh
 * total energy  :   -83.8835491 Eh     change       -0.3227364E-04 Eh
 * total energy  :   -83.8835685 Eh     change       -0.1937905E-04 Eh
 * total energy  :   -83.8835840 Eh     change       -0.1544646E-04 Eh
 * total energy  :   -83.8835920 Eh     change       -0.8069953E-05 Eh
 * total energy  :   -83.8836083 Eh     change       -0.1623492E-04 Eh
 * total energy  :   -83.8836156 Eh     change       -0.7301987E-05 Eh
 * total energy  :   -83.8836269 Eh     change       -0.1130569E-04 Eh
 * total energy  :   -83.8836336 Eh     change       -0.6753181E-05 Eh
 * total energy  :   -83.8836383 Eh     change       -0.4717697E-05 Eh
   *** GEOMETRY OPTIMIZATION CONVERGED AFTER 18 ITERATIONS ***

 final structure:
================
43
 xtb: 6.5.1 (579679a)
C            6.74099349454804        0.36004951883368        1.42129247148719
O            5.50305626700385        0.87927571012389        0.91933047254212
C            4.55270209516000       -0.03578818383769        0.65030616642292
O            4.72803907991343       -1.21994806469426        0.82853964710051
C            3.30000118604626        0.55040943740921        0.11342998007586
N            2.35582275289735       -0.40188936481293       -0.18867998708525
C            1.21682940912030       -0.04038335416480       -0.67484403510185
C            0.18537892202286       -1.07386519084701       -1.07917164819858
C            0.36496042057634       -2.34688303160803       -0.24046196914632
C            0.42320430555031       -1.36166245323560       -2.57257754090096
N           -1.12779930188575       -0.47011764900614       -0.87398052541750
C           -2.29495182273859       -1.23950963032003       -1.11916949113560
O           -2.28500472577397       -2.23297841004048       -1.87072246766029
C           -3.43866567486562       -0.72789915944759       -0.47373708032285
N           -4.67820730406361       -1.19988512085033       -0.54428027783421
N           -5.48598708601429       -0.50224108971598        0.18831089200380
C           -4.70425954624352        0.56557649523775        0.83009384157997
C           -5.23627858084053        1.93659059929231        0.38466153244771
C           -4.77491679062577        0.41316492817699        2.35708647386693
O           -3.36702714271310        0.38799879622677        0.37877860349666
N            0.91853821952868        1.26695656681932       -0.91732016594611
C            1.77119176479148        2.31758955922899       -0.65534134985253
O            1.44352940384079        3.47059428077671       -0.89505193720901
C            3.05341166446885        1.88847430586550       -0.09191962699254
O            3.90139056649506        2.89607209572839        0.17289335707491
H            7.40077315547190        1.21079213980389        1.57059989757795
H            7.17464038696518       -0.33365104836310        0.69741825986663
H            6.57215345864088       -0.15982548995271        2.36707340577365
H            0.17782220164154       -2.12975418552297        0.81030128089735
H           -0.32932971204666       -3.11508596099359       -0.57760151521327
H            1.38485918582948       -2.71391460864508       -0.34730018115896
H            1.46339851338432       -1.64643325231382       -2.72609598062024
H            0.21016446055422       -0.46830506805832       -3.15800158108713
H           -0.22015292286340       -2.17146882685590       -2.91114768779537
H           -1.19224751779859        0.03138733452739        0.00432404024612
H           -5.16633312121412        2.01470068081940       -0.69922697660646
H           -6.27733383670495        2.04144187474945        0.68330911863617
H           -4.64805283931521        2.73264939519459        0.83718706503570
H           -4.38812804033825       -0.56500121446415        2.63814995970625
H           -4.17757538834512        1.18382232135862        2.84088508202099
H           -5.80860414321456        0.49616268452266        2.68698948135220
H            0.01146870412948        1.49632545328501       -1.30507524564403
H            4.74652487902642        2.58941317977026        0.54074424171643

          :  Hamiltonian                  GFN1-xTB          :
         :: total energy             -83.883638343282 Eh    ::
         :: gradient norm              0.000543795858 Eh/a0 ::
         :: HOMO-LUMO gap              0.177763202577 eV    ::
         :: SCC energy               -84.641443547287 Eh    ::
         :: -> Gsolv                  -0.115008354820 Eh    ::
         :: repulsion energy           0.783872117579 Eh    ::

    * Orbital Energies and Occupations

         #    Occupation            Energy/Eh            Energy/eV
      -------------------------------------------------------------
         1        2.0000           -0.8362428             -22.7553
       ...           ...                  ...                  ...
        56        2.0000           -0.4762772             -12.9602
        57        2.0000           -0.4734772             -12.8840
        58        2.0000           -0.4724010             -12.8547
        59        2.0000           -0.4505131             -12.2591
        60        2.0000           -0.4468410             -12.1592
        61        2.0000           -0.4398643             -11.9693
        62        2.0000           -0.4365013             -11.8778
        63        2.0000           -0.4197581             -11.4222
        64        2.0000           -0.4179995             -11.3743
        65        2.0000           -0.4123944             -11.2218
        66        2.0000           -0.3990135             -10.8577
        67        2.0000           -0.3743799             -10.1874
        68        1.9377           -0.3212895              -8.7427 (HOMO)
        69        0.0623           -0.3147569              -8.5650 (LUMO)
        70                         -0.2682343              -7.2990
        71                         -0.2436316              -6.6296
        72                         -0.2308219              -6.2810
        73                         -0.1475445              -4.0149
        74                         -0.1338462              -3.6421
        75                         -0.1314602              -3.5772
        76                         -0.1095993              -2.9823
        77                         -0.1057521              -2.8777
        78                         -0.1049221              -2.8551
        79                         -0.0990203              -2.6945
       ...                                ...                  ...
       136                          0.7313310              19.9005
      -------------------------------------------------------------
                  HL-Gap            0.0065327 Eh            0.1778 eV

Wiberg/Mayer (AO) data.
largest (>0.10) Wiberg bond orders for each atom

     #   Z sym  total        # sym  WBO       # sym  WBO       # sym  WBO
 ---------------------------------------------------------------------------
     1   6 C    3.867 --    26 H    0.986    27 H    0.980    28 H    0.980
                             2 O    0.890
     2   8 O    2.190 --     3 C    1.073     1 C    0.890     4 O    0.125
     3   6 C    3.828 --     4 O    1.657     2 O    1.073     5 C    1.020
     4   8 O    1.911 --     3 C    1.657     2 O    0.125
     5   6 C    3.945 --    24 C    1.481     6 N    1.174     3 C    1.020
     6   7 N    3.019 --     7 C    1.582     5 C    1.174
     7   6 C    3.917 --     6 N    1.582    21 N    1.170     8 C    0.980
     8   6 C    3.957 --     9 C    0.987     7 C    0.980    10 C    0.973
                            11 N    0.959
     9   6 C    3.992 --     8 C    0.987    29 H    0.986    31 H    0.985
                            30 H    0.983
    10   6 C    3.991 --    32 H    0.988    33 H    0.986    34 H    0.976
                             8 C    0.973
    11   7 N    3.161 --    12 C    1.040     8 C    0.959    35 H    0.917
    12   6 C    3.914 --    13 O    1.464    14 C    1.234    11 N    1.040
    13   8 O    1.798 --    12 C    1.464
    14   6 C    3.816 --    15 N    1.380    12 C    1.234    20 O    0.932
                            16 N    0.138
    15   7 N    3.024 --    16 N    1.489    14 C    1.380
    16   7 N    2.859 --    15 N    1.489    17 C    0.981    14 C    0.138
    17   6 C    3.896 --    16 N    0.981    19 C    0.978    18 C    0.978
                            20 O    0.919
    18   6 C    3.990 --    37 H    0.988    38 H    0.986    36 H    0.985
                            17 C    0.978
    19   6 C    3.990 --    41 H    0.988    40 H    0.986    39 H    0.985
                            17 C    0.978
    20   8 O    2.052 --    14 C    0.932    17 C    0.919
    21   7 N    3.454 --     7 C    1.170    22 C    1.125    42 H    0.880
                            23 O    0.131
    22   6 C    3.901 --    23 O    1.579    21 N    1.125    24 C    1.070
    23   8 O    1.870 --    22 C    1.579    21 N    0.131
    24   6 C    3.892 --     5 C    1.481    25 O    1.094    22 C    1.070
    25   8 O    2.070 --    24 C    1.094    43 H    0.805
    26   1 H    1.010 --     1 C    0.986
    27   1 H    1.008 --     1 C    0.980
    28   1 H    1.007 --     1 C    0.980
    29   1 H    1.005 --     9 C    0.986
    30   1 H    1.013 --     9 C    0.983
    31   1 H    1.014 --     9 C    0.985
    32   1 H    1.005 --    10 C    0.988
    33   1 H    1.007 --    10 C    0.986
    34   1 H    1.022 --    10 C    0.976
    35   1 H    0.965 --    11 N    0.917
    36   1 H    1.013 --    18 C    0.985
    37   1 H    1.009 --    18 C    0.988
    38   1 H    1.007 --    18 C    0.986
    39   1 H    1.013 --    19 C    0.985
    40   1 H    1.007 --    19 C    0.986
    41   1 H    1.009 --    19 C    0.988
    42   1 H    0.941 --    21 N    0.880
    43   1 H    0.858 --    25 O    0.805
 ---------------------------------------------------------------------------

           -------------------------------------------------
          | TOTAL ENERGY              -83.883638343282 Eh   |
          | GRADIENT NORM               0.000543795858 Eh/α |
          | HOMO-LUMO GAP               0.177763202577 eV   |
           -------------------------------------------------

 * finished run on 2023/06/20 at 15:13:32.354
