   * xtb version 6.5.1 (579679a) compiled by 'ehlert@majestix' on 2022-07-11
          program call               : /lustre/hpc/kemi/ree/PhD/git/ReactivityQM/dep/xtb-6.5.1/bin/xtb --gfn 1 /lustre/hpc/kemi/ree/PhD/git/ReactivityQM/calculations/R01/reac02prodN10/conf15/R01_reac02prodN10_conf15_gfn1.xyz --opt --vfukui --chrg 1 --uhf 0 --alpb DMSO

   ID    Z sym.   atoms
    1    6 C      1, 3, 4, 6, 8-11, 14, 16
    2    8 O      2, 5, 15, 17
    3    7 N      7, 12, 13
    4    1 H      18-33

      * Solvation model:               ALPB
        Solvent                        DMSO
        Solvent mass                       7.8130E+01 g/mol
          :  Hamiltonian                  GFN1-xTB          :
 * total energy  :   -57.8014280 Eh     change       -0.1332978E-10 Eh
 * total energy  :   -57.8111391 Eh     change       -0.9711141E-02 Eh
 * total energy  :   -57.8137852 Eh     change       -0.2646059E-02 Eh
 * total energy  :   -57.8143635 Eh     change       -0.5783235E-03 Eh
 * total energy  :   -57.8148844 Eh     change       -0.5208646E-03 Eh
 * total energy  :   -57.8151543 Eh     change       -0.2699001E-03 Eh
 * total energy  :   -57.8153529 Eh     change       -0.1986562E-03 Eh
 * total energy  :   -57.8154914 Eh     change       -0.1385033E-03 Eh
 * total energy  :   -57.8155897 Eh     change       -0.9830919E-04 Eh
 * total energy  :   -57.8156747 Eh     change       -0.8498671E-04 Eh
 * total energy  :   -57.8158369 Eh     change       -0.3098160E-04 Eh
 * total energy  :   -57.8158691 Eh     change       -0.3213359E-04 Eh
 * total energy  :   -57.8158951 Eh     change       -0.2601492E-04 Eh
 * total energy  :   -57.8159177 Eh     change       -0.2260696E-04 Eh
 * total energy  :   -57.8159408 Eh     change       -0.2309961E-04 Eh
 * total energy  :   -57.8159502 Eh     change       -0.9366046E-05 Eh
 * total energy  :   -57.8159571 Eh     change       -0.6929515E-05 Eh
 * total energy  :   -57.8159632 Eh     change       -0.6148983E-05 Eh
 * total energy  :   -57.8159669 Eh     change       -0.3659446E-05 Eh
   *** GEOMETRY OPTIMIZATION CONVERGED AFTER 22 ITERATIONS ***

 final structure:
================
33
 xtb: 6.5.1 (579679a)
C           -3.72546273231432        1.05436507219637        1.40524623762100
O           -2.49835883160723        0.75274493228456        0.67486071688284
C           -2.25201874473348        1.65326138335648       -0.44882515853453
C           -2.35560662448648       -0.70210006000483        0.38253251881258
O           -3.33553959203197       -1.36756664546913        0.51215863771192
C           -1.02247326056682       -1.10593435787150        0.04097668572344
N           -0.02028889236378       -0.16373073293400        0.06338330649085
C            1.18412026579279       -0.53777242154434       -0.22408306000298
C            2.33958915986122        0.43295685699093       -0.16461169003005
C            2.83914936939668        0.47002709288177        1.28760291932072
C            1.88849859745814        1.82664229051071       -0.61754730096209
N            3.39889560004301       -0.09657052900787       -1.01393756885633
N            1.49499873453472       -1.82243511299912       -0.53485017715939
C            0.60146636566624       -2.86393656711202       -0.59648467919229
O            0.93345131458377       -3.99234942818798       -0.88948402769884
C           -0.77782338849108       -2.43652767923509       -0.26481948985183
O           -1.68980932115358       -3.38603272776664       -0.29713598442477
H           -3.75131882620684        0.38517486104133        2.26192600642271
H           -4.58518556400948        0.89660370870787        0.75501702329884
H           -3.64620100211457        2.09134108854251        1.71963086381619
H           -1.26446710716089        1.41076390816840       -0.83272501112668
H           -2.26855617657615        2.66115698775891       -0.04198115223360
H           -3.02673394469405        1.51496069741820       -1.20220173884744
H            3.66230340141162        1.17775506029623        1.37102252531461
H            3.18727496323687       -0.51785375465461        1.58677152068367
H            2.03357310756338        0.78150492461795        1.95090637995747
H            1.10235587816154        2.19323582744124        0.04078586712005
H            2.73150549678674        2.51444943136694       -0.58573680579107
H            1.50373883719363        1.78351723515042       -1.63501299397337
H            3.17421690906904        0.08999168792169       -1.98198496019762
H            4.26672409458051        0.37780739914033       -0.80405783695573
H            2.46835208707859       -1.99674605050628       -0.77963880509753
H           -2.59036917390881       -3.07870537850000       -0.07879776824160

          :  Hamiltonian                  GFN1-xTB          :
         :: total energy             -57.815966894845 Eh    ::
         :: gradient norm              0.000388118439 Eh/a0 ::
         :: HOMO-LUMO gap              1.383489052179 eV    ::
         :: SCC energy               -58.397348822732 Eh    ::
         :: -> Gsolv                  -0.106703018131 Eh    ::
         :: repulsion energy           0.600651785477 Eh    ::

    * Orbital Energies and Occupations

         #    Occupation            Energy/Eh            Energy/eV
      -------------------------------------------------------------
         1        2.0000           -0.9309997             -25.3338
       ...           ...                  ...                  ...
        35        2.0000           -0.5574621             -15.1693
        36        2.0000           -0.5475806             -14.9004
        37        2.0000           -0.5452473             -14.8369
        38        2.0000           -0.5286044             -14.3841
        39        2.0000           -0.5245129             -14.2727
        40        2.0000           -0.5170465             -14.0696
        41        2.0000           -0.5126623             -13.9503
        42        2.0000           -0.5103384             -13.8870
        43        2.0000           -0.4984341             -13.5631
        44        2.0000           -0.4833244             -13.1519
        45        2.0000           -0.4776701             -12.9981
        46        2.0000           -0.4578996             -12.4601
        47        2.0000           -0.4297159             -11.6932 (HOMO)
        48                         -0.3788736             -10.3097 (LUMO)
        49                         -0.3080044              -8.3812
        50                         -0.2850198              -7.7558
        51                         -0.1952845              -5.3140
        52                         -0.1797679              -4.8917
        53                         -0.1706071              -4.6425
        54                         -0.1342154              -3.6522
        55                         -0.1327893              -3.6134
        56                         -0.1315248              -3.5790
        57                         -0.1273146              -3.4644
        58                         -0.1147501              -3.1225
       ...                                ...                  ...
       100                          0.7237713              19.6948
      -------------------------------------------------------------
                  HL-Gap            0.0508423 Eh            1.3835 eV

Wiberg/Mayer (AO) data.
largest (>0.10) Wiberg bond orders for each atom

     #   Z sym  total        # sym  WBO       # sym  WBO       # sym  WBO
 ---------------------------------------------------------------------------
     1   6 C    3.783 --    19 H    0.979    20 H    0.977    18 H    0.975
                             2 O    0.811
     2   8 O    2.499 --     1 C    0.811     3 C    0.802     4 C    0.767
     3   6 C    3.777 --    23 H    0.981    22 H    0.976    21 H    0.966
                             2 O    0.802
     4   6 C    3.805 --     5 O    1.752     6 C    1.134     2 O    0.767
     5   8 O    2.071 --     4 C    1.752
     6   6 C    3.959 --    16 C    1.407     7 N    1.156     4 C    1.134
     7   7 N    3.030 --     8 C    1.564     6 C    1.156
     8   6 C    3.912 --     7 N    1.564    13 N    1.187     9 C    0.981
     9   6 C    3.964 --    12 N    0.990    11 C    0.985     8 C    0.981
                            10 C    0.973
    10   6 C    3.990 --    26 H    0.986    25 H    0.985    24 H    0.981
                             9 C    0.973
    11   6 C    3.992 --     9 C    0.985    29 H    0.984    28 H    0.983
                            27 H    0.983
    12   7 N    2.984 --     9 C    0.990    30 H    0.937    31 H    0.933
    13   7 N    3.483 --     8 C    1.187    14 C    1.141    32 H    0.857
                            15 O    0.142
    14   6 C    3.914 --    15 O    1.630    13 N    1.141    16 C    1.021
    15   8 O    1.931 --    14 C    1.630    13 N    0.142
    16   6 C    3.907 --     6 C    1.407    17 O    1.178    14 C    1.021
    17   8 O    2.154 --    16 C    1.178    33 H    0.781
    18   1 H    0.996 --     1 C    0.975
    19   1 H    0.995 --     1 C    0.979
    20   1 H    0.994 --     1 C    0.977
    21   1 H    1.019 --     3 C    0.966
    22   1 H    0.994 --     3 C    0.976
    23   1 H    0.991 --     3 C    0.981
    24   1 H    0.998 --    10 C    0.981
    25   1 H    1.001 --    10 C    0.985
    26   1 H    1.002 --    10 C    0.986
    27   1 H    1.007 --    11 C    0.983
    28   1 H    1.000 --    11 C    0.983
    29   1 H    1.002 --    11 C    0.984
    30   1 H    0.950 --    12 N    0.937
    31   1 H    0.947 --    12 N    0.933
    32   1 H    0.940 --    13 N    0.857
    33   1 H    0.831 --    17 O    0.781
 ---------------------------------------------------------------------------

           -------------------------------------------------
          | TOTAL ENERGY              -57.815966894845 Eh   |
          | GRADIENT NORM               0.000388118439 Eh/α |
          | HOMO-LUMO GAP               1.383489052179 eV   |
           -------------------------------------------------

 * finished run on 2023/06/20 at 15:10:16.746
