   * xtb version 6.5.1 (579679a) compiled by 'ehlert@majestix' on 2022-07-11
          program call               : /lustre/hpc/kemi/ree/PhD/git/ReactivityQM/dep/xtb-6.5.1/bin/xtb --gfn 1 /lustre/hpc/kemi/ree/PhD/git/ReactivityQM/calculations/RaltegravirCLI/reac02prodN03/conf02/RaltegravirCLI_reac02prodN03_conf02_gfn1.xyz --opt --vfukui --chrg 1 --uhf 0 --alpb DMSO

   ID    Z sym.   atoms
    1    6 C      1, 3-5, 8-12, 14, 15, 17-20, 23, 24
    2    8 O      2, 6, 25
    3    7 N      7, 16, 21, 22
    4    9 F      13
    5    1 H      26-47

      * Solvation model:               ALPB
        Solvent                        DMSO
        Solvent mass                       7.8130E+01 g/mol
          :  Hamiltonian                  GFN1-xTB          :
 * total energy  :   -79.4798143 Eh     change       -0.3780087E-11 Eh
 * total energy  :   -79.4931825 Eh     change       -0.1336818E-01 Eh
 * total energy  :   -79.4996365 Eh     change       -0.6454025E-02 Eh
 * total energy  :   -79.5037070 Eh     change       -0.4070456E-02 Eh
 * total energy  :   -79.5089935 Eh     change       -0.5286543E-02 Eh
 * total energy  :   -79.5125497 Eh     change       -0.3556138E-02 Eh
 * total energy  :   -79.5186119 Eh     change       -0.6062176E-02 Eh
 * total energy  :   -79.5218192 Eh     change       -0.3207334E-02 Eh
 * total energy  :   -79.5194833 Eh     change        0.2335859E-02 Eh
 * total energy  :   -79.5266456 Eh     change       -0.7162265E-02 Eh
 * total energy  :   -79.5354932 Eh     change       -0.3499810E-03 Eh
 * total energy  :   -79.5355322 Eh     change       -0.3900120E-04 Eh
 * total energy  :   -79.5355905 Eh     change       -0.5835732E-04 Eh
 * total energy  :   -79.5356228 Eh     change       -0.3229784E-04 Eh
 * total energy  :   -79.5356391 Eh     change       -0.1631273E-04 Eh
 * total energy  :   -79.5356568 Eh     change       -0.1760246E-04 Eh
 * total energy  :   -79.5356631 Eh     change       -0.6365957E-05 Eh
 * total energy  :   -79.5356689 Eh     change       -0.5807564E-05 Eh
 * total energy  :   -79.5356735 Eh     change       -0.4602943E-05 Eh
   *** GEOMETRY OPTIMIZATION CONVERGED AFTER 33 ITERATIONS ***

 final structure:
================
47
 xtb: 6.5.1 (579679a)
C           -1.57634499544129       -4.13887776960579        2.81967617910827
O           -0.74002347964684       -3.24630068123396        2.06199769429576
C           -1.22174226917655       -2.18555679621469        1.40099206508674
C           -0.33913415691537       -1.37258710219185        0.72476522212242
C            1.09495713100865       -1.59041851764687        0.66188571131879
O            1.69998861136379       -2.60536733571222        1.21432152777128
N            1.82677336733553       -0.72837252291915        0.01297435433324
C            3.28136999492270       -0.86990878651479       -0.12857208283993
C            3.87204544884101        0.40388828116599       -0.67606070322222
C            4.08977102620315        0.53956023846898       -2.04557502644373
C            4.64403092105965        1.70386944012543       -2.55756835566366
C            4.96828828580448        2.71947193248003       -1.67532129921005
F            5.50755046989085        3.84381247691298       -2.16049308702690
C            4.75625158482261        2.61973250645060       -0.31114113056663
C            4.20186846804631        1.44890329142703        0.18522827368479
N           -0.75873762636832       -0.26575997643216        0.04865728727711
C           -2.02026167414055        0.04748398057971       -0.00247154277969
C           -2.35235378461135        1.34083300527255       -0.73439400241723
C           -1.11290748861693        1.82047307137621       -1.50658718090940
C           -2.75226898902639        2.40698424827882        0.29641368858347
N           -3.45303246749637        1.12641051924689       -1.66788498803008
N           -2.95850300790026       -0.71920267727361        0.62433121037272
C           -4.40020004749047       -0.43529951099327        0.61098379473474
C           -2.64299824216210       -1.85029452426944        1.37229664390882
O           -3.52735376423119       -2.47742810099425        1.93662720520186
H           -2.29231812442177       -4.63798748952764        2.16460712252059
H           -0.89482741491693       -4.86754063590439        3.25660142816964
H           -2.10010230916037       -3.59597157491319        3.60768176808535
H            1.08320028901253       -3.20598767680273        1.68431023235171
H            1.34705717538534        0.04983198420068       -0.42726077703071
H            3.47123927424560       -1.71530005312899       -0.79724031148534
H            3.68631377580642       -1.11019967024333        0.85879285935561
H            3.82618894808136       -0.26940672228199       -2.71608834618428
H            4.81985852367915        1.82224695999709       -3.61889483695360
H            5.01832756159541        3.43940241921300        0.34526429580574
H            4.02527843426487        1.34713737315935        1.24926514055172
H           -1.36511580080153        2.71766707711542       -2.06942169132320
H           -0.78137497234171        1.04931521824012       -2.19943837650075
H           -0.29953239179696        2.04788077070099       -0.81979073051907
H           -2.92523010681678        3.35364610800700       -0.21342830371455
H           -1.95076633382844        2.53908390905383        1.02199047258758
H           -3.66117099063809        2.12248305776338        0.82264834508547
H           -3.14675231981104        0.50663740380221       -2.40532531467654
H           -3.69752054528549        2.01275676396070       -2.08913703819167
H           -4.62863266432537        0.29238834068561       -0.16109733569311
H           -4.92637442513121       -1.36842950170711        0.40748014708057
H           -4.69477889887058       -0.06570175117519        1.59340279198656

          :  Hamiltonian                  GFN1-xTB          :
         :: total energy             -79.535673528104 Eh    ::
         :: gradient norm              0.000420360915 Eh/a0 ::
         :: HOMO-LUMO gap              1.686569127823 eV    ::
         :: SCC energy               -80.430366643452 Eh    ::
         :: -> Gsolv                  -0.096523251205 Eh    ::
         :: repulsion energy           0.924416367474 Eh    ::

    * Orbital Energies and Occupations

         #    Occupation            Energy/Eh            Energy/eV
      -------------------------------------------------------------
         1        2.0000           -0.8763441             -23.8465
       ...           ...                  ...                  ...
        55        2.0000           -0.5134547             -13.9718
        56        2.0000           -0.5113122             -13.9135
        57        2.0000           -0.5093845             -13.8611
        58        2.0000           -0.5065702             -13.7845
        59        2.0000           -0.4969583             -13.5229
        60        2.0000           -0.4877865             -13.2733
        61        2.0000           -0.4841027             -13.1731
        62        2.0000           -0.4741353             -12.9019
        63        2.0000           -0.4697953             -12.7838
        64        2.0000           -0.4657334             -12.6733
        65        2.0000           -0.4537696             -12.3477
        66        2.0000           -0.4453345             -12.1182
        67        2.0000           -0.4234899             -11.5237 (HOMO)
        68                         -0.3615097              -9.8372 (LUMO)
        69                         -0.3032623              -8.2522
        70                         -0.2875419              -7.8244
        71                         -0.2843370              -7.7372
        72                         -0.2758244              -7.5056
        73                         -0.1853760              -5.0443
        74                         -0.1620033              -4.4083
        75                         -0.1456865              -3.9643
        76                         -0.1415535              -3.8519
        77                         -0.1410182              -3.8373
        78                         -0.1367627              -3.7215
       ...                                ...                  ...
       144                          0.6736799              18.3318
      -------------------------------------------------------------
                  HL-Gap            0.0619803 Eh            1.6866 eV

Wiberg/Mayer (AO) data.
largest (>0.10) Wiberg bond orders for each atom

     #   Z sym  total        # sym  WBO       # sym  WBO       # sym  WBO
 ---------------------------------------------------------------------------
     1   6 C    3.844 --    27 H    0.983    28 H    0.977    26 H    0.977
                             2 O    0.868
     2   8 O    2.215 --     3 C    1.097     1 C    0.868
     3   6 C    3.913 --     4 C    1.435     2 O    1.097    24 C    1.072
     4   6 C    3.962 --     3 C    1.435    16 N    1.188     5 C    1.092
     5   6 C    3.877 --     7 N    1.475     6 O    1.193     4 C    1.092
     6   8 O    2.153 --     5 C    1.193    29 H    0.763     7 N    0.104
     7   7 N    3.488 --     5 C    1.475     8 C    0.908    30 H    0.872
                             6 O    0.104
     8   6 C    3.916 --     9 C    1.004    32 H    0.965    31 H    0.962
                             7 N    0.908
     9   6 C    3.986 --    10 C    1.418    15 C    1.416     8 C    1.004
    10   6 C    3.993 --    11 C    1.445     9 C    1.418    33 H    0.970
                            14 C    0.110
    11   6 C    3.991 --    10 C    1.445    12 C    1.398    34 H    0.968
                            15 C    0.110
    12   6 C    3.864 --    11 C    1.398    14 C    1.397    13 F    0.936
    13   9 F    1.068 --    12 C    0.936
    14   6 C    3.991 --    15 C    1.447    12 C    1.397    35 H    0.968
                            10 C    0.110
    15   6 C    3.993 --    14 C    1.447     9 C    1.416    36 H    0.971
                            11 C    0.110
    16   7 N    3.045 --    17 C    1.531     4 C    1.188
    17   6 C    3.913 --    16 N    1.531    22 N    1.200    18 C    0.976
    18   6 C    3.964 --    19 C    0.991    21 N    0.984    20 C    0.980
                            17 C    0.976
    19   6 C    3.994 --    18 C    0.991    38 H    0.984    37 H    0.984
                            39 H    0.983
    20   6 C    3.992 --    41 H    0.985    42 H    0.982    40 H    0.981
                            18 C    0.980
    21   7 N    2.994 --    18 C    0.984    43 H    0.938    44 H    0.935
    22   7 N    3.527 --    17 C    1.200    24 C    1.121    23 C    0.919
                            25 O    0.137
    23   6 C    3.907 --    47 H    0.974    46 H    0.974    45 H    0.966
                            22 N    0.919
    24   6 C    3.918 --    25 O    1.577    22 N    1.121     3 C    1.072
    25   8 O    1.919 --    24 C    1.577    22 N    0.137
    26   1 H    1.010 --     1 C    0.977
    27   1 H    1.008 --     1 C    0.983
    28   1 H    1.010 --     1 C    0.977
    29   1 H    0.824 --     6 O    0.763
    30   1 H    0.950 --     7 N    0.872
    31   1 H    0.997 --     8 C    0.962
    32   1 H    1.000 --     8 C    0.965
    33   1 H    0.997 --    10 C    0.970
    34   1 H    0.996 --    11 C    0.968
    35   1 H    0.996 --    14 C    0.968
    36   1 H    0.997 --    15 C    0.971
    37   1 H    1.001 --    19 C    0.984
    38   1 H    1.007 --    19 C    0.984
    39   1 H    1.010 --    19 C    0.983
    40   1 H    0.998 --    20 C    0.981
    41   1 H    1.002 --    20 C    0.985
    42   1 H    1.002 --    20 C    0.982
    43   1 H    0.952 --    21 N    0.938
    44   1 H    0.950 --    21 N    0.935
    45   1 H    1.026 --    23 C    0.966
    46   1 H    1.004 --    23 C    0.974
    47   1 H    1.001 --    23 C    0.974
 ---------------------------------------------------------------------------

           -------------------------------------------------
          | TOTAL ENERGY              -79.535673528104 Eh   |
          | GRADIENT NORM               0.000420360915 Eh/α |
          | HOMO-LUMO GAP               1.686569127823 eV   |
           -------------------------------------------------

 * finished run on 2023/06/20 at 15:19:47.844
