   * xtb version 6.5.1 (579679a) compiled by 'ehlert@majestix' on 2022-07-11
          program call               : /lustre/hpc/kemi/ree/PhD/git/ReactivityQM/dep/xtb-6.5.1/bin/xtb --gfn 1 /lustre/hpc/kemi/ree/PhD/git/ReactivityQM/calculations/RaltegravirCLI/reac02prodN16/conf15/RaltegravirCLI_reac02prodN16_conf15_gfn1.xyz --opt --vfukui --chrg 1 --uhf 0 --alpb DMSO

   ID    Z sym.   atoms
    1    6 C      1, 3-7, 9, 11, 13-16, 19, 20, 22, 24, 25
    2    9 F      2
    3    7 N      8, 12, 17, 18
    4    8 O      10, 21, 23
    5    1 H      26-47

      * Solvation model:               ALPB
        Solvent                        DMSO
        Solvent mass                       7.8130E+01 g/mol
          :  Hamiltonian                  GFN1-xTB          :
 * total energy  :   -79.4229933 Eh     change       -0.9293899E-11 Eh
 * total energy  :   -79.4390191 Eh     change       -0.1602580E-01 Eh
 * total energy  :   -79.4438165 Eh     change       -0.4797411E-02 Eh
 * total energy  :   -79.4446438 Eh     change       -0.8273290E-03 Eh
 * total energy  :   -79.4451238 Eh     change       -0.4799249E-03 Eh
 * total energy  :   -79.4453959 Eh     change       -0.2720875E-03 Eh
 * total energy  :   -79.4455979 Eh     change       -0.2020892E-03 Eh
 * total energy  :   -79.4457436 Eh     change       -0.1456155E-03 Eh
 * total energy  :   -79.4458432 Eh     change       -0.9963243E-04 Eh
 * total energy  :   -79.4459099 Eh     change       -0.6673511E-04 Eh
 * total energy  :   -79.4507234 Eh     change       -0.1295644E-04 Eh
 * total energy  :   -79.4507322 Eh     change       -0.8720615E-05 Eh
 * total energy  :   -79.4507380 Eh     change       -0.5891238E-05 Eh
 * total energy  :   -79.4507489 Eh     change       -0.1086805E-04 Eh
 * total energy  :   -79.4507567 Eh     change       -0.7794078E-05 Eh
 * total energy  :   -79.4507634 Eh     change       -0.6717249E-05 Eh
 * total energy  :   -79.4507700 Eh     change       -0.6622560E-05 Eh
 * total energy  :   -79.4507758 Eh     change       -0.5764635E-05 Eh
 * total energy  :   -79.4507800 Eh     change       -0.4211987E-05 Eh
   *** GEOMETRY OPTIMIZATION CONVERGED AFTER 76 ITERATIONS ***

 final structure:
================
47
 xtb: 6.5.1 (579679a)
C            7.91373278794498       -0.65342972993940        1.24780017185838
F            6.95947581535688       -0.72286675549161        0.17135633859351
C            5.70894698047984        0.02791039235565        0.00361747341274
C            5.81584692556061        1.35797099620484       -0.31193036248180
C            4.61698968607916        2.02751455871696       -0.52403175046413
C            3.39561493140557        1.35949088690975       -0.41934270885143
C            2.12288306050589        2.12995833469541       -0.67754728137723
N            0.99188196060294        1.24983860573395       -0.88161798875216
C           -0.06313295163940        1.24875666484244       -0.03386256620233
O           -0.17570161997409        2.04281780781915        0.88669321032890
C           -1.09226698845795        0.19691287874617       -0.32767129183418
N           -2.36955554986804        0.50762144341053        0.03296038806757
C           -3.34630032265903       -0.32946572336138       -0.14012987078252
C           -4.72118624940793        0.15476439506129        0.30457728232668
C           -5.00048007571836       -0.36806696313395        1.72199288345504
C           -4.72999827056084        1.69337880121464        0.32195800554242
N           -5.75332411771211       -0.32997860550026       -0.60512615479117
N           -3.14046359695950       -1.58641249744531       -0.65082533205649
C           -4.20881796836476       -2.57419623644986       -0.83123045476679
C           -1.88339530555452       -1.99518770936811       -1.05770982633450
O           -1.66387735892130       -3.10519471082643       -1.53952168678558
C           -0.82544346133340       -1.02422401051370       -0.86983211682723
O            0.41042061164044       -1.42985665700026       -1.24469400340268
C            3.37050664636367        0.00630979234201       -0.08572038267174
C            4.55140358264804       -0.69316189481843        0.13707936079173
H            8.27899211265796        0.36900974876419        1.26398678423934
H            7.37296148845161       -0.92988445470875        2.14789989213709
H            8.67245051798348       -1.37574331066072        0.96124011488966
H            6.77178870884416        1.85406533540649       -0.39931138818545
H            4.64278930828915        3.07979854729606       -0.78024653577451
H            2.25610107288873        2.76942561042003       -1.55601412156153
H            1.89849135823055        2.77186746200892        0.18301298410122
H            1.05969273350137        0.57820305709161       -1.62632724570399
H           -5.02682122769014       -1.45598660303168        1.74219970803528
H           -5.96297133540788        0.00877750348864        2.06490489090868
H           -4.22364631178244       -0.02328741879080        2.40365036942991
H           -4.47724676491402        2.07933207331897       -0.66431715832530
H           -4.00607800989340        2.07163635704077        1.04252690658926
H           -5.72337219512064        2.04453339994873        0.59546189767114
H           -6.66263937376123       -0.12204786471222       -0.21579887876768
H           -5.67909603899549        0.15756413480135       -1.48845973725871
H           -3.74896575062100       -3.56000940164853       -0.89877824548338
H           -4.89458055236363       -2.54499599466580        0.00904571091005
H           -4.75370402574388       -2.35956181751518       -1.74930689352818
H            0.33744310806511       -2.33915168409837       -1.59360935628619
H            2.42640948323658       -0.52057330123152       -0.00981757406377
H            4.55824354272613       -1.74417444272671        0.38793354006988

          :  Hamiltonian                  GFN1-xTB          :
         :: total energy             -79.450780026012 Eh    ::
         :: gradient norm              0.000462183584 Eh/a0 ::
         :: HOMO-LUMO gap              2.663284946488 eV    ::
         :: SCC energy               -80.350702417145 Eh    ::
         :: -> Gsolv                  -0.113844278660 Eh    ::
         :: repulsion energy           0.929126377948 Eh    ::

    * Orbital Energies and Occupations

         #    Occupation            Energy/Eh            Energy/eV
      -------------------------------------------------------------
         1        2.0000           -1.0101291             -27.4870
       ...           ...                  ...                  ...
        55        2.0000           -0.5109251             -13.9030
        56        2.0000           -0.5029556             -13.6861
        57        2.0000           -0.4953198             -13.4783
        58        2.0000           -0.4924594             -13.4005
        59        2.0000           -0.4873717             -13.2621
        60        2.0000           -0.4846354             -13.1876
        61        2.0000           -0.4729157             -12.8687
        62        2.0000           -0.4680836             -12.7372
        63        2.0000           -0.4533075             -12.3351
        64        2.0000           -0.4491496             -12.2220
        65        2.0000           -0.4381751             -11.9234
        66        2.0000           -0.4241159             -11.5408
        67        2.0000           -0.4144534             -11.2779 (HOMO)
        68                         -0.3165795              -8.6146 (LUMO)
        69                         -0.3145910              -8.5605
        70                         -0.3125814              -8.5058
        71                         -0.2772795              -7.5452
        72                         -0.2620861              -7.1317
        73                         -0.2358312              -6.4173
        74                         -0.1929622              -5.2508
        75                         -0.1841050              -5.0098
        76                         -0.1576718              -4.2905
        77                         -0.1463468              -3.9823
        78                         -0.1419959              -3.8639
       ...                                ...                  ...
       144                          0.7112922              19.3552
      -------------------------------------------------------------
                  HL-Gap            0.0978739 Eh            2.6633 eV

Wiberg/Mayer (AO) data.
largest (>0.10) Wiberg bond orders for each atom

     #   Z sym  total        # sym  WBO       # sym  WBO       # sym  WBO
 ---------------------------------------------------------------------------
     1   6 C    3.675 --    26 H    0.980    27 H    0.979    28 H    0.973
                             2 F    0.715
     2   9 F    1.438 --     1 C    0.715     3 C    0.635
     3   6 C    3.689 --    25 C    1.435     4 C    1.429     2 F    0.635
     4   6 C    3.984 --     5 C    1.430     3 C    1.429    29 H    0.961
                            24 C    0.109
     5   6 C    3.988 --     4 C    1.430     6 C    1.409    30 H    0.966
                            25 C    0.110
     6   6 C    3.984 --    24 C    1.417     5 C    1.409     7 C    1.005
     7   6 C    3.952 --     6 C    1.005    31 H    0.963     8 N    0.960
                            32 H    0.949
     8   7 N    3.336 --     9 C    1.242     7 C    0.960    33 H    0.893
                            10 O    0.168
     9   6 C    3.901 --    10 O    1.597     8 N    1.242    11 C    0.982
    10   8 O    1.891 --     9 C    1.597     8 N    0.168
    11   6 C    3.967 --    22 C    1.512    12 N    1.205     9 C    0.982
    12   7 N    3.028 --    13 C    1.554    11 C    1.205
    13   6 C    3.922 --    12 N    1.554    18 N    1.179    14 C    0.977
    14   6 C    3.966 --    16 C    0.988    17 N    0.985    15 C    0.981
                            13 C    0.977
    15   6 C    3.993 --    36 H    0.985    35 H    0.983    14 C    0.981
                            34 H    0.980
    16   6 C    3.994 --    14 C    0.988    39 H    0.986    37 H    0.985
                            38 H    0.983
    17   7 N    2.977 --    14 C    0.985    41 H    0.941    40 H    0.938
    18   7 N    3.517 --    13 C    1.179    20 C    1.134    19 C    0.926
                            21 O    0.132
    19   6 C    3.920 --    43 H    0.978    42 H    0.976    44 H    0.975
                            18 N    0.926
    20   6 C    3.918 --    21 O    1.538    18 N    1.134    22 C    1.095
    21   8 O    1.887 --    20 C    1.538    18 N    0.132
    22   6 C    3.916 --    11 C    1.512    20 C    1.095    23 O    1.061
    23   8 O    2.056 --    22 C    1.061    45 H    0.802
    24   6 C    3.986 --    25 C    1.420     6 C    1.417    46 H    0.961
                             4 C    0.109
    25   6 C    3.983 --     3 C    1.435    24 C    1.420    47 H    0.961
                             5 C    0.110
    26   1 H    0.993 --     1 C    0.980
    27   1 H    0.992 --     1 C    0.979
    28   1 H    0.991 --     1 C    0.973
    29   1 H    0.989 --     4 C    0.961
    30   1 H    0.993 --     5 C    0.966
    31   1 H    1.001 --     7 C    0.963
    32   1 H    1.009 --     7 C    0.949
    33   1 H    0.941 --     8 N    0.893
    34   1 H    1.005 --    15 C    0.980
    35   1 H    0.999 --    15 C    0.983
    36   1 H    1.003 --    15 C    0.985
    37   1 H    1.007 --    16 C    0.985
    38   1 H    1.014 --    16 C    0.983
    39   1 H    1.003 --    16 C    0.986
    40   1 H    0.953 --    17 N    0.938
    41   1 H    0.957 --    17 N    0.941
    42   1 H    1.009 --    19 C    0.976
    43   1 H    1.022 --    19 C    0.978
    44   1 H    1.017 --    19 C    0.975
    45   1 H    0.846 --    23 O    0.802
    46   1 H    1.009 --    24 C    0.961
    47   1 H    0.990 --    25 C    0.961
 ---------------------------------------------------------------------------

           -------------------------------------------------
          | TOTAL ENERGY              -79.450780026012 Eh   |
          | GRADIENT NORM               0.000462183584 Eh/α |
          | HOMO-LUMO GAP               2.663284946488 eV   |
           -------------------------------------------------

 * finished run on 2023/06/20 at 15:39:08.493
