   * xtb version 6.5.1 (579679a) compiled by 'ehlert@majestix' on 2022-07-11
          program call               : /lustre/hpc/kemi/ree/PhD/git/ReactivityQM/dep/xtb-6.5.1/bin/xtb --gfn 1 /lustre/hpc/kemi/ree/PhD/git/ReactivityQM/calculations/R03/reac01prodN01/conf10/R03_reac01prodN01_conf10_gfn1.xyz --opt --vfukui --chrg 1 --uhf 0 --alpb DMSO

   ID    Z sym.   atoms
    1    6 C      1, 3-7, 9, 10
    2    7 N      2
    3    9 F      8
    4    1 H      11-21

      * Solvation model:               ALPB
        Solvent                        DMSO
        Solvent mass                       7.8130E+01 g/mol
          :  Hamiltonian                  GFN1-xTB          :
 * total energy  :   -30.8261322 Eh     change       -0.2327027E-11 Eh
 * total energy  :   -30.8299100 Eh     change       -0.3777718E-02 Eh
 * total energy  :   -30.8304967 Eh     change       -0.5867231E-03 Eh
 * total energy  :   -30.8305571 Eh     change       -0.6043508E-04 Eh
 * total energy  :   -30.8305818 Eh     change       -0.2464709E-04 Eh
 * total energy  :   -30.8305920 Eh     change       -0.1019448E-04 Eh
 * total energy  :   -30.8306009 Eh     change       -0.8989933E-05 Eh
 * total energy  :   -30.8306059 Eh     change       -0.4916389E-05 Eh
   *** GEOMETRY OPTIMIZATION CONVERGED AFTER 8 ITERATIONS ***

 final structure:
================
21
 xtb: 6.5.1 (579679a)
C           -2.13241143000317        0.70529121735763       -1.08736743035517
N           -2.08583813000308        0.42467991073046        0.36711955430483
C           -1.22869377406860       -0.75504425162583        0.71916269277742
C            0.21520988317831       -0.46825651732080        0.40320159693757
C            0.80847634847004       -1.00188715913460       -0.73970436530700
C            2.13955421097091       -0.73698752516604       -1.02770608346393
C            2.85394258616738        0.06671367571312       -0.15642295211490
F            4.13619346240582        0.32545982832434       -0.42751029980280
C            2.29324009334897        0.61316028172951        0.98553735501501
C            0.96280071876600        0.33798183922705        1.26141603644818
H           -2.76821838981193        1.57363514254866       -1.24043712296796
H           -2.54435750965624       -0.16360899056650       -1.59446554023397
H           -1.12164237950026        0.90582121593476       -1.43415514570057
H           -3.02859279030969        0.24449236107026        0.69807490985335
H           -1.73890363702152        1.24606326590920        0.85672056768139
H           -1.61056255940390       -1.60605215632145        0.15420945564329
H           -1.37722081787711       -0.92547146905253        1.78697590875439
H            0.22919658099046       -1.62980206484104       -1.40544716841239
H            2.61340274836660       -1.14474476001434       -1.91128183012578
H            2.88384078565507        1.23853660236782        1.64235503197220
H            0.50058399933548        0.75001855313052        2.14972382909736

          :  Hamiltonian                  GFN1-xTB          :
         :: total energy             -30.830605864580 Eh    ::
         :: gradient norm              0.000359682039 Eh/a0 ::
         :: HOMO-LUMO gap              4.525106266230 eV    ::
         :: SCC energy               -31.241734443721 Eh    ::
         :: -> Gsolv                  -0.102412848063 Eh    ::
         :: repulsion energy           0.421379399131 Eh    ::

    * Orbital Energies and Occupations

         #    Occupation            Energy/Eh            Energy/eV
      -------------------------------------------------------------
         1        2.0000           -0.8853306             -24.0911
       ...           ...                  ...                  ...
        15        2.0000           -0.5961513             -16.2221
        16        2.0000           -0.5819906             -15.8368
        17        2.0000           -0.5655051             -15.3882
        18        2.0000           -0.5643070             -15.3556
        19        2.0000           -0.5611484             -15.2696
        20        2.0000           -0.5587767             -15.2051
        21        2.0000           -0.5543434             -15.0845
        22        2.0000           -0.5350745             -14.5601
        23        2.0000           -0.5315448             -14.4641
        24        2.0000           -0.5182067             -14.1011
        25        2.0000           -0.4925400             -13.4027
        26        2.0000           -0.4715226             -12.8308
        27        2.0000           -0.4599109             -12.5148 (HOMO)
        28                         -0.2936163              -7.9897 (LUMO)
        29                         -0.2919458              -7.9442
        30                         -0.1830645              -4.9814
        31                         -0.1729835              -4.7071
        32                         -0.1689497              -4.5974
        33                         -0.1609496              -4.3797
        34                         -0.1379397              -3.7535
        35                         -0.1220674              -3.3216
        36                         -0.1119876              -3.0473
        37                         -0.1061866              -2.8895
        38                         -0.0988522              -2.6899
       ...                                ...                  ...
        62                          0.6264705              17.0471
      -------------------------------------------------------------
                  HL-Gap            0.1662946 Eh            4.5251 eV

Wiberg/Mayer (AO) data.
largest (>0.10) Wiberg bond orders for each atom

     #   Z sym  total        # sym  WBO       # sym  WBO       # sym  WBO
 ---------------------------------------------------------------------------
     1   6 C    3.897 --    12 H    0.984    13 H    0.983    11 H    0.981
                             2 N    0.922
     2   7 N    3.605 --     1 C    0.922     3 C    0.894    15 H    0.893
                            14 H    0.888
     3   6 C    3.902 --     4 C    1.008    16 H    0.975    17 H    0.969
                             2 N    0.894
     4   6 C    3.984 --     5 C    1.414    10 C    1.411     3 C    1.008
     5   6 C    3.993 --     6 C    1.444     4 C    1.414    18 H    0.969
                             9 C    0.108
     6   6 C    3.991 --     5 C    1.444     7 C    1.398    19 H    0.967
                            10 C    0.109
     7   6 C    3.866 --     6 C    1.398     9 C    1.394     8 F    0.941
     8   9 F    1.074 --     7 C    0.941
     9   6 C    3.991 --    10 C    1.450     7 C    1.394    20 H    0.967
                             5 C    0.108
    10   6 C    3.993 --     9 C    1.450     4 C    1.411    21 H    0.969
                             6 C    0.109
    11   1 H    0.989 --     1 C    0.981
    12   1 H    0.991 --     1 C    0.984
    13   1 H    0.999 --     1 C    0.983
    14   1 H    0.909 --     2 N    0.888
    15   1 H    0.921 --     2 N    0.893
    16   1 H    0.994 --     3 C    0.975
    17   1 H    0.993 --     3 C    0.969
    18   1 H    0.997 --     5 C    0.969
    19   1 H    0.995 --     6 C    0.967
    20   1 H    0.995 --     9 C    0.967
    21   1 H    0.995 --    10 C    0.969
 ---------------------------------------------------------------------------

           -------------------------------------------------
          | TOTAL ENERGY              -30.830605864580 Eh   |
          | GRADIENT NORM               0.000359682039 Eh/α |
          | HOMO-LUMO GAP               4.525106266230 eV   |
           -------------------------------------------------

 * finished run on 2023/06/20 at 15:13:50.894
