   * xtb version 6.5.1 (579679a) compiled by 'ehlert@majestix' on 2022-07-11
          program call               : /lustre/hpc/kemi/ree/PhD/git/ReactivityQM/dep/xtb-6.5.1/bin/xtb --gfn 1 /lustre/hpc/kemi/ree/PhD/git/ReactivityQM/calculations/RaltegravirCLI/reac02prodN07/conf18/RaltegravirCLI_reac02prodN07_conf18_gfn1.xyz --opt --vfukui --chrg 1 --uhf 0 --alpb DMSO

   ID    Z sym.   atoms
    1    6 C      1, 3-6, 9-11, 14-18, 20-22, 24
    2    7 N      2, 7, 8, 13
    3    8 O      12, 23, 25
    4    9 F      19
    5    1 H      26-47

      * Solvation model:               ALPB
        Solvent                        DMSO
        Solvent mass                       7.8130E+01 g/mol
          :  Hamiltonian                  GFN1-xTB          :
 * total energy  :   -79.3780928 Eh     change       -0.5125571E-09 Eh
 * total energy  :   -79.3878537 Eh     change       -0.9760866E-02 Eh
 * total energy  :   -79.3913706 Eh     change       -0.3516916E-02 Eh
 * total energy  :   -79.3919849 Eh     change       -0.6143156E-03 Eh
 * total energy  :   -79.3925295 Eh     change       -0.5446162E-03 Eh
 * total energy  :   -79.3931354 Eh     change       -0.6059384E-03 Eh
 * total energy  :   -79.3939073 Eh     change       -0.7718225E-03 Eh
 * total energy  :   -79.3953212 Eh     change       -0.1413937E-02 Eh
 * total energy  :   -79.3976595 Eh     change       -0.2338318E-02 Eh
 * total energy  :   -79.4019208 Eh     change       -0.4261312E-02 Eh
 * total energy  :   -79.5179802 Eh     change       -0.1330184E-04 Eh
 * total energy  :   -79.5180031 Eh     change       -0.2299060E-04 Eh
 * total energy  :   -79.5180154 Eh     change       -0.1226326E-04 Eh
 * total energy  :   -79.5180250 Eh     change       -0.9630872E-05 Eh
 * total energy  :   -79.5180446 Eh     change       -0.1952258E-04 Eh
 * total energy  :   -79.5180515 Eh     change       -0.6960834E-05 Eh
 * total energy  :   -79.5180606 Eh     change       -0.9083561E-05 Eh
 * total energy  :   -79.5180669 Eh     change       -0.6310204E-05 Eh
 * total energy  :   -79.5180717 Eh     change       -0.4822928E-05 Eh
   *** GEOMETRY OPTIMIZATION CONVERGED AFTER 129 ITERATIONS ***

 final structure:
================
47
 xtb: 6.5.1 (579679a)
C           -2.89687777208424        0.82333188638291        2.38156024251598
N           -1.83840275479359        0.14117702122512        1.62379950074084
C           -1.65998584078542        0.25956133596918        0.27826469176443
C           -2.53192304580280        1.13911398740065       -0.60767520858315
C           -2.21744240543513        0.84753364888555       -2.08407651226498
C           -2.22363058698244        2.61242708392277       -0.30333598980113
N           -3.94237988499102        0.87434101734668       -0.34512846237254
N           -0.67279166458979       -0.35096017271811       -0.32907128561928
C            0.16549823112465       -1.11452818239975        0.38410782453612
C            0.62080756531512       -3.01254032016005       -1.01948412587792
C            0.79609482873578       -4.22979056791299       -0.20429919850943
O            0.09558182578304       -2.86849579203437       -2.06672253684115
N            1.24556159464072       -1.77977244722291       -0.35606938303225
C            1.87383519477939       -0.88316605259589       -1.38519495339095
C            2.56175729291963        0.26064585906544       -0.69180073830137
C            1.96312699257222        1.51734430269090       -0.64132694404200
C            2.59773950431365        2.57126336923984       -0.00121750634888
C            3.82917409851878        2.33823845176943        0.58643710217084
F            4.44537750105122        3.34985424216492        1.20504468975913
C            4.44675991413961        1.09959601201239        0.56068883636742
C            3.80125802866775        0.05680457839807       -0.08652832845252
C            0.05737344106850       -1.30937688773926        1.71903751445838
O            0.91748353489590       -2.10657152390693        2.38383434664894
C           -0.99959183612264       -0.62660004284732        2.43286127068678
O           -1.15453309463911       -0.70736345291789        3.64160173562424
H           -2.46696200544863        1.69060035558801        2.88263056438092
H           -3.27613839401209        0.12811513764959        3.13065594907465
H           -3.69816804804203        1.12162767701237        1.71230231317760
H           -1.18765550042363        1.11492903317989       -2.31596805040592
H           -2.88601066848939        1.43145129190997       -2.71434550068971
H           -2.36132585071137       -0.21038186578177       -2.29765687021993
H           -1.16309734402005        2.80670954797486       -0.45656176322251
H           -2.79812156421005        3.24782815767275       -0.97533628903208
H           -2.48346715358297        2.86404223620905        0.72253988471547
H           -4.17466941033206       -0.05820938565020       -0.65892779374885
H           -4.50173691810209        1.53051144767750       -0.87336193212172
H            0.11140393315733       -5.00367278294971       -0.54709523521152
H            1.82212974196561       -4.57765868403786       -0.33684143834350
H            0.65213349706133       -4.02088621712749        0.85383261759901
H            1.94502165295400       -2.08484004388277        0.32478091848651
H            1.06669886996945       -0.54906997282070       -2.03875958400805
H            2.57690034084120       -1.50343240550888       -1.94271188959832
H            0.99526987021828        1.67014418780532       -1.10337958777346
H            2.14616639145298        3.55366783939072        0.04440319468019
H            5.40826534951657        0.95413234605699        1.03494595010181
H            4.26355742581931       -0.92164617525661       -0.12350226044007
H            0.72993312211348       -2.08603207912523        3.33959222074850

          :  Hamiltonian                  GFN1-xTB          :
         :: total energy             -79.518071735396 Eh    ::
         :: gradient norm              0.000565104988 Eh/a0 ::
         :: HOMO-LUMO gap              2.148927380351 eV    ::
         :: SCC energy               -80.420922059212 Eh    ::
         :: -> Gsolv                  -0.104288336586 Eh    ::
         :: repulsion energy           0.936963033939 Eh    ::

    * Orbital Energies and Occupations

         #    Occupation            Energy/Eh            Energy/eV
      -------------------------------------------------------------
         1        2.0000           -0.8942038             -24.3325
       ...           ...                  ...                  ...
        55        2.0000           -0.5241352             -14.2624
        56        2.0000           -0.5168348             -14.0638
        57        2.0000           -0.5126466             -13.9498
        58        2.0000           -0.5095977             -13.8669
        59        2.0000           -0.5012743             -13.6404
        60        2.0000           -0.4924890             -13.4013
        61        2.0000           -0.4890480             -13.3077
        62        2.0000           -0.4802923             -13.0694
        63        2.0000           -0.4774118             -12.9910
        64        2.0000           -0.4711035             -12.8194
        65        2.0000           -0.4593984             -12.5009
        66        2.0000           -0.4483245             -12.1995
        67        2.0000           -0.4250076             -11.5650 (HOMO)
        68                         -0.3460360              -9.4161 (LUMO)
        69                         -0.3218672              -8.7585
        70                         -0.2995716              -8.1518
        71                         -0.2929521              -7.9716
        72                         -0.2910265              -7.9192
        73                         -0.1968690              -5.3571
        74                         -0.1737333              -4.7275
        75                         -0.1682759              -4.5790
        76                         -0.1540340              -4.1915
        77                         -0.1471795              -4.0050
        78                         -0.1456580              -3.9636
       ...                                ...                  ...
       144                          0.7330298              19.9468
      -------------------------------------------------------------
                  HL-Gap            0.0789716 Eh            2.1489 eV

Wiberg/Mayer (AO) data.
largest (>0.10) Wiberg bond orders for each atom

     #   Z sym  total        # sym  WBO       # sym  WBO       # sym  WBO
 ---------------------------------------------------------------------------
     1   6 C    3.905 --    27 H    0.975    26 H    0.974    28 H    0.966
                             2 N    0.918
     2   7 N    3.527 --     3 C    1.227    24 C    1.104     1 C    0.918
                            25 O    0.131
     3   6 C    3.911 --     8 N    1.483     2 N    1.227     4 C    0.977
     4   6 C    3.963 --     5 C    0.990     7 N    0.984     6 C    0.979
                             3 C    0.977
     5   6 C    3.993 --     4 C    0.990    30 H    0.984    31 H    0.984
                            29 H    0.982
     6   6 C    3.992 --    32 H    0.984    34 H    0.982    33 H    0.981
                             4 C    0.979
     7   7 N    2.995 --     4 C    0.984    35 H    0.938    36 H    0.935
     8   7 N    3.036 --     3 C    1.483     9 C    1.252
     9   6 C    3.901 --    22 C    1.512     8 N    1.252    13 N    0.887
    10   6 C    3.816 --    12 O    1.870    11 C    1.038    13 N    0.813
    11   6 C    3.976 --    10 C    1.038    37 H    0.965    39 H    0.955
                            38 H    0.929
    12   8 O    2.089 --    10 C    1.870
    13   7 N    3.609 --     9 C    0.887    40 H    0.882    14 C    0.867
                            10 C    0.813
    14   6 C    3.885 --    15 C    1.006    42 H    0.971    41 H    0.969
                            13 N    0.867
    15   6 C    3.984 --    16 C    1.416    21 C    1.412    14 C    1.006
    16   6 C    3.993 --    17 C    1.446    15 C    1.416    43 H    0.967
                            20 C    0.109
    17   6 C    3.991 --    16 C    1.446    18 C    1.397    44 H    0.967
                            21 C    0.109
    18   6 C    3.865 --    17 C    1.397    20 C    1.395    19 F    0.940
    19   9 F    1.073 --    18 C    0.940
    20   6 C    3.991 --    21 C    1.449    18 C    1.395    45 H    0.967
                            16 C    0.109
    21   6 C    3.993 --    20 C    1.449    15 C    1.412    46 H    0.969
                            17 C    0.109
    22   6 C    3.923 --     9 C    1.512    24 C    1.090    23 O    1.070
    23   8 O    2.055 --    22 C    1.070    47 H    0.795
    24   6 C    3.922 --    25 O    1.576     2 N    1.104    22 C    1.090
    25   8 O    1.911 --    24 C    1.576     2 N    0.131
    26   1 H    1.001 --     1 C    0.974
    27   1 H    1.004 --     1 C    0.975
    28   1 H    1.026 --     1 C    0.966
    29   1 H    1.010 --     5 C    0.982
    30   1 H    1.002 --     5 C    0.984
    31   1 H    1.007 --     5 C    0.984
    32   1 H    1.003 --     6 C    0.984
    33   1 H    0.998 --     6 C    0.981
    34   1 H    1.002 --     6 C    0.982
    35   1 H    0.952 --     7 N    0.938
    36   1 H    0.949 --     7 N    0.935
    37   1 H    0.988 --    11 C    0.965
    38   1 H    0.985 --    11 C    0.929
    39   1 H    0.997 --    11 C    0.955
    40   1 H    0.938 --    13 N    0.882
    41   1 H    1.010 --    14 C    0.969
    42   1 H    0.995 --    14 C    0.971
    43   1 H    1.007 --    16 C    0.967
    44   1 H    0.996 --    17 C    0.967
    45   1 H    0.995 --    20 C    0.967
    46   1 H    0.995 --    21 C    0.969
    47   1 H    0.825 --    23 O    0.795
 ---------------------------------------------------------------------------

           -------------------------------------------------
          | TOTAL ENERGY              -79.518071735396 Eh   |
          | GRADIENT NORM               0.000565104988 Eh/α |
          | HOMO-LUMO GAP               2.148927380351 eV   |
           -------------------------------------------------

 * finished run on 2023/06/20 at 15:25:44.360
