   * xtb version 6.5.1 (579679a) compiled by 'ehlert@majestix' on 2022-07-11
          program call               : /lustre/hpc/kemi/ree/PhD/git/ReactivityQM/dep/xtb-6.5.1/bin/xtb --gfn 1 /lustre/hpc/kemi/ree/PhD/git/ReactivityQM/calculations/R02deprot/reac01prodN12/conf05/R02deprot_reac01prodN12_conf05_gfn1.xyz --opt --vfukui --chrg 0 --uhf 0 --alpb DMSO

   ID    Z sym.   atoms
    1    6 C      1, 3, 5, 7-10, 12, 13, 15, 18, 19, 22, 24
    2    8 O      2, 4, 14, 20, 23, 25
    3    7 N      6, 11, 16, 17, 21
    4    1 H      26-42

      * Solvation model:               ALPB
        Solvent                        DMSO
        Solvent mass                       7.8130E+01 g/mol
          :  Hamiltonian                  GFN1-xTB          :
 * total energy  :   -82.8417756 Eh     change       -0.4807390E-09 Eh
 * total energy  :   -82.8584311 Eh     change       -0.1665551E-01 Eh
 * total energy  :   -82.8658536 Eh     change       -0.7422465E-02 Eh
 * total energy  :   -82.8675556 Eh     change       -0.1702036E-02 Eh
 * total energy  :   -82.8686628 Eh     change       -0.1107199E-02 Eh
 * total energy  :   -82.8692880 Eh     change       -0.6251831E-03 Eh
 * total energy  :   -82.8697279 Eh     change       -0.4398853E-03 Eh
 * total energy  :   -82.8700717 Eh     change       -0.3438487E-03 Eh
 * total energy  :   -82.8703645 Eh     change       -0.2927836E-03 Eh
 * total energy  :   -82.8706079 Eh     change       -0.2434436E-03 Eh
 * total energy  :   -82.8735690 Eh     change       -0.2125395E-04 Eh
 * total energy  :   -82.8735853 Eh     change       -0.1624033E-04 Eh
 * total energy  :   -82.8735951 Eh     change       -0.9810071E-05 Eh
 * total energy  :   -82.8736043 Eh     change       -0.9239609E-05 Eh
 * total energy  :   -82.8736112 Eh     change       -0.6888394E-05 Eh
 * total energy  :   -82.8736182 Eh     change       -0.7023043E-05 Eh
 * total energy  :   -82.8736229 Eh     change       -0.4623868E-05 Eh
 * total energy  :   -82.8736276 Eh     change       -0.4682275E-05 Eh
 * total energy  :   -82.8736303 Eh     change       -0.2710462E-05 Eh
   *** GEOMETRY OPTIMIZATION CONVERGED AFTER 66 ITERATIONS ***

 final structure:
================
42
 xtb: 6.5.1 (579679a)
C           -6.52755597360333        1.86054316170115        0.06480319963273
O           -5.21144691326427        1.73211848148899       -0.49861472172981
C           -4.36619081102644        0.92855523811755        0.15557902036172
O           -4.66279453551100        0.33003510047310        1.15870142625065
C           -3.01800657198911        0.84995648151011       -0.49063994907860
N           -2.16660915154138        0.02239343814574        0.12326066818948
C           -0.91883182252303       -0.08924616796752       -0.35725170136824
C           -0.02520647352146       -1.05152789318060        0.39095147841388
C           -0.56750578632125       -2.47987117674304        0.15048513310374
C           -0.04260989381359       -0.74139570676312        1.90015244581421
N            1.30260512430621       -0.91924752560466       -0.12467921874768
C            2.42570177831182       -1.73044607974124        0.27936279170781
C            2.83686702516695       -2.49541177337393       -1.07741244020121
O            2.26949302703455       -2.54551905282295        1.24607412177285
C            3.60738224272947       -0.74746225936625        0.42199791458384
N            4.52846349912554       -0.74944945373675        1.32200090786657
N            5.34429619818443        0.31159424165508        1.02494482344422
C            4.86918576302460        0.87344505096139       -0.03791311515483
C            5.38653566657957        2.06212662368700       -0.74953291273322
O            3.75962277404242        0.24375759787376       -0.47660620718768
N           -0.42582533072128        0.53894592870696       -1.39237596913919
C           -1.21734064063731        1.39892522835871       -2.11912924235960
O           -0.81496792884850        1.98151366536924       -3.11419748750001
C           -2.61074594329381        1.56700520235573       -1.61754944817739
O           -3.36675259425846        2.38549331250740       -2.32108463429384
H           -6.46982806976241        2.40311793107985        1.01028115369118
H           -7.12168031971622        2.41548178436571       -0.65596613253528
H           -6.95509606897871        0.87070773619169        0.23452478564465
H           -1.59735313204981       -2.52218770407879        0.49917439998232
H           -0.53588445602808       -2.70830552644792       -0.91261200751127
H            0.03236534235813       -3.20344138313127        0.69771388528847
H            0.37557382101402        0.24822999510192        2.07433852433279
H           -1.07390000030643       -0.76472636258363        2.24659927094987
H            0.53952067128237       -1.48124096844132        2.44572391137192
H            1.41095280194097       -0.31557607400279       -0.93547147327289
H            3.74579722183935       -3.04618885728318       -0.85651004240979
H            2.99398039505458       -1.78019312201744       -1.87648378447731
H            2.02381994100183       -3.17447071478994       -1.31067190561354
H            6.33137935310275        2.36928583839767       -0.30807497018726
H            4.66973141840687        2.88024832047096       -0.67790998077075
H            5.52983258479687        1.83184271745120       -1.80435106809910
H           -4.28697623159836        2.44058372610076       -2.00250144983724

          :  Hamiltonian                  GFN1-xTB          :
         :: total energy             -82.873630266367 Eh    ::
         :: gradient norm              0.000983519112 Eh/a0 ::
         :: HOMO-LUMO gap              0.087278003772 eV    ::
         :: SCC energy               -83.632314214062 Eh    ::
         :: -> Gsolv                  -0.059970417320 Eh    ::
         :: repulsion energy           0.784744085724 Eh    ::

    * Orbital Energies and Occupations

         #    Occupation            Energy/Eh            Energy/eV
      -------------------------------------------------------------
         1        2.0000           -0.8699326             -23.6721
       ...           ...                  ...                  ...
        55        2.0000           -0.5061645             -13.7734
        56        2.0000           -0.5031590             -13.6917
        57        2.0000           -0.4943945             -13.4532
        58        2.0000           -0.4857479             -13.2179
        59        2.0000           -0.4825755             -13.1315
        60        2.0000           -0.4768462             -12.9756
        61        2.0000           -0.4638025             -12.6207
        62        2.0000           -0.4615489             -12.5594
        63        2.0000           -0.4596744             -12.5084
        64        2.0000           -0.4515718             -12.2879
        65        2.0000           -0.4480625             -12.1924
        66        1.9994           -0.4277487             -11.6396
        67        1.6882           -0.4216386             -11.4734 (HOMO)
        68        0.3124           -0.4184312             -11.3861 (LUMO)
        69                         -0.3205294              -8.7220
        70                         -0.2837240              -7.7205
        71                         -0.2748452              -7.4789
        72                         -0.2564126              -6.9773
        73                         -0.2358682              -6.4183
        74                         -0.1621202              -4.4115
        75                         -0.1447856              -3.9398
        76                         -0.1386487              -3.7728
        77                         -0.1380338              -3.7561
        78                         -0.1256217              -3.4183
       ...                                ...                  ...
       134                          0.7305702              19.8798
      -------------------------------------------------------------
                  HL-Gap            0.0032074 Eh            0.0873 eV

Wiberg/Mayer (AO) data.
largest (>0.10) Wiberg bond orders for each atom

     #   Z sym  total        # sym  WBO       # sym  WBO       # sym  WBO
 ---------------------------------------------------------------------------
     1   6 C    3.855 --    27 H    0.986    28 H    0.979    26 H    0.979
                             2 O    0.879
     2   8 O    2.208 --     3 C    1.097     1 C    0.879     4 O    0.134
     3   6 C    3.843 --     4 O    1.683     2 O    1.097     5 C    0.986
     4   8 O    1.940 --     3 C    1.683     2 O    0.134
     5   6 C    3.920 --     6 N    1.357    24 C    1.333     3 C    0.986
     6   7 N    2.885 --     5 C    1.357     7 C    1.287
     7   6 C    3.923 --    21 N    1.490     6 N    1.287     8 C    0.986
     8   6 C    3.925 --     7 C    0.986    11 N    0.983    10 C    0.946
                             9 C    0.923
     9   6 C    3.957 --    30 H    0.985    29 H    0.982    31 H    0.979
                             8 C    0.923
    10   6 C    3.965 --    32 H    0.985    33 H    0.981    34 H    0.978
                             8 C    0.946
    11   7 N    3.291 --     8 C    0.983    12 C    0.960    35 H    0.874
                            14 O    0.197
    12   6 C    3.892 --    14 O    1.283    11 N    0.960    15 C    0.849
                            13 C    0.731
    13   6 C    3.799 --    37 H    0.986    38 H    0.980    36 H    0.980
                            12 C    0.731
    14   8 O    1.667 --    12 C    1.283    11 N    0.197
    15   6 C    3.802 --    16 N    1.659    20 O    1.059    12 C    0.849
    16   7 N    2.979 --    15 C    1.659    17 N    1.157
    17   7 N    2.982 --    18 C    1.636    16 N    1.157
    18   6 C    3.859 --    17 N    1.636    20 O    1.051    19 C    1.031
    19   6 C    3.985 --    18 C    1.031    39 H    0.981    41 H    0.966
                            40 H    0.961
    20   8 O    2.307 --    15 C    1.059    18 C    1.051
    21   7 N    2.994 --     7 C    1.490    22 C    1.146
    22   6 C    3.875 --    23 O    1.614    21 N    1.146    24 C    1.006
    23   8 O    1.810 --    22 C    1.614
    24   6 C    3.721 --     5 C    1.333    25 O    1.181    22 C    1.006
    25   8 O    2.080 --    24 C    1.181    42 H    0.785
    26   1 H    1.004 --     1 C    0.979
    27   1 H    1.008 --     1 C    0.986
    28   1 H    1.006 --     1 C    0.979
    29   1 H    1.004 --     9 C    0.982
    30   1 H    1.000 --     9 C    0.985
    31   1 H    1.010 --     9 C    0.979
    32   1 H    1.000 --    10 C    0.985
    33   1 H    1.008 --    10 C    0.981
    34   1 H    1.010 --    10 C    0.978
    35   1 H    0.958 --    11 N    0.874
    36   1 H    0.999 --    13 C    0.980
    37   1 H    0.998 --    13 C    0.986
    38   1 H    0.996 --    13 C    0.980
    39   1 H    0.998 --    19 C    0.981
    40   1 H    0.997 --    19 C    0.961
    41   1 H    0.997 --    19 C    0.966
    42   1 H    0.842 --    25 O    0.785
 ---------------------------------------------------------------------------

           -------------------------------------------------
          | TOTAL ENERGY              -82.873630266367 Eh   |
          | GRADIENT NORM               0.000983519112 Eh/α |
          | HOMO-LUMO GAP               0.087278003772 eV   |
           -------------------------------------------------

 * finished run on 2023/06/20 at 18:21:09.404
