                         Program Version 5.0.1 -  RELEASE  -
|  1> # ORCA input file
|  2> ! SP r2SCAN-3c CPCM
|  3>
|  4> %maxcore 1875.0
|  5> %pal nprocs 4 end
|  6> %cpcm smd true SMDsolvent "DMSO" end
|  7>
|  8> *xyz 1 1
|  9> C      -5.685800    2.362214   -1.992388
| 10> O      -4.599361    1.601258   -1.450866
| 11> C      -4.693842    1.259763   -0.174623
| 12> O      -5.639651    1.565417    0.530386
| 13> C      -3.545276    0.470320    0.326551
| 14> N      -2.534600    0.191912   -0.548964
| 15> C      -1.508085   -0.496892   -0.170985
| 16> C      -0.467231   -0.750087   -1.252745
| 17> C      -0.624166   -2.159582   -1.831648
| 18> C      -0.634415    0.286703   -2.372793
| 19> N       0.894387   -0.612635   -0.715576
| 20> C       1.266703    0.470037   -0.018878
| 21> O       0.547096    1.376509    0.344185
| 22> C       2.727372    0.451636    0.334624
| 23> N       3.392150    1.356476    0.984276
| 24> N       4.649330    0.879709    1.054051
| 25> C       5.676838    1.643206    1.734082
| 26> C       4.722312   -0.292277    0.460057
| 27> C       5.881383   -1.181137    0.284127
| 28> O       3.522257   -0.583530   -0.003514
| 29> N      -1.400844   -1.002088    1.097676
| 30> C      -0.288679   -1.826753    1.565399
| 31> C      -2.343920   -0.728999    2.091345
| 32> O      -2.185587   -1.141839    3.229801
| 33> C      -3.490043    0.052879    1.632338
| 34> O      -4.428231    0.308967    2.545046
| 35> H      -6.608561    1.779918   -1.942608
| 36> H      -5.427438    2.577902   -3.026832
| 37> H      -5.810702    3.289049   -1.427991
| 38> H      -1.631292   -2.272931   -2.230650
| 39> H      -0.458204   -2.924460   -1.076913
| 40> H       0.092347   -2.304298   -2.637821
| 41> H      -0.584620    1.294472   -1.963535
| 42> H       0.159007    0.155409   -3.105013
| 43> H      -1.599335    0.149361   -2.857325
| 44> H       1.592537   -1.260424   -1.034641
| 45> H       5.712647    1.332723    2.777974
| 46> H       5.416505    2.696896    1.664228
| 47> H       6.631514    1.448509    1.253329
| 48> H       5.536963   -2.168324   -0.017329
| 49> H       6.535876   -0.781423   -0.493571
| 50> H       6.453751   -1.245587    1.208810
| 51> H       0.428322   -1.201804    2.097569
| 52> H      -0.687290   -2.575079    2.250982
| 53> H       0.200871   -2.319275    0.736201
| 54> H      -5.162998    0.828182    2.144168
| 55> **                         ****END OF INPUT****

CARTESIAN COORDINATES (ANGSTROEM)
---------------------------------
  C     -5.685800    2.362214   -1.992388
  O     -4.599361    1.601258   -1.450866
  C     -4.693842    1.259763   -0.174623
  O     -5.639651    1.565417    0.530386
  C     -3.545276    0.470320    0.326551
  N     -2.534600    0.191912   -0.548964
  C     -1.508085   -0.496892   -0.170985
  C     -0.467231   -0.750087   -1.252745
  C     -0.624166   -2.159582   -1.831648
  C     -0.634415    0.286703   -2.372793
  N      0.894387   -0.612635   -0.715576
  C      1.266703    0.470037   -0.018878
  O      0.547096    1.376509    0.344185
  C      2.727372    0.451636    0.334624
  N      3.392150    1.356476    0.984276
  N      4.649330    0.879709    1.054051
  C      5.676838    1.643206    1.734082
  C      4.722312   -0.292277    0.460057
  C      5.881383   -1.181137    0.284127
  O      3.522257   -0.583530   -0.003514
  N     -1.400844   -1.002088    1.097676
  C     -0.288679   -1.826753    1.565399
  C     -2.343920   -0.728999    2.091345
  O     -2.185587   -1.141839    3.229801
  C     -3.490043    0.052879    1.632338
  O     -4.428231    0.308967    2.545046
  H     -6.608561    1.779918   -1.942608
  H     -5.427438    2.577902   -3.026832
  H     -5.810702    3.289049   -1.427991
  H     -1.631292   -2.272931   -2.230650
  H     -0.458204   -2.924460   -1.076913
  H      0.092347   -2.304298   -2.637821
  H     -0.584620    1.294472   -1.963535
  H      0.159007    0.155409   -3.105013
  H     -1.599335    0.149361   -2.857325
  H      1.592537   -1.260424   -1.034641
  H      5.712647    1.332723    2.777974
  H      5.416505    2.696896    1.664228
  H      6.631514    1.448509    1.253329
  H      5.536963   -2.168324   -0.017329
  H      6.535876   -0.781423   -0.493571
  H      6.453751   -1.245587    1.208810
  H      0.428322   -1.201804    2.097569
  H     -0.687290   -2.575079    2.250982
  H      0.200871   -2.319275    0.736201
  H     -5.162998    0.828182    2.144168

 Total Charge           Charge          ....    1
 Multiplicity           Mult            ....    1
 Number of Electrons    NEL             ....  192
 Basis Dimension        Dim             ....  649

ORBITAL ENERGIES
----------------

  NO   OCC          E(Eh)            E(eV)
   0   2.0000     -19.115570      -520.1611
   1   2.0000     -19.011489      -517.3289
   2   2.0000     -18.996457      -516.9199
   3   2.0000     -18.957360      -515.8560
   4   2.0000     -18.954244      -515.7712
   5   2.0000     -18.931618      -515.1555
   6   2.0000     -14.324010      -389.7761
   7   2.0000     -14.256634      -387.9427
   8   2.0000     -14.240735      -387.5101
   9   2.0000     -14.218506      -386.9052
  10   2.0000     -14.163242      -385.4014
  11   2.0000     -10.216586      -278.0074
  12   2.0000     -10.189489      -277.2701
  13   2.0000     -10.178037      -276.9585
  14   2.0000     -10.174753      -276.8691
  15   2.0000     -10.147588      -276.1299
  16   2.0000     -10.128302      -275.6051
  17   2.0000     -10.123838      -275.4836
  18   2.0000     -10.112835      -275.1842
  19   2.0000     -10.092664      -274.6353
  20   2.0000     -10.091428      -274.6017
  21   2.0000     -10.081273      -274.3254
  22   2.0000     -10.070875      -274.0424
  23   2.0000     -10.065024      -273.8832
  24   2.0000     -10.032472      -272.9974
  25   2.0000     -10.021725      -272.7050
  26   2.0000      -1.217678       -33.1347
  27   2.0000      -1.090543       -29.6752
  28   2.0000      -1.059332       -28.8259
  29   2.0000      -1.052898       -28.6508
  30   2.0000      -1.046614       -28.4798
  31   2.0000      -1.022285       -27.8178
  32   2.0000      -0.998731       -27.1769
  33   2.0000      -0.968946       -26.3664
  34   2.0000      -0.931390       -25.3444
  35   2.0000      -0.902761       -24.5654
  36   2.0000      -0.890035       -24.2191
  37   2.0000      -0.799408       -21.7530
  38   2.0000      -0.781013       -21.2524
  39   2.0000      -0.751961       -20.4619
  40   2.0000      -0.731142       -19.8954
  41   2.0000      -0.724528       -19.7154
  42   2.0000      -0.708384       -19.2761
  43   2.0000      -0.691271       -18.8104
  44   2.0000      -0.668333       -18.1863
  45   2.0000      -0.646237       -17.5850
  46   2.0000      -0.645420       -17.5628
  47   2.0000      -0.635881       -17.3032
  48   2.0000      -0.621436       -16.9101
  49   2.0000      -0.574617       -15.6361
  50   2.0000      -0.562020       -15.2933
  51   2.0000      -0.559175       -15.2159
  52   2.0000      -0.552453       -15.0330
  53   2.0000      -0.541605       -14.7378
  54   2.0000      -0.521158       -14.1814
  55   2.0000      -0.508702       -13.8425
  56   2.0000      -0.496694       -13.5157
  57   2.0000      -0.478177       -13.0119
  58   2.0000      -0.470185       -12.7944
  59   2.0000      -0.468050       -12.7363
  60   2.0000      -0.458117       -12.4660
  61   2.0000      -0.455823       -12.4036
  62   2.0000      -0.452971       -12.3260
  63   2.0000      -0.450951       -12.2710
  64   2.0000      -0.441030       -12.0010
  65   2.0000      -0.437675       -11.9098
  66   2.0000      -0.427717       -11.6388
  67   2.0000      -0.420065       -11.4305
  68   2.0000      -0.411263       -11.1910
  69   2.0000      -0.409229       -11.1357
  70   2.0000      -0.406988       -11.0747
  71   2.0000      -0.403358       -10.9759
  72   2.0000      -0.398705       -10.8493
  73   2.0000      -0.393138       -10.6978
  74   2.0000      -0.385306       -10.4847
  75   2.0000      -0.376831       -10.2541
  76   2.0000      -0.374080       -10.1792
  77   2.0000      -0.370774       -10.0893
  78   2.0000      -0.366990        -9.9863
  79   2.0000      -0.364012        -9.9053
  80   2.0000      -0.357194        -9.7197
  81   2.0000      -0.349760        -9.5174
  82   2.0000      -0.342447        -9.3185
  83   2.0000      -0.342214        -9.3121
  84   2.0000      -0.341514        -9.2931
  85   2.0000      -0.330249        -8.9865
  86   2.0000      -0.328416        -8.9366
  87   2.0000      -0.303110        -8.2480
  88   2.0000      -0.288749        -7.8573
  89   2.0000      -0.279508        -7.6058
  90   2.0000      -0.276075        -7.5124
  91   2.0000      -0.266013        -7.2386
  92   2.0000      -0.261116        -7.1053
  93   2.0000      -0.245166        -6.6713
  94   2.0000      -0.241945        -6.5837
  95   2.0000      -0.210463        -5.7270
  96   0.0000      -0.116202        -3.1620
  97   0.0000      -0.095166        -2.5896
  98   0.0000      -0.087061        -2.3691
  99   0.0000      -0.040864        -1.1120
 100   0.0000       0.006952         0.1892

MULLIKEN ATOMIC CHARGES
-----------------------
   0 C :   -0.310598
   1 O :   -0.184890
   2 C :    0.210974
   3 O :   -0.479057
   4 C :    0.100515
   5 N :   -0.098129
   6 C :    0.084737
   7 C :    0.010415
   8 C :   -0.496113
   9 C :   -0.606138
  10 N :   -0.132926
  11 C :   -0.047655
  12 O :   -0.415658
  13 C :    0.434507
  14 N :   -0.373073
  15 N :    0.469192
  16 C :   -0.406844
  17 C :    0.276379
  18 C :   -0.596431
  19 O :    0.003365
  20 N :    0.272828
  21 C :   -0.443154
  22 C :    0.127579
  23 O :   -0.433754
  24 C :    0.057071
  25 O :   -0.357787
  26 H :    0.180275
  27 H :    0.179815
  28 H :    0.179427
  29 H :    0.201827
  30 H :    0.185966
  31 H :    0.193773
  32 H :    0.200682
  33 H :    0.185469
  34 H :    0.191647
  35 H :    0.326458
  36 H :    0.219073
  37 H :    0.215582
  38 H :    0.212524
  39 H :    0.220030
  40 H :    0.240911
  41 H :    0.227310
  42 H :    0.207294
  43 H :    0.194880
  44 H :    0.199557
  45 H :    0.372144
Sum of atomic charges:    1.0000000

LOEWDIN ATOMIC CHARGES
----------------------
   0 C :   -0.031854
   1 O :   -0.557173
   2 C :    0.408145
   3 O :   -0.463553
   4 C :    0.195094
   5 N :   -0.567331
   6 C :    0.369264
   7 C :    0.113317
   8 C :   -0.336836
   9 C :   -0.330772
  10 N :   -0.575673
  11 C :    0.378498
  12 O :   -0.414161
  13 C :    0.467657
  14 N :   -0.192987
  15 N :   -0.500492
  16 C :   -0.020130
  17 C :    0.481559
  18 C :   -0.290357
  19 O :   -0.331703
  20 N :   -0.629520
  21 C :   -0.066502
  22 C :    0.382749
  23 O :   -0.456265
  24 C :    0.285171
  25 O :   -0.441146
  26 H :    0.184418
  27 H :    0.188050
  28 H :    0.184613
  29 H :    0.181185
  30 H :    0.172560
  31 H :    0.177228
  32 H :    0.181349
  33 H :    0.169268
  34 H :    0.179453
  35 H :    0.303326
  36 H :    0.214501
  37 H :    0.219800
  38 H :    0.215065
  39 H :    0.204584
  40 H :    0.216157
  41 H :    0.209749
  42 H :    0.198575
  43 H :    0.208162
  44 H :    0.202624
  45 H :    0.314336

  Mayer bond orders larger than 0.100000
B(  0-C ,  1-O ) :   0.8231 B(  0-C , 26-H ) :   0.9539 B(  0-C , 27-H ) :   0.9610
B(  0-C , 28-H ) :   0.9548 B(  1-O ,  2-C ) :   1.2015 B(  2-C ,  3-O ) :   1.7293
B(  2-C ,  4-C ) :   1.0674 B(  4-C ,  5-N ) :   1.0219 B(  4-C , 24-C ) :   1.2861
B(  5-N ,  6-C ) :   1.6768 B(  6-C ,  7-C ) :   0.7769 B(  6-C , 20-N ) :   1.2349
B(  6-C , 24-C ) :   0.1184 B(  7-C ,  8-C ) :   0.9959 B(  7-C ,  9-C ) :   0.9188
B(  7-C , 10-N ) :   0.7657 B(  8-C , 29-H ) :   0.9654 B(  8-C , 30-H ) :   0.9300
B(  8-C , 31-H ) :   0.9621 B(  9-C , 32-H ) :   0.9614 B(  9-C , 33-H ) :   0.9704
B(  9-C , 34-H ) :   0.9590 B( 10-N , 11-C ) :   1.1928 B( 10-N , 35-H ) :   0.8948
B( 11-C , 12-O ) :   1.8561 B( 11-C , 13-C ) :   0.7693 B( 11-C , 15-N ) :   0.1246
B( 13-C , 14-N ) :   1.7343 B( 13-C , 17-C ) :   0.1325 B( 13-C , 19-O ) :   1.0785
B( 14-N , 15-N ) :   1.3050 B( 14-N , 17-C ) :   0.1445 B( 15-N , 16-C ) :   0.9055
B( 15-N , 17-C ) :   1.4834 B( 16-C , 36-H ) :   0.9132 B( 16-C , 37-H ) :   0.9294
B( 16-C , 38-H ) :   0.9310 B( 17-C , 18-C ) :   0.8620 B( 17-C , 19-O ) :   1.1369
B( 18-C , 39-H ) :   0.9553 B( 18-C , 40-H ) :   0.9137 B( 18-C , 41-H ) :   0.9392
B( 20-N , 21-C ) :   0.8543 B( 20-N , 22-C ) :   1.0522 B( 21-C , 42-H ) :   0.9327
B( 21-C , 43-H ) :   0.9345 B( 21-C , 44-H ) :   0.9291 B( 22-C , 23-O ) :   1.8913
B( 22-C , 24-C ) :   1.0110 B( 24-C , 25-O ) :   1.1452 B( 25-O , 45-H ) :   0.7715

Dispersion correction           -0.020899548
FINAL SINGLE POINT ENERGY     -1308.392231548553

DIPOLE MOMENT
-------------
                                X             Y             Z
Electronic contribution:     -6.61881       4.06736      10.25351
Nuclear contribution   :     18.19242      -5.94557     -12.73450
                        -----------------------------------------
Total Dipole Moment    :     11.57360      -1.87821      -2.48099
                        -----------------------------------------
Magnitude (a.u.)       :     11.98462
Magnitude (Debye)      :     30.46249

Rotational constants in cm-1:     0.013704     0.003319     0.003147
Rotational constants in MHz :   410.821181    99.511084    94.339921

                             ****ORCA TERMINATED NORMALLY****
TOTAL RUN TIME: 0 days 0 hours 1 minutes 41 seconds 180 msec
