   * xtb version 6.5.1 (579679a) compiled by 'ehlert@majestix' on 2022-07-11
          program call               : /lustre/hpc/kemi/ree/PhD/git/ReactivityQM/dep/xtb-6.5.1/bin/xtb --gfn 1 /lustre/hpc/kemi/ree/PhD/git/ReactivityQM/calculations/R03/reac02prodN07/conf07/R03_reac02prodN07_conf07_gfn1.xyz --opt --vfukui --chrg 1 --uhf 0 --alpb DMSO

   ID    Z sym.   atoms
    1    6 C      1, 3, 5, 7-10, 12, 14, 17-19, 22, 23, 25
    2    8 O      2, 4, 13, 20, 24, 26
    3    7 N      6, 11, 15, 16, 21
    4    1 H      27-46

      * Solvation model:               ALPB
        Solvent                        DMSO
        Solvent mass                       7.8130E+01 g/mol
          :  Hamiltonian                  GFN1-xTB          :
 * total energy  :   -86.3435638 Eh     change       -0.1244871E-10 Eh
 * total energy  :   -86.3603534 Eh     change       -0.1678954E-01 Eh
 * total energy  :   -86.3659176 Eh     change       -0.5564261E-02 Eh
 * total energy  :   -86.3671655 Eh     change       -0.1247859E-02 Eh
 * total energy  :   -86.3680592 Eh     change       -0.8937080E-03 Eh
 * total energy  :   -86.3685128 Eh     change       -0.4536415E-03 Eh
 * total energy  :   -86.3688767 Eh     change       -0.3638844E-03 Eh
 * total energy  :   -86.3691280 Eh     change       -0.2512812E-03 Eh
 * total energy  :   -86.3692794 Eh     change       -0.1513719E-03 Eh
 * total energy  :   -86.3693512 Eh     change       -0.7186629E-04 Eh
 * total energy  :   -86.3697389 Eh     change       -0.9421580E-05 Eh
 * total energy  :   -86.3697499 Eh     change       -0.1102529E-04 Eh
 * total energy  :   -86.3697631 Eh     change       -0.1313118E-04 Eh
 * total energy  :   -86.3697763 Eh     change       -0.1327098E-04 Eh
 * total energy  :   -86.3697854 Eh     change       -0.9076088E-05 Eh
 * total energy  :   -86.3697933 Eh     change       -0.7909854E-05 Eh
 * total energy  :   -86.3698001 Eh     change       -0.6723669E-05 Eh
 * total energy  :   -86.3697993 Eh     change        0.7058969E-06 Eh
 * total energy  :   -86.3698034 Eh     change       -0.4055600E-05 Eh
   *** GEOMETRY OPTIMIZATION CONVERGED AFTER 38 ITERATIONS ***

 final structure:
================
46
 xtb: 6.5.1 (579679a)
C           -5.68579963891099        2.36221428711640       -1.99238846537380
O           -4.59936129625678        1.60125810684445       -1.45086570320468
C           -4.69384208731338        1.25976316658785       -0.17462268888047
O           -5.63965061745709        1.56541676509933        0.53038629501391
C           -3.54527607815072        0.47031956708540        0.32655053744630
N           -2.53459976313761        0.19191237823930       -0.54896447045950
C           -1.50808540501080       -0.49689176445630       -0.17098535768230
C           -0.46723080832486       -0.75008742285841       -1.25274503650471
C           -0.62416588338423       -2.15958156979944       -1.83164776114755
C           -0.63441512074105        0.28670265546126       -2.37279284247597
N            0.89438708016416       -0.61263531530279       -0.71557634150050
C            1.26670321769489        0.47003732890548       -0.01887805551025
O            0.54709606471682        1.37650886674664        0.34418467618036
C            2.72737236280650        0.45163573482883        0.33462406390776
N            3.39214956461330        1.35647614420472        0.98427574802193
N            4.64933041499222        0.87970927457204        1.05405116411205
C            5.67683780013969        1.64320557128104        1.73408224587200
C            4.72231246338926       -0.29227694637509        0.46005654676699
C            5.88138319806906       -1.18113720123229        0.28412677166257
O            3.52225650251191       -0.58353029014590       -0.00351382530376
N           -1.40084414441363       -1.00208811406332        1.09767562928435
C           -0.28867894876368       -1.82675336920299        1.56539943240863
C           -2.34391969036420       -0.72899928280170        2.09134457225908
O           -2.18558682397789       -1.14183882036348        3.22980132025932
C           -3.49004279238868        0.05287920397454        1.63233833399580
O           -4.42823130669635        0.30896683601258        2.54504636838914
H           -6.60856112262874        1.77991829178367       -1.94260755069135
H           -5.42743799026773        2.57790186072529       -3.02683160139394
H           -5.81070177425023        3.28904915710857       -1.42799091197550
H           -1.63129181550022       -2.27293078832242       -2.23064973308364
H           -0.45820404642027       -2.92445995452751       -1.07691323469548
H            0.09234708170311       -2.30429844669566       -2.63782070054720
H           -0.58461999807212        1.29447193439486       -1.96353452108694
H            0.15900662815940        0.15540911311920       -3.10501264212947
H           -1.59933509740811        0.14936136313559       -2.85732482876154
H            1.59253711113071       -1.26042429830519       -1.03464112947964
H            5.71264703016396        1.33272323222705        2.77797428646001
H            5.41650513316342        2.69689561050245        1.66422819583218
H            6.63151436543975        1.44850870186408        1.25332933849165
H            5.53696297072702       -2.16832435195347       -0.01732884053136
H            6.53587623847661       -0.78142342252639       -0.49357101662082
H            6.45375065730301       -1.24558691660678        1.20880961003698
H            0.42832242056285       -1.20180436774622        2.09756941883411
H           -0.68729041166007       -2.57507892523978        2.25098215243011
H            0.20087100706880       -2.31927532140806        0.73620133647397
H           -5.16299765149785        0.82818173810825        2.14416821489727

          :  Hamiltonian                  GFN1-xTB          :
         :: total energy             -86.369803401959 Eh    ::
         :: gradient norm              0.000423162484 Eh/a0 ::
         :: HOMO-LUMO gap              1.882903226138 eV    ::
         :: SCC energy               -87.212442053147 Eh    ::
         :: -> Gsolv                  -0.133755568262 Eh    ::
         :: repulsion energy           0.871801108802 Eh    ::

    * Orbital Energies and Occupations

         #    Occupation            Energy/Eh            Energy/eV
      -------------------------------------------------------------
         1        2.0000           -0.9416335             -25.6232
       ...           ...                  ...                  ...
        58        2.0000           -0.5285386             -14.3823
        59        2.0000           -0.5231084             -14.2345
        60        2.0000           -0.5199236             -14.1478
        61        2.0000           -0.5186064             -14.1120
        62        2.0000           -0.5131365             -13.9632
        63        2.0000           -0.5031402             -13.6911
        64        2.0000           -0.4989152             -13.5762
        65        2.0000           -0.4931828             -13.4202
        66        2.0000           -0.4821127             -13.1190
        67        2.0000           -0.4788306             -13.0296
        68        2.0000           -0.4629595             -12.5978
        69        2.0000           -0.4495904             -12.2340
        70        2.0000           -0.4324280             -11.7670 (HOMO)
        71                         -0.3632325              -9.8841 (LUMO)
        72                         -0.3466599              -9.4331
        73                         -0.3295406              -8.9673
        74                         -0.2895282              -7.8785
        75                         -0.2467189              -6.7136
        76                         -0.2462028              -6.6995
        77                         -0.1856083              -5.0507
        78                         -0.1736146              -4.7243
        79                         -0.1632066              -4.4411
        80                         -0.1503162              -4.0903
        81                         -0.1404397              -3.8216
       ...                                ...                  ...
       144                          0.7136722              19.4200
      -------------------------------------------------------------
                  HL-Gap            0.0691954 Eh            1.8829 eV

Wiberg/Mayer (AO) data.
largest (>0.10) Wiberg bond orders for each atom

     #   Z sym  total        # sym  WBO       # sym  WBO       # sym  WBO
 ---------------------------------------------------------------------------
     1   6 C    3.865 --    28 H    0.986    29 H    0.979    27 H    0.979
                             2 O    0.891
     2   8 O    2.217 --     3 C    1.137     1 C    0.891     4 O    0.130
     3   6 C    3.848 --     4 O    1.608     2 O    1.137     5 C    1.018
     4   8 O    1.943 --     3 C    1.608     2 O    0.130
     5   6 C    3.964 --    25 C    1.476     6 N    1.187     3 C    1.018
     6   7 N    3.032 --     7 C    1.572     5 C    1.187
     7   6 C    3.934 --     6 N    1.572    21 N    1.175     8 C    0.975
     8   6 C    3.922 --     9 C    0.986    10 C    0.986     7 C    0.975
                            11 N    0.911
     9   6 C    3.987 --     8 C    0.986    30 H    0.982    32 H    0.981
                            31 H    0.978
    10   6 C    3.985 --     8 C    0.986    34 H    0.985    35 H    0.982
                            33 H    0.982
    11   7 N    3.380 --    12 C    1.287     8 C    0.911    36 H    0.887
                            13 O    0.196
    12   6 C    3.926 --    13 O    1.606    11 N    1.287    14 C    0.958
    13   8 O    1.923 --    12 C    1.606    11 N    0.196
    14   6 C    3.842 --    15 N    1.619    20 O    1.053    12 C    0.958
    15   7 N    2.984 --    14 C    1.619    16 N    1.150
    16   7 N    3.631 --    18 C    1.427    15 N    1.150    17 C    0.908
    17   6 C    3.884 --    39 H    0.977    38 H    0.975    37 H    0.963
                            16 N    0.908
    18   6 C    3.839 --    16 N    1.427    20 O    1.144    19 C    1.042
    19   6 C    3.959 --    18 C    1.042    40 H    0.969    42 H    0.957
                            41 H    0.935
    20   8 O    2.374 --    18 C    1.144    14 C    1.053
    21   7 N    3.504 --     7 C    1.175    23 C    1.106    22 C    0.934
                            24 O    0.137
    22   6 C    3.925 --    45 H    0.979    43 H    0.975    44 H    0.974
                            21 N    0.934
    23   6 C    3.912 --    24 O    1.588    21 N    1.106    25 C    1.068
    24   8 O    1.903 --    23 C    1.588    21 N    0.137
    25   6 C    3.923 --     5 C    1.476    26 O    1.125    23 C    1.068
    26   8 O    2.093 --    25 C    1.125    46 H    0.778
    27   1 H    1.006 --     1 C    0.979
    28   1 H    1.010 --     1 C    0.986
    29   1 H    1.006 --     1 C    0.979
    30   1 H    0.999 --     9 C    0.982
    31   1 H    0.999 --     9 C    0.978
    32   1 H    0.995 --     9 C    0.981
    33   1 H    1.009 --    10 C    0.982
    34   1 H    1.000 --    10 C    0.985
    35   1 H    1.011 --    10 C    0.982
    36   1 H    0.925 --    11 N    0.887
    37   1 H    0.989 --    17 C    0.963
    38   1 H    0.992 --    17 C    0.975
    39   1 H    0.989 --    17 C    0.977
    40   1 H    0.985 --    19 C    0.969
    41   1 H    0.984 --    19 C    0.935
    42   1 H    0.986 --    19 C    0.957
    43   1 H    1.002 --    22 C    0.975
    44   1 H    1.006 --    22 C    0.974
    45   1 H    1.007 --    22 C    0.979
    46   1 H    0.852 --    26 O    0.778
 ---------------------------------------------------------------------------

           -------------------------------------------------
          | TOTAL ENERGY              -86.369803401959 Eh   |
          | GRADIENT NORM               0.000423162484 Eh/α |
          | HOMO-LUMO GAP               1.882903226138 eV   |
           -------------------------------------------------

 * finished run on 2023/06/20 at 15:42:19.923
