   * xtb version 6.5.1 (579679a) compiled by 'ehlert@majestix' on 2022-07-11
          program call               : /lustre/hpc/kemi/ree/PhD/git/ReactivityQM/dep/xtb-6.5.1/bin/xtb --gfn 1 /lustre/hpc/kemi/ree/PhD/git/ReactivityQM/calculations/R02deprot/reac01prodE14/conf05/R02deprot_reac01prodE14_conf05_gfn1.xyz --opt --vfukui --chrg -2 --uhf 0 --alpb DMSO

   ID    Z sym.   atoms
    1    6 C      1, 3, 5, 7-10, 12, 14, 17, 18, 21, 23, 24
    2    8 O      2, 4, 13, 19, 22, 25
    3    7 N      6, 11, 15, 16, 20
    4    1 H      26-42

      * Solvation model:               ALPB
        Solvent                        DMSO
        Solvent mass                       7.8130E+01 g/mol
          :  Hamiltonian                  GFN1-xTB          :
 * total energy  :   -83.5867692 Eh     change       -0.9421797E-11 Eh
 * total energy  :   -83.6082687 Eh     change       -0.2149953E-01 Eh
 * total energy  :   -83.6181875 Eh     change       -0.9918781E-02 Eh
 * total energy  :   -83.6201609 Eh     change       -0.1973372E-02 Eh
 * total energy  :   -83.6216167 Eh     change       -0.1455826E-02 Eh
 * total energy  :   -83.6222716 Eh     change       -0.6549114E-03 Eh
 * total energy  :   -83.6228578 Eh     change       -0.5862146E-03 Eh
 * total energy  :   -83.6232789 Eh     change       -0.4211153E-03 Eh
 * total energy  :   -83.6236203 Eh     change       -0.3413076E-03 Eh
 * total energy  :   -83.6238871 Eh     change       -0.2668892E-03 Eh
 * total energy  :   -83.6301016 Eh     change       -0.6640610E-05 Eh
 * total energy  :   -83.6301073 Eh     change       -0.5729413E-05 Eh
 * total energy  :   -83.6301128 Eh     change       -0.5516253E-05 Eh
 * total energy  :   -83.6301184 Eh     change       -0.5579613E-05 Eh
 * total energy  :   -83.6301240 Eh     change       -0.5595564E-05 Eh
 * total energy  :   -83.6301296 Eh     change       -0.5570266E-05 Eh
 * total energy  :   -83.6301352 Eh     change       -0.5584387E-05 Eh
 * total energy  :   -83.6301407 Eh     change       -0.5545406E-05 Eh
 * total energy  :   -83.6301456 Eh     change       -0.4905234E-05 Eh
   *** GEOMETRY OPTIMIZATION CONVERGED AFTER 91 ITERATIONS ***

 final structure:
================
42
 xtb: 6.5.1 (579679a)
C           -5.73055723493134        1.88286491873302       -1.28067780142312
O           -4.69270700759996        1.31577510591432       -0.51114615418815
C           -3.57166159568360        0.87972570717189       -1.25806680940428
O           -3.61155327038477        1.03918559603540       -2.49910027349069
C           -2.52480878360620        0.33491362031871       -0.51241415222469
N           -1.44393399469630       -0.11528669341021       -1.27162513008833
C           -0.33311988431612       -0.39983816728092       -0.67149146476198
C            0.79732820750656       -0.98602977975616       -1.51994532426419
C            0.80396056499181       -0.34591427562754       -2.91376958855228
C            0.60511950713492       -2.50800715783741       -1.62989826323157
N            2.05107354496563       -0.69529555985529       -0.82052527696698
C            3.27109457453027       -1.02568157979071       -1.24981752352271
O            3.52802074864522       -1.61256887263929       -2.30477929499598
C            4.35876531266418       -0.60193744961959       -0.33407066964647
N            5.64118944840025       -0.79175618261409       -0.49253325277047
N            6.25934134717790       -0.22527861447164        0.58710449943330
C            5.32538357992468        0.27350710865762        1.33388608513143
C            5.48829305096707        0.99620276203354        2.61599269954158
O            4.10098228146713        0.07310292847135        0.81490597224362
N           -0.01145479886155       -0.12811195778257        0.62814229050379
C           -0.98132236977858        0.25979915461137        1.44803945234226
O           -0.76326388126817        0.76166571597305        2.57320164106428
C           -2.46325118840168        0.05811402208796        0.97389755932162
C           -3.38161223632950        0.91299129279747        1.85552556052489
O           -2.76097000727275       -1.34582088513670        1.24145466866727
H           -6.53455032753742        2.15710481688168       -0.59517152310675
H           -5.39235247212880        2.78177356985591       -1.81377974216461
H           -6.11841416397960        1.16980551254005       -2.02005015948401
H           -0.19493414415989       -0.43460319257479       -3.34290517514659
H            1.52021972465428       -0.83664039749341       -3.57129945167646
H            1.05801598988646        0.71153450123614       -2.83816140137396
H            1.38541331139922       -2.95845455175908       -2.24264164504674
H           -0.36332911275989       -2.71098204631630       -2.08594790799623
H            0.62888240262090       -2.95984470167687       -0.63824119090832
H            1.92385440756829       -0.27093312982241        0.10079261086293
H            5.08061024609207        2.00380918050437        2.53467128963760
H            6.54398748301116        1.05371267125665        2.86708355465659
H            4.95434394659851        0.47729240156339        3.41202062286238
H           -4.42193076137060        0.61835816012002        1.73586733745427
H           -3.10930779719373        0.77029294289091        2.90293917611122
H           -3.27771170813164        1.96884936201652        1.60798566244163
H           -3.64313393983926       -1.54739985620400        0.91367749363982

          :  Hamiltonian                  GFN1-xTB          :
         :: total energy             -83.630145627158 Eh    ::
         :: gradient norm              0.000241704125 Eh/a0 ::
         :: HOMO-LUMO gap              0.145433808032 eV    ::
         :: SCC energy               -84.362349476492 Eh    ::
         :: -> Gsolv                  -0.276718355383 Eh    ::
         :: repulsion energy           0.757969261437 Eh    ::

    * Orbital Energies and Occupations

         #    Occupation            Energy/Eh            Energy/eV
      -------------------------------------------------------------
         1        2.0000           -0.8422140             -22.9178
       ...           ...                  ...                  ...
        56        2.0000           -0.4358881             -11.8611
        57        2.0000           -0.4316687             -11.7463
        58        2.0000           -0.4256402             -11.5823
        59        2.0000           -0.4221843             -11.4882
        60        2.0000           -0.4208823             -11.4528
        61        2.0000           -0.4154217             -11.3042
        62        2.0000           -0.4082605             -11.1093
        63        2.0000           -0.3917876             -10.6611
        64        2.0000           -0.3798135             -10.3353
        65        2.0000           -0.3559181              -9.6850
        66        2.0000           -0.3513097              -9.5596
        67        2.0000           -0.3267578              -8.8915
        68        1.8867           -0.2891496              -7.8682 (HOMO)
        69        0.1133           -0.2838050              -7.7227 (LUMO)
        70                         -0.2390511              -6.5049
        71                         -0.1975769              -5.3763
        72                         -0.1694574              -4.6112
        73                         -0.1354044              -3.6845
        74                         -0.1319621              -3.5909
        75                         -0.1139368              -3.1004
        76                         -0.1013686              -2.7584
        77                         -0.0947185              -2.5774
        78                         -0.0906620              -2.4670
        79                         -0.0685030              -1.8641
       ...                                ...                  ...
       134                          0.7243731              19.7112
      -------------------------------------------------------------
                  HL-Gap            0.0053446 Eh            0.1454 eV

Wiberg/Mayer (AO) data.
largest (>0.10) Wiberg bond orders for each atom

     #   Z sym  total        # sym  WBO       # sym  WBO       # sym  WBO
 ---------------------------------------------------------------------------
     1   6 C    3.921 --    26 H    0.987    27 H    0.980    28 H    0.980
                             2 O    0.952
     2   8 O    2.065 --     1 C    0.952     3 C    0.914
     3   6 C    3.846 --     4 O    1.434     5 C    1.368     2 O    0.914
     4   8 O    1.729 --     3 C    1.434     5 C    0.119
     5   6 C    3.810 --     3 C    1.368     6 N    1.132    23 C    0.988
                             4 O    0.119
     6   7 N    3.005 --     7 C    1.572     5 C    1.132    20 N    0.103
     7   6 C    3.927 --     6 N    1.572    20 N    1.189     8 C    0.960
     8   6 C    3.918 --     9 C    0.991    10 C    0.981     7 C    0.960
                            11 N    0.916
     9   6 C    3.994 --     8 C    0.991    31 H    0.987    30 H    0.985
                            29 H    0.982
    10   6 C    3.990 --    34 H    0.987    33 H    0.987    32 H    0.985
                             8 C    0.981
    11   7 N    3.372 --    12 C    1.305     8 C    0.916    35 H    0.871
                            13 O    0.180
    12   6 C    3.896 --    13 O    1.513    11 N    1.305    14 C    1.003
    13   8 O    1.820 --    12 C    1.513    11 N    0.180
    14   6 C    3.814 --    15 N    1.582    19 O    1.033    12 C    1.003
    15   7 N    2.933 --    14 C    1.582    16 N    1.188
    16   7 N    2.979 --    17 C    1.621    15 N    1.188
    17   6 C    3.860 --    16 N    1.621    19 O    1.069    18 C    1.028
    18   6 C    3.990 --    17 C    1.028    37 H    0.984    38 H    0.966
                            36 H    0.966
    19   8 O    2.287 --    17 C    1.069    14 C    1.033
    20   7 N    2.971 --    21 C    1.375     7 C    1.189    22 O    0.135
                             6 N    0.103
    21   6 C    3.899 --    22 O    1.477    20 N    1.375    23 C    0.900
    22   8 O    1.761 --    21 C    1.477    20 N    0.135
    23   6 C    3.891 --    24 C    0.995     5 C    0.988    21 C    0.900
                            25 O    0.887
    24   6 C    3.996 --    23 C    0.995    41 H    0.986    39 H    0.985
                            40 H    0.983
    25   8 O    1.858 --    23 C    0.887    42 H    0.883
    26   1 H    1.020 --     1 C    0.987
    27   1 H    1.022 --     1 C    0.980
    28   1 H    1.023 --     1 C    0.980
    29   1 H    1.029 --     9 C    0.982
    30   1 H    1.016 --     9 C    0.985
    31   1 H    1.010 --     9 C    0.987
    32   1 H    1.014 --    10 C    0.985
    33   1 H    1.013 --    10 C    0.987
    34   1 H    1.009 --    10 C    0.987
    35   1 H    0.988 --    11 N    0.871
    36   1 H    0.999 --    18 C    0.966
    37   1 H    1.001 --    18 C    0.984
    38   1 H    0.998 --    18 C    0.966
    39   1 H    1.024 --    24 C    0.985
    40   1 H    1.028 --    24 C    0.983
    41   1 H    1.019 --    24 C    0.986
    42   1 H    0.910 --    25 O    0.883
 ---------------------------------------------------------------------------

           -------------------------------------------------
          | TOTAL ENERGY              -83.630145627158 Eh   |
          | GRADIENT NORM               0.000241704125 Eh/α |
          | HOMO-LUMO GAP               0.145433808032 eV   |
           -------------------------------------------------

 * finished run on 2023/06/20 at 18:04:20.918
