   * xtb version 6.5.1 (579679a) compiled by 'ehlert@majestix' on 2022-07-11
          program call               : /lustre/hpc/kemi/ree/PhD/git/ReactivityQM/dep/xtb-6.5.1/bin/xtb --gfn 1 /lustre/hpc/kemi/ree/PhD/git/ReactivityQM/calculations/R02methylcation/reac01prodN14/conf07/R02methylcation_reac01prodN14_conf07_gfn1.xyz --opt --vfukui --chrg 0 --uhf 0 --alpb DMSO

   ID    Z sym.   atoms
    1    6 C      1, 3, 5, 6, 8, 9, 12-15, 17, 19, 22, 23
    2    8 O      2, 4, 7, 10, 18, 24
    3    7 N      11, 16, 20, 21, 25
    4    1 H      26-42

      * Solvation model:               ALPB
        Solvent                        DMSO
        Solvent mass                       7.8130E+01 g/mol
          :  Hamiltonian                  GFN1-xTB          :
 * total energy  :   -82.8923166 Eh     change       -0.5542233E-12 Eh
 * total energy  :   -82.9084733 Eh     change       -0.1615669E-01 Eh
 * total energy  :   -82.9186067 Eh     change       -0.1013345E-01 Eh
 * total energy  :   -82.9206271 Eh     change       -0.2020423E-02 Eh
 * total energy  :   -82.9223066 Eh     change       -0.1679458E-02 Eh
 * total energy  :   -82.9232300 Eh     change       -0.9234308E-03 Eh
 * total energy  :   -82.9241995 Eh     change       -0.9694414E-03 Eh
 * total energy  :   -82.9248775 Eh     change       -0.6780346E-03 Eh
 * total energy  :   -82.9254609 Eh     change       -0.5833993E-03 Eh
 * total energy  :   -82.9259913 Eh     change       -0.5303725E-03 Eh
 * total energy  :   -82.9769440 Eh     change       -0.4008497E-04 Eh
 * total energy  :   -82.9769715 Eh     change       -0.2749381E-04 Eh
 * total energy  :   -82.9769932 Eh     change       -0.2167610E-04 Eh
 * total energy  :   -82.9770092 Eh     change       -0.1602304E-04 Eh
 * total energy  :   -82.9770184 Eh     change       -0.9225264E-05 Eh
 * total energy  :   -82.9770312 Eh     change       -0.1278851E-04 Eh
 * total energy  :   -82.9770347 Eh     change       -0.3525272E-05 Eh
 * total energy  :   -82.9770379 Eh     change       -0.3175655E-05 Eh
 * total energy  :   -82.9770398 Eh     change       -0.1887229E-05 Eh
   *** GEOMETRY OPTIMIZATION CONVERGED AFTER 92 ITERATIONS ***

 final structure:
================
42
 xtb: 6.5.1 (579679a)
C           -5.37329593243218        3.06150499149833       -0.01976182828239
O           -4.21386283188237        2.23011418925038        0.04740683555487
C           -4.12158400465253        1.26672476017004       -0.88870932703739
O           -4.96230196674815        1.10607617572107       -1.75052904464539
C           -2.91985022759281        0.46205254462266       -0.73041389554093
C           -2.54287277092823       -0.59452026265791       -1.54036734599266
O           -2.91157858111177       -1.22196498673915       -2.48988724759024
C           -1.21507869520187       -2.47931344512944       -0.45909640725389
C           -2.40337215755736       -2.82217526588702        0.36097247721835
O           -0.37305075289932       -3.21717591151162       -0.86333967574570
N           -1.13498069819686       -1.05901974685255       -0.85604719606393
C           -1.01361222302892       -0.07465893249504        0.24582711937737
C            0.18314736192435       -0.05460611250936        1.15371938601477
C            0.19628303524273       -1.29005122255092        2.06548916670543
C            0.13470034723289        1.23389736433266        1.98534960384657
N            1.38148866980153       -0.05373035018551        0.30329470927609
C            2.63823687838657       -0.03340155151880        0.80847396706387
O            2.93210684321653       -0.13289381202597        1.98443119855944
C            3.63711490089360        0.10992003331396       -0.28015581043493
N            3.38001275159405        0.21070177991817       -1.55019281819587
N            4.57847946804329        0.33288300328660       -2.18468630404884
C            5.49162966128511        0.30071692079580       -1.26068483555959
C            6.95714449414671        0.40458170733502       -1.43378365000569
O            4.95903255032978        0.16081080293279       -0.03816302072200
N           -1.99883743467063        0.72226264229477        0.27846147648373
H           -5.41856248801217        3.57432585332008       -0.98445494595949
H           -5.28292574268962        3.78663541882344        0.78713096631473
H           -6.27780611016767        2.46162883971047        0.11244246270097
H           -2.19859623012430       -3.71909632544832        0.94071700251331
H           -3.22536516870689       -3.03440225371521       -0.32658894487009
H           -2.69831783792123       -2.00135407149724        1.00902275307568
H           -0.38875721726140       -0.97134258683129       -1.54245704748832
H            0.36100874891203       -2.19116244642177        1.47875406284877
H            0.99157616282257       -1.20058208995555        2.80294805534586
H           -0.75729261697078       -1.36650549511202        2.58456000960252
H            0.15714092866776        2.10211198585005        1.32921221650443
H           -0.78469876365633        1.25333918292398        2.56791832055046
H            0.98795654362505        1.27002148661448        2.65970682780763
H            1.27582098769787        0.17141632317406       -0.67391308580915
H            7.44852275049773       -0.45685292679232       -0.98192553478847
H            7.32694679585662        1.30183092830895       -0.93692280850893
H            7.19824957223337        0.45125586163172       -2.49297784285347

          :  Hamiltonian                  GFN1-xTB          :
         :: total energy             -82.977039785259 Eh    ::
         :: gradient norm              0.000491654543 Eh/a0 ::
         :: HOMO-LUMO gap              2.606856521712 eV    ::
         :: SCC energy               -83.774692085843 Eh    ::
         :: -> Gsolv                  -0.058228904492 Eh    ::
         :: repulsion energy           0.824342828925 Eh    ::

    * Orbital Energies and Occupations

         #    Occupation            Energy/Eh            Energy/eV
      -------------------------------------------------------------
         1        2.0000           -0.8674476             -23.6044
       ...           ...                  ...                  ...
        55        2.0000           -0.5083800             -13.8337
        56        2.0000           -0.5079414             -13.8218
        57        2.0000           -0.5065227             -13.7832
        58        2.0000           -0.4948657             -13.4660
        59        2.0000           -0.4876928             -13.2708
        60        2.0000           -0.4853164             -13.2061
        61        2.0000           -0.4726397             -12.8612
        62        2.0000           -0.4681915             -12.7401
        63        2.0000           -0.4647895             -12.6476
        64        2.0000           -0.4615573             -12.5596
        65        2.0000           -0.4551919             -12.3864
        66        2.0000           -0.4520048             -12.2997
        67        2.0000           -0.4209112             -11.4536 (HOMO)
        68                         -0.3251110              -8.8467 (LUMO)
        69                         -0.3149752              -8.5709
        70                         -0.3055969              -8.3157
        71                         -0.2753804              -7.4935
        72                         -0.2590198              -7.0483
        73                         -0.2027187              -5.5163
        74                         -0.1687474              -4.5918
        75                         -0.1612390              -4.3875
        76                         -0.1481643              -4.0318
        77                         -0.1431770              -3.8960
        78                         -0.1418200              -3.8591
       ...                                ...                  ...
       134                          0.8435543              22.9543
      -------------------------------------------------------------
                  HL-Gap            0.0958002 Eh            2.6069 eV

Wiberg/Mayer (AO) data.
largest (>0.10) Wiberg bond orders for each atom

     #   Z sym  total        # sym  WBO       # sym  WBO       # sym  WBO
 ---------------------------------------------------------------------------
     1   6 C    3.879 --    27 H    0.986    28 H    0.980    26 H    0.980
                             2 O    0.906
     2   8 O    2.171 --     3 C    1.074     1 C    0.906     4 O    0.120
     3   6 C    3.865 --     4 O    1.614     5 C    1.082     2 O    1.074
     4   8 O    1.891 --     3 C    1.614     2 O    0.120
     5   6 C    3.885 --     6 C    1.351    25 N    1.112     3 C    1.082
                             7 O    0.139
     6   6 C    3.866 --     7 O    1.686     5 C    1.351    11 N    0.662
     7   8 O    2.033 --     6 C    1.686     5 C    0.139
     8   6 C    3.830 --    10 O    1.811     9 C    1.026    11 N    0.893
     9   6 C    3.983 --     8 C    1.026    31 H    0.971    29 H    0.969
                            30 H    0.932
    10   8 O    2.040 --     8 C    1.811
    11   7 N    3.548 --     8 C    0.893    32 H    0.869    12 C    0.863
                             6 C    0.662
    12   6 C    3.889 --    25 N    1.780    13 C    0.990    11 N    0.863
    13   6 C    3.935 --    12 C    0.990    15 C    0.985    14 C    0.979
                            16 N    0.920
    14   6 C    3.986 --    35 H    0.985    33 H    0.981    13 C    0.979
                            34 H    0.975
    15   6 C    3.987 --    36 H    0.985    13 C    0.985    37 H    0.984
                            38 H    0.981
    16   7 N    3.324 --    17 C    1.234    13 C    0.920    39 H    0.895
                            18 O    0.173
    17   6 C    3.914 --    18 O    1.606    16 N    1.234    19 C    0.991
    18   8 O    1.921 --    17 C    1.606    16 N    0.173
    19   6 C    3.876 --    20 N    1.607    24 O    1.065    17 C    0.991
    20   7 N    3.019 --    19 C    1.607    21 N    1.203
    21   7 N    2.981 --    22 C    1.602    20 N    1.203
    22   6 C    3.870 --    21 N    1.602    24 O    1.084    23 C    1.032
    23   6 C    3.986 --    22 C    1.032    42 H    0.982    40 H    0.964
                            41 H    0.961
    24   8 O    2.332 --    22 C    1.084    19 C    1.065
    25   7 N    3.063 --    12 C    1.780     5 C    1.112
    26   1 H    1.009 --     1 C    0.980
    27   1 H    1.012 --     1 C    0.986
    28   1 H    1.009 --     1 C    0.980
    29   1 H    0.994 --     9 C    0.969
    30   1 H    0.991 --     9 C    0.932
    31   1 H    0.997 --     9 C    0.971
    32   1 H    0.920 --    11 N    0.869
    33   1 H    1.003 --    14 C    0.981
    34   1 H    1.009 --    14 C    0.975
    35   1 H    1.002 --    14 C    0.985
    36   1 H    1.004 --    15 C    0.985
    37   1 H    1.005 --    15 C    0.984
    38   1 H    1.006 --    15 C    0.981
    39   1 H    0.951 --    16 N    0.895
    40   1 H    0.996 --    23 C    0.964
    41   1 H    0.996 --    23 C    0.961
    42   1 H    0.998 --    23 C    0.982
 ---------------------------------------------------------------------------

           -------------------------------------------------
          | TOTAL ENERGY              -82.977039785259 Eh   |
          | GRADIENT NORM               0.000491654543 Eh/α |
          | HOMO-LUMO GAP               2.606856521712 eV   |
           -------------------------------------------------

 * finished run on 2023/06/21 at 17:53:55.000
