   * xtb version 6.5.1 (579679a) compiled by 'ehlert@majestix' on 2022-07-11
          program call               : /lustre/hpc/kemi/ree/PhD/git/ReactivityQM/dep/xtb-6.5.1/bin/xtb --gfn 1 /lustre/hpc/kemi/ree/PhD/git/ReactivityQM/calculations/RaltegravirCLI/reac02prodE01/conf08/RaltegravirCLI_reac02prodE01_conf08_gfn1.xyz --opt --vfukui --chrg -1 --uhf 0 --alpb DMSO

   ID    Z sym.   atoms
    1    6 C      1, 3-6, 9-11, 14-18, 20-22, 24
    2    7 N      2, 7, 8, 13
    3    8 O      12, 23, 25
    4    9 F      19
    5    1 H      26-47

      * Solvation model:               ALPB
        Solvent                        DMSO
        Solvent mass                       7.8130E+01 g/mol
          :  Hamiltonian                  GFN1-xTB          :
 * total energy  :   -80.1842486 Eh     change       -0.1392664E-10 Eh
 * total energy  :   -80.1955518 Eh     change       -0.1130326E-01 Eh
 * total energy  :   -80.1981750 Eh     change       -0.2623154E-02 Eh
 * total energy  :   -80.1987350 Eh     change       -0.5600643E-03 Eh
 * total energy  :   -80.1990055 Eh     change       -0.2705151E-03 Eh
 * total energy  :   -80.1991606 Eh     change       -0.1550898E-03 Eh
 * total energy  :   -80.1992768 Eh     change       -0.1161929E-03 Eh
 * total energy  :   -80.1993551 Eh     change       -0.7828967E-04 Eh
 * total energy  :   -80.1994028 Eh     change       -0.4769228E-04 Eh
 * total energy  :   -80.1994327 Eh     change       -0.2991009E-04 Eh
 * total energy  :   -80.1994549 Eh     change       -0.2215943E-04 Eh
 * total energy  :   -80.1994771 Eh     change       -0.2217374E-04 Eh
 * total energy  :   -80.1994881 Eh     change       -0.1104964E-04 Eh
 * total energy  :   -80.1995023 Eh     change       -0.1419011E-04 Eh
 * total energy  :   -80.1995143 Eh     change       -0.1198434E-04 Eh
 * total energy  :   -80.1995233 Eh     change       -0.9016403E-05 Eh
 * total energy  :   -80.1995306 Eh     change       -0.7277527E-05 Eh
 * total energy  :   -80.1995336 Eh     change       -0.3036185E-05 Eh
   *** GEOMETRY OPTIMIZATION CONVERGED AFTER 18 ITERATIONS ***

 final structure:
================
47
 xtb: 6.5.1 (579679a)
C           -3.94452158118857        0.52004718708619       -2.25699760834087
N           -2.77588011249863        0.07873563154116       -1.49950634416226
C           -2.62426144377212        0.28098681972579       -0.14905385396685
C           -3.70409599016656        0.94789197572206        0.69953594111239
C           -4.77580876873555       -0.09544188569667        1.04952583221163
C           -3.06674210030426        1.47078680277391        1.99817350729368
N           -4.33032157568802        2.05720486684661       -0.01843235162718
N           -1.57835357824132       -0.13453084348089        0.48915428441508
C           -0.54711706041994       -0.77958586138264       -0.13006571138279
C            0.62827148180877       -1.25275689741411        0.81872556300644
C            0.66630761789491       -2.82032154415407        0.66733056936409
O            0.53378168787976       -0.83783159175557        2.04390978812200
N            1.88648442013261       -0.71562504558531        0.08293298369104
C            3.08610675477095       -1.00157105820088        0.88801161357337
C            4.22358363093961       -0.13273050052727        0.41884529263625
C            4.43007071561967        1.12704987236500        0.98026684537574
C            5.45846192732660        1.94741171355343        0.53621101130903
C            6.27318013864010        1.48330731974147       -0.47982296803249
F            7.27607613248131        2.27208591473876       -0.91756932324723
C            6.10349136266907        0.24092365005720       -1.06245035828337
C            5.06868410826248       -0.56322403948321       -0.60401443742089
C           -0.63666248310493       -0.98980496754456       -1.47729408904589
O            0.32364337653489       -1.62536906305685       -2.21637831188499
C           -1.78018346472894       -0.55093900202723       -2.23244642381353
O           -1.87961720559656       -0.72851509974298       -3.45646165433977
H           -4.85774986226134        0.29080970992601       -1.71663174842590
H           -3.94803846077087       -0.00218146397501       -3.21413109373807
H           -3.89319325217113        1.59400541315128       -2.43071714922513
H           -5.50492941751782        0.34076218645959        1.73056560235482
H           -5.29961276930324       -0.43611318293968        0.15827217623667
H           -4.31366196564761       -0.95549122444171        1.53398630531624
H           -2.65469511388256        0.64602754130185        2.57982526486340
H           -2.26413516996621        2.16990071303193        1.76586388595365
H           -3.82214632387294        1.98427098076727        2.58988077432361
H           -5.18411126585653        2.31846298963415        0.45224795085888
H           -3.72006868992966        2.86446999118586       -0.00391329755858
H            0.94292921820251       -3.12479818512865       -0.34036685524542
H            1.38490797054859       -3.22322932131044        1.37974386589185
H           -0.31837785234036       -3.21878891796247        0.91073021244474
H            1.76881867458752        0.30030346875965        0.10564581834354
H            3.35845008749504       -2.05650398328872        0.76388817018452
H            2.88904213993654       -0.81312756080445        1.95732115271121
H            3.78455634742129        1.47380738529527        1.78015471782999
H            5.62954456089307        2.92457878797085        0.96853104581221
H            6.76777024798075       -0.08680794866962       -1.85142216183955
H            4.92440849154119       -1.54270141375509       -1.04777174840207
H            0.01571741439473       -1.64583731931048       -3.13870668525300

          :  Hamiltonian                  GFN1-xTB          :
         :: total energy             -80.199533609167 Eh    ::
         :: gradient norm              0.000782573991 Eh/a0 ::
         :: HOMO-LUMO gap              1.783368206176 eV    ::
         :: SCC energy               -81.054380845469 Eh    ::
         :: -> Gsolv                  -0.118904720537 Eh    ::
         :: repulsion energy           0.884786135640 Eh    ::

    * Orbital Energies and Occupations

         #    Occupation            Energy/Eh            Energy/eV
      -------------------------------------------------------------
         1        2.0000           -0.8517087             -23.1762
       ...           ...                  ...                  ...
        56        2.0000           -0.4526462             -12.3171
        57        2.0000           -0.4478233             -12.1859
        58        2.0000           -0.4386067             -11.9351
        59        2.0000           -0.4364156             -11.8755
        60        2.0000           -0.4304654             -11.7136
        61        2.0000           -0.4272230             -11.6253
        62        2.0000           -0.4182582             -11.3814
        63        2.0000           -0.4076210             -11.0919
        64        2.0000           -0.3993895             -10.8679
        65        2.0000           -0.3856415             -10.4938
        66        2.0000           -0.3665406              -9.9741
        67        2.0000           -0.3345777              -9.1043
        68        2.0000           -0.3301818              -8.9847 (HOMO)
        69                         -0.2646442              -7.2013 (LUMO)
        70                         -0.2585882              -7.0365
        71                         -0.2485899              -6.7645
        72                         -0.2386187              -6.4931
        73                         -0.1345366              -3.6609
        74                         -0.1294137              -3.5215
        75                         -0.1228959              -3.3442
        76                         -0.1148900              -3.1263
        77                         -0.1073494              -2.9211
        78                         -0.0979980              -2.6667
        79                         -0.0907789              -2.4702
       ...                                ...                  ...
       144                          0.6961139              18.9422
      -------------------------------------------------------------
                  HL-Gap            0.0655376 Eh            1.7834 eV

Wiberg/Mayer (AO) data.
largest (>0.10) Wiberg bond orders for each atom

     #   Z sym  total        # sym  WBO       # sym  WBO       # sym  WBO
 ---------------------------------------------------------------------------
     1   6 C    3.936 --    26 H    0.979    28 H    0.978    27 H    0.976
                             2 N    0.938
     2   7 N    3.498 --     3 C    1.166    24 C    1.120     1 C    0.938
                            25 O    0.122
     3   6 C    3.931 --     8 N    1.568     2 N    1.166     4 C    0.974
     4   6 C    3.966 --     6 C    0.990     5 C    0.985     7 N    0.981
                             3 C    0.974
     5   6 C    3.995 --    31 H    0.986     4 C    0.985    29 H    0.984
                            30 H    0.980
     6   6 C    3.995 --     4 C    0.990    34 H    0.987    33 H    0.985
                            32 H    0.982
     7   7 N    2.977 --     4 C    0.981    36 H    0.944    35 H    0.943
     8   7 N    3.036 --     3 C    1.568     9 C    1.212
     9   6 C    3.916 --    22 C    1.510     8 N    1.212    10 C    0.887
    10   6 C    3.937 --    12 O    1.236    11 C    0.923     9 C    0.887
                            13 N    0.837
    11   6 C    3.989 --    37 H    0.989    39 H    0.988    38 H    0.985
                            10 C    0.923
    12   8 O    1.521 --    10 C    1.236
    13   7 N    2.954 --    14 C    0.979    40 H    0.962    10 C    0.837
    14   6 C    3.983 --    15 C    1.007    13 N    0.979    41 H    0.977
                            42 H    0.964
    15   6 C    3.984 --    16 C    1.411    21 C    1.411    14 C    1.007
    16   6 C    3.993 --    17 C    1.443    15 C    1.411    43 H    0.972
                            20 C    0.109
    17   6 C    3.992 --    16 C    1.443    18 C    1.402    44 H    0.971
                            21 C    0.109
    18   6 C    3.854 --    17 C    1.402    20 C    1.402    19 F    0.912
    19   9 F    1.035 --    18 C    0.912
    20   6 C    3.992 --    21 C    1.444    18 C    1.402    45 H    0.971
                            16 C    0.109
    21   6 C    3.994 --    20 C    1.444    15 C    1.411    46 H    0.973
                            17 C    0.109
    22   6 C    3.909 --     9 C    1.510    24 C    1.140    23 O    1.030
    23   8 O    2.017 --    22 C    1.030    47 H    0.832
    24   6 C    3.913 --    25 O    1.488    22 C    1.140     2 N    1.120
    25   8 O    1.842 --    24 C    1.488     2 N    0.122
    26   1 H    1.023 --     1 C    0.979
    27   1 H    1.014 --     1 C    0.976
    28   1 H    1.023 --     1 C    0.978
    29   1 H    1.001 --     5 C    0.984
    30   1 H    1.006 --     5 C    0.980
    31   1 H    1.006 --     5 C    0.986
    32   1 H    1.019 --     6 C    0.982
    33   1 H    1.010 --     6 C    0.985
    34   1 H    1.005 --     6 C    0.987
    35   1 H    0.958 --     7 N    0.943
    36   1 H    0.960 --     7 N    0.944
    37   1 H    1.018 --    11 C    0.989
    38   1 H    1.018 --    11 C    0.985
    39   1 H    1.016 --    11 C    0.988
    40   1 H    0.998 --    13 N    0.962
    41   1 H    1.022 --    14 C    0.977
    42   1 H    1.029 --    14 C    0.964
    43   1 H    1.002 --    16 C    0.972
    44   1 H    1.000 --    17 C    0.971
    45   1 H    1.000 --    20 C    0.971
    46   1 H    1.003 --    21 C    0.973
    47   1 H    0.876 --    23 O    0.832
 ---------------------------------------------------------------------------

           -------------------------------------------------
          | TOTAL ENERGY              -80.199533609167 Eh   |
          | GRADIENT NORM               0.000782573991 Eh/α |
          | HOMO-LUMO GAP               1.783368206176 eV   |
           -------------------------------------------------

 * finished run on 2023/06/20 at 14:56:08.782
