   * xtb version 6.5.1 (579679a) compiled by 'ehlert@majestix' on 2022-07-11
          program call               : /lustre/hpc/kemi/ree/PhD/git/ReactivityQM/dep/xtb-6.5.1/bin/xtb --gfn 1 /lustre/hpc/kemi/ree/PhD/git/ReactivityQM/calculations/RaltegravirCLI/reac02prodE10/conf03/RaltegravirCLI_reac02prodE10_conf03_gfn1.xyz --opt --vfukui --chrg -1 --uhf 0 --alpb DMSO

   ID    Z sym.   atoms
    1    6 C      1, 3, 5, 6, 8, 9, 12-16, 18, 19, 21-24
    2    7 N      2, 11, 20, 25
    3    8 O      4, 7, 10
    4    9 F      17
    5    1 H      26-47

      * Solvation model:               ALPB
        Solvent                        DMSO
        Solvent mass                       7.8130E+01 g/mol
          :  Hamiltonian                  GFN1-xTB          :
 * total energy  :   -80.2116230 Eh     change       -0.1477929E-10 Eh
 * total energy  :   -80.2218718 Eh     change       -0.1024886E-01 Eh
 * total energy  :   -80.2248305 Eh     change       -0.2958664E-02 Eh
 * total energy  :   -80.2252861 Eh     change       -0.4555936E-03 Eh
 * total energy  :   -80.2256552 Eh     change       -0.3691064E-03 Eh
 * total energy  :   -80.2257951 Eh     change       -0.1399519E-03 Eh
 * total energy  :   -80.2259334 Eh     change       -0.1382403E-03 Eh
 * total energy  :   -80.2260278 Eh     change       -0.9439590E-04 Eh
 * total energy  :   -80.2261021 Eh     change       -0.7432452E-04 Eh
 * total energy  :   -80.2261635 Eh     change       -0.6141868E-04 Eh
 * total energy  :   -80.2271844 Eh     change       -0.1749725E-04 Eh
 * total energy  :   -80.2272035 Eh     change       -0.1911466E-04 Eh
 * total energy  :   -80.2272294 Eh     change       -0.2590467E-04 Eh
 * total energy  :   -80.2272492 Eh     change       -0.1971310E-04 Eh
 * total energy  :   -80.2272631 Eh     change       -0.1395891E-04 Eh
 * total energy  :   -80.2272856 Eh     change       -0.2245478E-04 Eh
 * total energy  :   -80.2272955 Eh     change       -0.9937259E-05 Eh
 * total energy  :   -80.2273012 Eh     change       -0.5686390E-05 Eh
 * total energy  :   -80.2273048 Eh     change       -0.3627697E-05 Eh
   *** GEOMETRY OPTIMIZATION CONVERGED AFTER 44 ITERATIONS ***

 final structure:
================
47
 xtb: 6.5.1 (579679a)
C           -3.76426552887399       -1.61948550933081       -0.46366575078274
N           -2.44219227173397       -1.05379940772732       -0.72758478869359
C           -1.42838745023883       -1.94163310166947       -0.76989771103337
O           -1.60155053070171       -3.15217159886722       -0.56835079618172
C           -0.02485392512930       -1.44013857579499       -1.13299977787987
C            0.14250651609786       -1.60810752534073       -2.66478375006546
O            0.89392157437489       -2.30991241742462       -0.47145755558632
C            0.15033782488441        0.00221213123603       -0.70882363448403
C            1.39761834944293        0.66794438112995       -0.62773914135827
O            1.54209647727631        1.87693695276627       -0.33768530270162
N            2.54762996910556       -0.08945419420256       -0.97280182082125
C            3.82964802774726        0.43530220602881       -0.51523503700033
C            4.00361954583539        0.20336463066639        0.97151356115821
C            3.57116695444177        1.15640422649121        1.89244891651344
C            3.68181758609164        0.92719860070370        3.25656766893352
C            4.22851586614967       -0.27127487356565        3.67721028022591
F            4.34010507240997       -0.50237691912980        5.00153372441893
C            4.66994587799518       -1.24026854873094        2.79579618374299
C            4.55024149822788       -0.99200853586620        1.43478952763529
N           -0.96058647679032        0.77569825185346       -0.56492122505426
C           -2.17123880833200        0.35117807250653       -0.62972340448937
C           -3.29397794465166        1.37324449610554       -0.52770396821857
C           -2.70629113724232        2.77201928208316       -0.79350565144743
C           -3.93547240601799        1.36873570274370        0.87053551408452
N           -4.34061593083044        1.09552276775021       -1.51977401923057
H           -3.82028809788672       -2.60106910510202       -0.93692209255263
H           -3.92541541500492       -1.73998001150851        0.61062194606883
H           -4.53663936117828       -0.97899890541518       -0.88329983583884
H           -0.59700023473082       -0.99976988165399       -3.18298171981168
H            1.14059360163101       -1.28668356469150       -2.95907635060815
H            0.00722153383778       -2.65276412232475       -2.94170579672159
H            0.45733399954317       -3.17355894913021       -0.37540788035729
H            2.46674115853192       -1.08124914810478       -0.78141310083649
H            3.87414601485680        1.50549629730385       -0.74408752941862
H            4.62269089769343       -0.07510698260905       -1.07064728782866
H            3.14165674875496        2.08769485487123        1.53844227141458
H            3.35552654402826        1.66089785518045        3.98242296569249
H            5.09836008995782       -2.16209113158323        3.16615369651476
H            4.89387937863137       -1.73900346160978        0.72818511347964
H           -3.49864793796955        3.51818863383196       -0.75467739332098
H           -2.24324449237489        2.80206897144815       -1.77961467215081
H           -1.95034561793734        3.01467694320330       -0.04605013615287
H           -4.46830240982591        0.43814807831337        1.05601895764277
H           -3.16621545205166        1.49148433451244        1.63321341076630
H           -4.64708658523781        2.18994180469401        0.95613904587229
H           -3.97880532712085        1.25762336067093       -2.45104633242342
H           -5.10589776568048        1.73892363528856       -1.37858632110923

          :  Hamiltonian                  GFN1-xTB          :
         :: total energy             -80.227304820439 Eh    ::
         :: gradient norm              0.000503350139 Eh/a0 ::
         :: HOMO-LUMO gap              1.618383962198 eV    ::
         :: SCC energy               -81.083224199638 Eh    ::
         :: -> Gsolv                  -0.106354390166 Eh    ::
         :: repulsion energy           0.887087753516 Eh    ::

    * Orbital Energies and Occupations

         #    Occupation            Energy/Eh            Energy/eV
      -------------------------------------------------------------
         1        2.0000           -0.8519147             -23.1818
       ...           ...                  ...                  ...
        56        2.0000           -0.4602861             -12.5250
        57        2.0000           -0.4549137             -12.3788
        58        2.0000           -0.4520487             -12.3009
        59        2.0000           -0.4435306             -12.0691
        60        2.0000           -0.4361685             -11.8687
        61        2.0000           -0.4222704             -11.4906
        62        2.0000           -0.4118829             -11.2079
        63        2.0000           -0.4088564             -11.1255
        64        2.0000           -0.3963770             -10.7860
        65        2.0000           -0.3931392             -10.6979
        66        2.0000           -0.3805272             -10.3547
        67        2.0000           -0.3730170             -10.1503
        68        2.0000           -0.3176507              -8.6437 (HOMO)
        69                         -0.2581761              -7.0253 (LUMO)
        70                         -0.2500050              -6.8030
        71                         -0.2348959              -6.3918
        72                         -0.1946117              -5.2957
        73                         -0.1374297              -3.7397
        74                         -0.1294122              -3.5215
        75                         -0.1168184              -3.1788
        76                         -0.1066822              -2.9030
        77                         -0.1009024              -2.7457
        78                         -0.0997591              -2.7146
        79                         -0.0977804              -2.6607
       ...                                ...                  ...
       144                          0.6771009              18.4249
      -------------------------------------------------------------
                  HL-Gap            0.0594745 Eh            1.6184 eV

Wiberg/Mayer (AO) data.
largest (>0.10) Wiberg bond orders for each atom

     #   Z sym  total        # sym  WBO       # sym  WBO       # sym  WBO
 ---------------------------------------------------------------------------
     1   6 C    3.949 --    26 H    0.981    27 H    0.981    28 H    0.975
                             2 N    0.945
     2   7 N    3.432 --     3 C    1.267    21 C    0.964     1 C    0.945
                             4 O    0.145
     3   6 C    3.896 --     4 O    1.524     2 N    1.267     5 C    0.940
     4   8 O    1.855 --     3 C    1.524     2 N    0.145
     5   6 C    3.905 --     8 C    0.971     6 C    0.959     3 C    0.940
                             7 O    0.935
     6   6 C    3.995 --    29 H    0.988    31 H    0.986    30 H    0.984
                             5 C    0.959
     7   8 O    1.902 --     5 C    0.935    32 H    0.842
     8   6 C    3.855 --     9 C    1.282    20 N    1.222     5 C    0.971
                            21 C    0.117    10 O    0.101
     9   6 C    3.912 --    10 O    1.451     8 C    1.282    11 N    1.043
    10   8 O    1.774 --     9 C    1.451     8 C    0.101
    11   7 N    3.153 --     9 C    1.043    12 C    0.966    33 H    0.914
    12   6 C    3.973 --    13 C    0.995    35 H    0.979    34 H    0.974
                            11 N    0.966
    13   6 C    3.986 --    19 C    1.417    14 C    1.413    12 C    0.995
    14   6 C    3.992 --    15 C    1.444    13 C    1.413    36 H    0.968
                            18 C    0.111
    15   6 C    3.992 --    14 C    1.444    16 C    1.401    37 H    0.971
                            19 C    0.109
    16   6 C    3.855 --    18 C    1.404    15 C    1.401    17 F    0.912
    17   9 F    1.036 --    16 C    0.912
    18   6 C    3.992 --    19 C    1.440    16 C    1.404    38 H    0.971
                            14 C    0.111
    19   6 C    3.994 --    18 C    1.440    13 C    1.417    39 H    0.972
                            15 C    0.109
    20   7 N    3.067 --    21 C    1.611     8 C    1.222
    21   6 C    3.891 --    20 N    1.611    22 C    0.982     2 N    0.964
                             8 C    0.117
    22   6 C    3.963 --    23 C    0.991    24 C    0.988    21 C    0.982
                            25 N    0.972
    23   6 C    3.996 --    22 C    0.991    40 H    0.987    41 H    0.985
                            42 H    0.983
    24   6 C    3.992 --    22 C    0.988    44 H    0.987    45 H    0.985
                            43 H    0.982
    25   7 N    2.989 --    22 C    0.972    47 H    0.948    46 H    0.948
    26   1 H    1.016 --     1 C    0.981
    27   1 H    1.009 --     1 C    0.981
    28   1 H    1.036 --     1 C    0.975
    29   1 H    1.011 --     6 C    0.988
    30   1 H    1.016 --     6 C    0.984
    31   1 H    1.008 --     6 C    0.986
    32   1 H    0.890 --     7 O    0.842
    33   1 H    0.976 --    11 N    0.914
    34   1 H    1.023 --    12 C    0.974
    35   1 H    1.012 --    12 C    0.979
    36   1 H    1.022 --    14 C    0.968
    37   1 H    1.001 --    15 C    0.971
    38   1 H    1.000 --    18 C    0.971
    39   1 H    1.001 --    19 C    0.972
    40   1 H    1.007 --    23 C    0.987
    41   1 H    1.015 --    23 C    0.985
    42   1 H    1.021 --    23 C    0.983
    43   1 H    1.009 --    24 C    0.982
    44   1 H    1.009 --    24 C    0.987
    45   1 H    1.003 --    24 C    0.985
    46   1 H    0.966 --    25 N    0.948
    47   1 H    0.963 --    25 N    0.948
 ---------------------------------------------------------------------------

           -------------------------------------------------
          | TOTAL ENERGY              -80.227304820439 Eh   |
          | GRADIENT NORM               0.000503350139 Eh/α |
          | HOMO-LUMO GAP               1.618383962198 eV   |
           -------------------------------------------------

 * finished run on 2023/06/20 at 15:10:39.153
