   * xtb version 6.5.1 (579679a) compiled by 'ehlert@majestix' on 2022-07-11
          program call               : /lustre/hpc/kemi/ree/PhD/git/ReactivityQM/dep/xtb-6.5.1/bin/xtb --gfn 1 /lustre/hpc/kemi/ree/PhD/git/ReactivityQM/calculations/R02deprot/reac01/conf10/R02deprot_reac01_conf10_gfn1.xyz --opt --vfukui --chrg -1 --uhf 0 --alpb DMSO

   ID    Z sym.   atoms
    1    6 C      1, 3, 5, 7-10, 12, 14, 17, 18, 21, 23
    2    8 O      2, 4, 13, 19, 22, 24
    3    7 N      6, 11, 15, 16, 20
    4    1 H      25-38

      * Solvation model:               ALPB
        Solvent                        DMSO
        Solvent mass                       7.8130E+01 g/mol
          :  Hamiltonian                  GFN1-xTB          :
 * total energy  :   -79.5957627 Eh     change       -0.3110756E-10 Eh
 * total energy  :   -79.6072235 Eh     change       -0.1146084E-01 Eh
 * total energy  :   -79.6115121 Eh     change       -0.4288543E-02 Eh
 * total energy  :   -79.6123192 Eh     change       -0.8070955E-03 Eh
 * total energy  :   -79.6127585 Eh     change       -0.4393532E-03 Eh
 * total energy  :   -79.6128982 Eh     change       -0.1396490E-03 Eh
 * total energy  :   -79.6129774 Eh     change       -0.7921022E-04 Eh
 * total energy  :   -79.6130272 Eh     change       -0.4983805E-04 Eh
 * total energy  :   -79.6130724 Eh     change       -0.4515576E-04 Eh
 * total energy  :   -79.6131272 Eh     change       -0.5478140E-04 Eh
 * total energy  :   -79.6172135 Eh     change       -0.1129068E-04 Eh
 * total energy  :   -79.6172198 Eh     change       -0.6342010E-05 Eh
 * total energy  :   -79.6172265 Eh     change       -0.6696894E-05 Eh
 * total energy  :   -79.6172332 Eh     change       -0.6670545E-05 Eh
 * total energy  :   -79.6172399 Eh     change       -0.6705135E-05 Eh
 * total energy  :   -79.6172467 Eh     change       -0.6805860E-05 Eh
 * total energy  :   -79.6172536 Eh     change       -0.6928178E-05 Eh
 * total energy  :   -79.6172598 Eh     change       -0.6225328E-05 Eh
 * total energy  :   -79.6172644 Eh     change       -0.4581586E-05 Eh
   *** GEOMETRY OPTIMIZATION CONVERGED AFTER 75 ITERATIONS ***

 final structure:
================
38
 xtb: 6.5.1 (579679a)
C            3.60662398852510        4.04943117339166       -1.10298568050594
O            3.61377077601833        2.76419459794770       -0.48878172888502
C            2.44751699737797        2.09566671311257       -0.49536889364517
O            1.44250816505960        2.56698196313791       -0.99319354859281
C            2.51809477658922        0.76618689903444        0.14820506865906
N            1.32821302323998        0.08265263349452        0.16534722055573
C            1.31560882398869       -1.11003583533981        0.71342743084237
C           -0.00744018699090       -1.86739383631764        0.72512225594209
C           -0.37232754801481       -2.22689894585360        2.17140090457087
C            0.13463913764906       -3.13429000068468       -0.13017175167998
N           -1.02233702842693       -0.98523291010955        0.15377657867579
C           -2.30820265790015       -1.30523268321235       -0.01554254729706
O           -2.83164108202805       -2.37029074103673        0.28298959740626
C           -3.06772075588022       -0.17641695994249       -0.62915940573260
N           -2.58905869129955        0.98254016318550       -0.96346297098167
N           -3.62703367856080        1.70444635794721       -1.47901581041677
C           -4.67103841520843        0.93782429943415       -1.42514283881182
C           -6.04770497078256        1.25420033574348       -1.86614090271678
O           -4.38521563993386       -0.26310859765563       -0.89882416770254
N            2.33788764374935       -1.76246160577081        1.26737849439431
C            3.54634335351525       -1.15443524173770        1.29263155162582
O            4.57897797075550       -1.65531382142645        1.77948415179479
C            3.62971351263467        0.18606762164110        0.69927536864871
O            4.85699141575598        0.74890731694545        0.75132280756205
H            2.88360072608503        4.70573065681299       -0.60993916170710
H            3.34639706698183        3.96513334654432       -2.16199184870304
H            4.61098930747989        4.45564634701632       -0.99782942739208
H           -1.28133071671301       -2.82515049195594        2.20185202607618
H            0.44694814562410       -2.79661013259953        2.60896688520545
H           -0.52308737756194       -1.31957608028774        2.75544800955089
H            0.31245570896226       -2.86435015495000       -1.17054710555290
H            0.98262454666745       -3.71237125816860        0.23552895999726
H           -0.76581497892556       -3.74318055881409       -0.06977184242004
H           -0.68721603237591       -0.06739590975203       -0.13667894640943
H           -6.35126430739842        0.57179172065634       -2.65979928993271
H           -6.08870777382070        2.27698598060313       -2.23204437789574
H           -6.74303774868792        1.13500210190164       -1.03576510677618
H            5.43027350386215        0.09035553705176        1.20004104225648

          :  Hamiltonian                  GFN1-xTB          :
         :: total energy             -79.617264431254 Eh    ::
         :: gradient norm              0.000797668388 Eh/a0 ::
         :: HOMO-LUMO gap              2.084134593620 eV    ::
         :: SCC energy               -80.337255701055 Eh    ::
         :: -> Gsolv                  -0.108006873206 Eh    ::
         :: repulsion energy           0.742668131658 Eh    ::

    * Orbital Energies and Occupations

         #    Occupation            Energy/Eh            Energy/eV
      -------------------------------------------------------------
         1        2.0000           -0.8556311             -23.2829
       ...           ...                  ...                  ...
        52        2.0000           -0.4753401             -12.9347
        53        2.0000           -0.4743756             -12.9084
        54        2.0000           -0.4720739             -12.8458
        55        2.0000           -0.4538913             -12.3510
        56        2.0000           -0.4516613             -12.2903
        57        2.0000           -0.4506882             -12.2638
        58        2.0000           -0.4409843             -11.9998
        59        2.0000           -0.4382842             -11.9263
        60        2.0000           -0.4315075             -11.7419
        61        2.0000           -0.4190228             -11.4022
        62        2.0000           -0.4058428             -11.0435
        63        2.0000           -0.3758558             -10.2276
        64        2.0000           -0.3737864             -10.1712 (HOMO)
        65                         -0.2971959              -8.0871 (LUMO)
        66                         -0.2786922              -7.5836
        67                         -0.2499484              -6.8014
        68                         -0.2302230              -6.2647
        69                         -0.1918845              -5.2214
        70                         -0.1854777              -5.0471
        71                         -0.1401424              -3.8135
        72                         -0.1294880              -3.5235
        73                         -0.1094130              -2.9773
        74                         -0.1054382              -2.8691
        75                         -0.1038926              -2.8271
       ...                                ...                  ...
       124                          0.7399113              20.1340
      -------------------------------------------------------------
                  HL-Gap            0.0765905 Eh            2.0841 eV

Wiberg/Mayer (AO) data.
largest (>0.10) Wiberg bond orders for each atom

     #   Z sym  total        # sym  WBO       # sym  WBO       # sym  WBO
 ---------------------------------------------------------------------------
     1   6 C    3.888 --    27 H    0.987    26 H    0.980    25 H    0.980
                             2 O    0.913
     2   8 O    2.183 --     3 C    1.083     1 C    0.913     4 O    0.123
     3   6 C    3.838 --     4 O    1.630     2 O    1.083     5 C    1.030
     4   8 O    1.893 --     3 C    1.630     2 O    0.123
     5   6 C    3.961 --    23 C    1.483     6 N    1.190     3 C    1.030
     6   7 N    3.026 --     7 C    1.473     5 C    1.190
     7   6 C    3.958 --     6 N    1.473    20 N    1.358     8 C    0.971
     8   6 C    3.929 --     9 C    0.985    10 C    0.983     7 C    0.971
                            11 N    0.922
     9   6 C    3.993 --    30 H    0.987     8 C    0.985    29 H    0.984
                            28 H    0.984
    10   6 C    3.993 --    31 H    0.987    32 H    0.984    33 H    0.983
                             8 C    0.983
    11   7 N    3.385 --    12 C    1.301     8 C    0.922    34 H    0.874
                            13 O    0.188
    12   6 C    3.924 --    13 O    1.563    11 N    1.301    14 C    0.980
    13   8 O    1.883 --    12 C    1.563    11 N    0.188
    14   6 C    3.869 --    15 N    1.621    19 O    1.060    12 C    0.980
    15   7 N    3.011 --    14 C    1.621    16 N    1.191
    16   7 N    2.980 --    17 C    1.615    15 N    1.191
    17   6 C    3.874 --    16 N    1.615    19 O    1.080    18 C    1.030
    18   6 C    3.988 --    17 C    1.030    36 H    0.983    37 H    0.966
                            35 H    0.964
    19   8 O    2.323 --    17 C    1.080    14 C    1.060
    20   7 N    2.984 --     7 C    1.358    21 C    1.255    22 O    0.125
    21   6 C    3.930 --    22 O    1.471    20 N    1.255    23 C    1.068
    22   8 O    1.809 --    21 C    1.471    20 N    0.125
    23   6 C    3.906 --     5 C    1.483    24 O    1.073    21 C    1.068
    24   8 O    2.049 --    23 C    1.073    38 H    0.813
    25   1 H    1.011 --     1 C    0.980
    26   1 H    1.011 --     1 C    0.980
    27   1 H    1.013 --     1 C    0.987
    28   1 H    1.011 --     9 C    0.984
    29   1 H    1.016 --     9 C    0.984
    30   1 H    1.006 --     9 C    0.987
    31   1 H    1.005 --    10 C    0.987
    32   1 H    1.014 --    10 C    0.984
    33   1 H    1.012 --    10 C    0.983
    34   1 H    0.982 --    11 N    0.874
    35   1 H    0.998 --    18 C    0.964
    36   1 H    0.999 --    18 C    0.983
    37   1 H    0.998 --    18 C    0.966
    38   1 H    0.875 --    24 O    0.813
 ---------------------------------------------------------------------------

           -------------------------------------------------
          | TOTAL ENERGY              -79.617264431254 Eh   |
          | GRADIENT NORM               0.000797668388 Eh/α |
          | HOMO-LUMO GAP               2.084134593620 eV   |
           -------------------------------------------------

 * finished run on 2023/06/20 at 17:32:17.625
