   * xtb version 6.5.1 (579679a) compiled by 'ehlert@majestix' on 2022-07-11
          program call               : /lustre/hpc/kemi/ree/PhD/git/ReactivityQM/dep/xtb-6.5.1/bin/xtb --gfn 1 /lustre/hpc/kemi/ree/PhD/git/ReactivityQM/calculations/R02oxygendeprot/reac01prodE02/conf07/R02oxygendeprot_reac01prodE02_conf07_gfn1.xyz --opt --vfukui --chrg -2 --uhf 0 --alpb DMSO

   ID    Z sym.   atoms
    1    6 C      1, 3, 4, 6, 8-11, 13, 15, 18, 19, 22, 24
    2    8 O      2, 5, 14, 20, 23, 25
    3    7 N      7, 12, 16, 17, 21
    4    1 H      26-42

      * Solvation model:               ALPB
        Solvent                        DMSO
        Solvent mass                       7.8130E+01 g/mol
          :  Hamiltonian                  GFN1-xTB          :
 * total energy  :   -83.5960975 Eh     change       -0.7668177E-09 Eh
 * total energy  :   -83.6097323 Eh     change       -0.1363480E-01 Eh
 * total energy  :   -83.6158587 Eh     change       -0.6126377E-02 Eh
 * total energy  :   -83.6173937 Eh     change       -0.1535042E-02 Eh
 * total energy  :   -83.6184329 Eh     change       -0.1039150E-02 Eh
 * total energy  :   -83.6190403 Eh     change       -0.6074371E-03 Eh
 * total energy  :   -83.6195489 Eh     change       -0.5085741E-03 Eh
 * total energy  :   -83.6199612 Eh     change       -0.4123330E-03 Eh
 * total energy  :   -83.6202634 Eh     change       -0.3021293E-03 Eh
 * total energy  :   -83.6205609 Eh     change       -0.2975299E-03 Eh
 * total energy  :   -83.6244940 Eh     change       -0.6797952E-05 Eh
 * total energy  :   -83.6245116 Eh     change       -0.1763279E-04 Eh
 * total energy  :   -83.6245191 Eh     change       -0.7480924E-05 Eh
 * total energy  :   -83.6245305 Eh     change       -0.1139740E-04 Eh
 * total energy  :   -83.6245442 Eh     change       -0.1373045E-04 Eh
 * total energy  :   -83.6245542 Eh     change       -0.1003313E-04 Eh
 * total energy  :   -83.6245489 Eh     change        0.5336090E-05 Eh
 * total energy  :   -83.6245648 Eh     change       -0.1591151E-04 Eh
 * total energy  :   -83.6245674 Eh     change       -0.2584342E-05 Eh
   *** GEOMETRY OPTIMIZATION CONVERGED AFTER 80 ITERATIONS ***

 final structure:
================
42
 xtb: 6.5.1 (579679a)
C           -1.31966212816562        2.42017989358584       -0.66626141949437
O           -1.97002069978940        1.85637957993658        0.43535655088700
C           -3.22187262795824        1.01480229928627        0.05522558178251
C           -4.07471947189855        1.18758597996092        1.36487982041185
O           -3.79074228422627        1.43228764123622       -1.02818790917802
C           -2.70019637035996       -0.47530547209727        0.00533499664136
N           -1.35157003046332       -0.64215548885450       -0.08778798988230
C           -0.82420833973604       -1.81798245271628       -0.19353902699378
C            0.68280823031129       -1.98981342827689       -0.26688579527491
C            1.09923077251405       -2.54295960900818       -1.63826542670114
C            1.18349200611805       -2.90708909335949        0.85907752370071
N            1.23635428048320       -0.64956439543103       -0.08382897356281
C            2.53495918440989       -0.34491973514713       -0.07694948130020
O            3.46201904557780       -1.12801185948136       -0.24379881527377
C            2.74906686113635        1.11060203333023        0.17527009733254
N            1.83122147358205        2.00334598728634        0.38134151796780
N            2.47206869719634        3.19050556401238        0.58479051151716
C            3.74048169159542        2.94479681970131        0.49091275950232
C            4.85826685774836        3.90299753060985        0.63686004524619
O            3.98345435344242        1.65031044332560        0.23370518109324
N           -1.60936322882658       -2.94607930946670       -0.24288615523464
C           -2.98419373550134       -2.91561365909546       -0.15426193022838
O           -3.60179120581426       -3.99483319841587       -0.20448477995551
C           -3.59765958976427       -1.56315536051446       -0.00423854844369
O           -4.85887551423915       -1.48332915507352        0.11494685024616
H           -0.58623329287495        3.14957556074275       -0.30064006543146
H           -0.77427406269555        1.66631045450606       -1.26443884862806
H           -2.01568744464667        2.94740981244616       -1.34312747229312
H           -4.99808620483564        0.61796401780528        1.27184306316436
H           -4.31941636569966        2.24369598940791        1.47935665180253
H           -3.51929334123748        0.84930148547483        2.23974714279228
H            2.17868936444333       -2.67506311652913       -1.68280906719046
H            0.62282549349647       -3.50766793978193       -1.80180692267056
H            0.79135464206924       -1.85737983205155       -2.42701348175325
H            0.75236501518608       -3.89964344419058        0.74603843842166
H            2.26762372110355       -2.99483874041386        0.82054408875721
H            0.89309235656446       -2.50268874259229        1.82824295174093
H            0.53693567003834        0.08512459324456        0.06000711768763
H            4.46639062003411        4.88913386311745        0.87252355957936
H            5.43311266109371        3.95200484086897       -0.28734702457083
H            5.52798789253166        3.57696856121953        1.43177691831768
H           -1.18593895192807       -3.85319191861280       -0.32882923452330

          :  Hamiltonian                  GFN1-xTB          :
         :: total energy             -83.624567397033 Eh    ::
         :: gradient norm              0.000570132507 Eh/a0 ::
         :: HOMO-LUMO gap              0.441882459321 eV    ::
         :: SCC energy               -84.361444673867 Eh    ::
         :: -> Gsolv                  -0.308484040719 Eh    ::
         :: repulsion energy           0.763937934041 Eh    ::

    * Orbital Energies and Occupations

         #    Occupation            Energy/Eh            Energy/eV
      -------------------------------------------------------------
         1        2.0000           -0.8527519             -23.2046
       ...           ...                  ...                  ...
        56        2.0000           -0.4421302             -12.0310
        57        2.0000           -0.4374254             -11.9030
        58        2.0000           -0.4328019             -11.7771
        59        2.0000           -0.4266006             -11.6084
        60        2.0000           -0.4167051             -11.3391
        61        2.0000           -0.4116109             -11.2005
        62        2.0000           -0.4028068             -10.9609
        63        2.0000           -0.3847565             -10.4698
        64        2.0000           -0.3806563             -10.3582
        65        2.0000           -0.3475278              -9.4567
        66        2.0000           -0.3346622              -9.1066
        67        2.0000           -0.3151904              -8.5768
        68        1.9996           -0.3102404              -8.4421 (HOMO)
        69        0.0004           -0.2940015              -8.0002 (LUMO)
        70                         -0.2467835              -6.7153
        71                         -0.2178388              -5.9277
        72                         -0.2026661              -5.5148
        73                         -0.1823120              -4.9610
        74                         -0.1386674              -3.7733
        75                         -0.1156509              -3.1470
        76                         -0.1077990              -2.9334
        77                         -0.0884480              -2.4068
        78                         -0.0836437              -2.2761
        79                         -0.0820222              -2.2319
       ...                                ...                  ...
       134                          0.7434274              20.2297
      -------------------------------------------------------------
                  HL-Gap            0.0162389 Eh            0.4419 eV

Wiberg/Mayer (AO) data.
largest (>0.10) Wiberg bond orders for each atom

     #   Z sym  total        # sym  WBO       # sym  WBO       # sym  WBO
 ---------------------------------------------------------------------------
     1   6 C    3.946 --     2 O    0.992    26 H    0.982    27 H    0.975
                            28 H    0.972
     2   8 O    1.919 --     1 C    0.992     3 C    0.740
     3   6 C    3.887 --     5 O    1.256     4 C    0.932     6 C    0.906
                             2 O    0.740
     4   6 C    3.987 --    31 H    0.991    30 H    0.988    29 H    0.983
                             3 C    0.932
     5   8 O    1.532 --     3 C    1.256
     6   6 C    3.922 --    24 C    1.334     7 N    1.248     3 C    0.906
                            25 O    0.136
     7   7 N    3.075 --     8 C    1.537     6 C    1.248
     8   6 C    3.924 --     7 N    1.537    21 N    1.107     9 C    0.976
     9   6 C    3.932 --    11 C    0.984    10 C    0.983     8 C    0.976
                            12 N    0.925
    10   6 C    3.992 --    34 H    0.986    33 H    0.985     9 C    0.983
                            32 H    0.982
    11   6 C    3.992 --    37 H    0.986     9 C    0.984    35 H    0.984
                            36 H    0.982
    12   7 N    3.391 --    13 C    1.306     9 C    0.925    38 H    0.869
                            14 O    0.188
    13   6 C    3.925 --    14 O    1.557    12 N    1.306    15 C    0.980
    14   8 O    1.880 --    13 C    1.557    12 N    0.188
    15   6 C    3.869 --    16 N    1.621    20 O    1.058    13 C    0.980
    16   7 N    3.020 --    15 C    1.621    17 N    1.191
    17   7 N    2.982 --    18 C    1.616    16 N    1.191
    18   6 C    3.875 --    17 N    1.616    20 O    1.080    19 C    1.030
    19   6 C    3.988 --    18 C    1.030    39 H    0.983    41 H    0.966
                            40 H    0.964
    20   8 O    2.321 --    18 C    1.080    15 C    1.058
    21   7 N    3.418 --    22 C    1.139     8 C    1.107    42 H    0.907
                            23 O    0.126
    22   6 C    3.879 --    23 O    1.499    21 N    1.139    24 C    1.027
    23   8 O    1.793 --    22 C    1.499    21 N    0.126
    24   6 C    3.956 --    25 O    1.404     6 C    1.334    22 C    1.027
    25   8 O    1.737 --    24 C    1.404     6 C    0.136
    26   1 H    1.034 --     1 C    0.982
    27   1 H    1.036 --     1 C    0.975
    28   1 H    1.041 --     1 C    0.972
    29   1 H    1.038 --     4 C    0.983
    30   1 H    1.024 --     4 C    0.988
    31   1 H    1.017 --     4 C    0.991
    32   1 H    1.011 --    10 C    0.982
    33   1 H    1.004 --    10 C    0.985
    34   1 H    1.006 --    10 C    0.986
    35   1 H    1.004 --    11 C    0.984
    36   1 H    1.011 --    11 C    0.982
    37   1 H    1.006 --    11 C    0.986
    38   1 H    0.984 --    12 N    0.869
    39   1 H    1.000 --    19 C    0.983
    40   1 H    0.998 --    19 C    0.964
    41   1 H    0.998 --    19 C    0.966
    42   1 H    0.960 --    21 N    0.907
 ---------------------------------------------------------------------------

           -------------------------------------------------
          | TOTAL ENERGY              -83.624567397033 Eh   |
          | GRADIENT NORM               0.000570132507 Eh/α |
          | HOMO-LUMO GAP               0.441882459321 eV   |
           -------------------------------------------------

 * finished run on 2023/06/21 at 17:02:30.638
