   * xtb version 6.5.1 (579679a) compiled by 'ehlert@majestix' on 2022-07-11
          program call               : /lustre/hpc/kemi/ree/PhD/git/ReactivityQM/dep/xtb-6.5.1/bin/xtb --gfn 1 /lustre/hpc/kemi/ree/PhD/git/ReactivityQM/calculations/RaltegravirCLI/reac02prodE04/conf03/RaltegravirCLI_reac02prodE04_conf03_gfn1.xyz --opt --vfukui --chrg -1 --uhf 0 --alpb DMSO

   ID    Z sym.   atoms
    1    6 C      1, 3, 5, 7-9, 12-16, 18, 19, 21-24
    2    7 N      2, 11, 20, 25
    3    8 O      4, 6, 10
    4    9 F      17
    5    1 H      26-47

      * Solvation model:               ALPB
        Solvent                        DMSO
        Solvent mass                       7.8130E+01 g/mol
          :  Hamiltonian                  GFN1-xTB          :
 * total energy  :   -80.1901741 Eh     change       -0.2287948E-10 Eh
 * total energy  :   -80.2049803 Eh     change       -0.1480623E-01 Eh
 * total energy  :   -80.2086120 Eh     change       -0.3631658E-02 Eh
 * total energy  :   -80.2092034 Eh     change       -0.5913750E-03 Eh
 * total energy  :   -80.2096466 Eh     change       -0.4432354E-03 Eh
 * total energy  :   -80.2097786 Eh     change       -0.1319765E-03 Eh
 * total energy  :   -80.2099016 Eh     change       -0.1230008E-03 Eh
 * total energy  :   -80.2099870 Eh     change       -0.8541315E-04 Eh
 * total energy  :   -80.2100642 Eh     change       -0.7723260E-04 Eh
 * total energy  :   -80.2101275 Eh     change       -0.6329013E-04 Eh
 * total energy  :   -80.2107271 Eh     change       -0.3399344E-04 Eh
 * total energy  :   -80.2107483 Eh     change       -0.2124477E-04 Eh
 * total energy  :   -80.2107613 Eh     change       -0.1299938E-04 Eh
 * total energy  :   -80.2107674 Eh     change       -0.6108460E-05 Eh
 * total energy  :   -80.2107796 Eh     change       -0.1212517E-04 Eh
 * total energy  :   -80.2107707 Eh     change        0.8848381E-05 Eh
 * total energy  :   -80.2107973 Eh     change       -0.2658434E-04 Eh
 * total energy  :   -80.2108054 Eh     change       -0.8109892E-05 Eh
 * total energy  :   -80.2108103 Eh     change       -0.4881420E-05 Eh
   *** GEOMETRY OPTIMIZATION CONVERGED AFTER 45 ITERATIONS ***

 final structure:
================
47
 xtb: 6.5.1 (579679a)
C           -4.00021227410173       -1.50481411287384       -0.91677635751481
N           -2.69597929336835       -0.87493173763822       -1.06960445806017
C           -1.70177977812895       -1.65124202140213       -1.82001579542709
O           -2.08749664681892       -2.69647929330486       -2.43143832478235
C           -0.45613434064233       -1.11829688039050       -1.81889278424379
O            0.59923351507597       -1.79054361531267       -2.50758147678894
C           -0.03995472226320        0.05906907862754       -0.99791614116897
C            0.96105104063522        0.96736675456993       -1.74519595026619
C            0.65309884473429       -0.40578835632718        0.31473085206527
O            0.33108455131757       -0.01865967875550        1.43461731427959
N            1.62443597782545       -1.32901325904663        0.13226386875356
C            2.43882022102456       -1.79894012861536        1.24140343173463
C            3.69490065136231       -0.96341804745811        1.37772468330967
C            3.60627332372647        0.36165120655276        1.80310220563082
C            4.74512243508663        1.14527103360900        1.91602589541054
C            5.96599540996150        0.57827870125122        1.59646950697196
F            7.07597331852465        1.33116173284914        1.70488604236808
C            6.09201842057426       -0.73128866637687        1.17351465008615
C            4.94037386419147       -1.50035504015618        1.06440124499769
N           -1.19138347932895        0.86879036940034       -0.63130262825814
C           -2.38130422936217        0.37687583100214       -0.63386860241431
C           -3.45746449635704        1.32857956174033       -0.08754681796829
C           -2.86354491359379        2.74148578871350        0.05679089668785
C           -3.92659528900522        0.85543512502911        1.29541839188878
N           -4.60914846855592        1.38771736717713       -0.99328689971943
H           -4.07602791796058       -2.32074637889371       -1.64101935667524
H           -4.11208724349183       -1.92663332343461        0.08769891915746
H           -4.80984285581490       -0.79952542684221       -1.10192532051208
H            0.19324743582846       -2.56376594580168       -2.92904649813024
H            1.22951461701487        1.81819306900035       -1.11923859912957
H            0.49913604749111        1.33608561631681       -2.66078509381735
H            1.86211622723856        0.41255769545668       -2.00189769815321
H            1.92179400006620       -1.58781906843350       -0.79697709969456
H            2.69657771714576       -2.84682800326760        1.06818544063060
H            1.84016682945490       -1.72597334951511        2.15658607559615
H            2.63768416576589        0.78360464683615        2.04989842934511
H            4.69272982858877        2.17445618033090        2.24646469753530
H            7.06576686030611       -1.13838534966691        0.93669990948455
H            5.01978230893580       -2.53020216357114        0.73581789853298
H           -3.63713442790737        3.43071542764524        0.39314473421245
H           -2.47575665402631        3.08723962034623       -0.90082049785448
H           -2.04848713673051        2.74079429109565        0.78053727762054
H           -4.49251228058587       -0.07141997174636        1.22795348452698
H           -3.06476913520856        0.69616173545459        1.94431690300199
H           -4.56836786680687        1.61116707926688        1.74773851860847
H           -4.34879099633914        1.87823433074655       -1.83950110387819
H           -5.34212416545750        1.92417857584169       -0.55233176798170

          :  Hamiltonian                  GFN1-xTB          :
         :: total energy             -80.210810298005 Eh    ::
         :: gradient norm              0.000682124683 Eh/a0 ::
         :: HOMO-LUMO gap              0.900862144323 eV    ::
         :: SCC energy               -81.072798393835 Eh    ::
         :: -> Gsolv                  -0.110346824365 Eh    ::
         :: repulsion energy           0.893383956989 Eh    ::

    * Orbital Energies and Occupations

         #    Occupation            Energy/Eh            Energy/eV
      -------------------------------------------------------------
         1        2.0000           -0.8589954             -23.3745
       ...           ...                  ...                  ...
        56        2.0000           -0.4613202             -12.5532
        57        2.0000           -0.4541837             -12.3590
        58        2.0000           -0.4454754             -12.1220
        59        2.0000           -0.4451220             -12.1124
        60        2.0000           -0.4393306             -11.9548
        61        2.0000           -0.4320869             -11.7577
        62        2.0000           -0.4157334             -11.3127
        63        2.0000           -0.4130113             -11.2386
        64        2.0000           -0.3942652             -10.7285
        65        2.0000           -0.3754451             -10.2164
        66        2.0000           -0.3718270             -10.1179
        67        2.0000           -0.3605632              -9.8114
        68        2.0000           -0.3004881              -8.1767 (HOMO)
        69                         -0.2673820              -7.2758 (LUMO)
        70                         -0.2602408              -7.0815
        71                         -0.2170705              -5.9068
        72                         -0.2066815              -5.6241
        73                         -0.1393709              -3.7925
        74                         -0.1247809              -3.3955
        75                         -0.1131555              -3.0791
        76                         -0.1119012              -3.0450
        77                         -0.1028894              -2.7998
        78                         -0.0981624              -2.6711
        79                         -0.0969541              -2.6383
       ...                                ...                  ...
       144                          0.6944646              18.8973
      -------------------------------------------------------------
                  HL-Gap            0.0331061 Eh            0.9009 eV

Wiberg/Mayer (AO) data.
largest (>0.10) Wiberg bond orders for each atom

     #   Z sym  total        # sym  WBO       # sym  WBO       # sym  WBO
 ---------------------------------------------------------------------------
     1   6 C    3.959 --    27 H    0.981    28 H    0.976    26 H    0.974
                             2 N    0.958
     2   7 N    3.368 --    21 C    1.201     1 C    0.958     3 C    0.899
                            20 N    0.170
     3   6 C    3.919 --     5 C    1.550     4 O    1.337     2 N    0.899
     4   8 O    1.701 --     3 C    1.337     5 C    0.178
     5   6 C    3.778 --     3 C    1.550     7 C    0.986     6 O    0.926
                             4 O    0.178
     6   8 O    1.926 --     5 C    0.926    29 H    0.855
     7   6 C    3.968 --     5 C    0.986    20 N    0.979     8 C    0.970
                             9 C    0.908
     8   6 C    3.997 --    30 H    0.988    32 H    0.986    31 H    0.985
                             7 C    0.970
     9   6 C    3.866 --    10 O    1.582    11 N    1.250     7 C    0.908
    10   8 O    1.869 --     9 C    1.582    11 N    0.154
    11   7 N    3.320 --     9 C    1.250    12 C    0.950    33 H    0.898
                            10 O    0.154
    12   6 C    3.959 --    13 C    0.994    34 H    0.978    35 H    0.967
                            11 N    0.950
    13   6 C    3.988 --    19 C    1.423    14 C    1.412    12 C    0.994
    14   6 C    3.992 --    15 C    1.449    13 C    1.412    36 H    0.969
                            18 C    0.112
    15   6 C    3.992 --    14 C    1.449    16 C    1.398    37 H    0.970
                            19 C    0.109
    16   6 C    3.858 --    18 C    1.406    15 C    1.398    17 F    0.919
    17   9 F    1.046 --    16 C    0.919
    18   6 C    3.991 --    19 C    1.437    16 C    1.406    38 H    0.970
                            14 C    0.112
    19   6 C    3.994 --    18 C    1.437    13 C    1.423    39 H    0.971
                            15 C    0.109
    20   7 N    2.976 --    21 C    1.642     7 C    0.979     2 N    0.170
    21   6 C    3.947 --    20 N    1.642     2 N    1.201    22 C    0.964
    22   6 C    3.963 --    23 C    0.993    24 C    0.991    25 N    0.975
                            21 C    0.964
    23   6 C    3.997 --    22 C    0.993    40 H    0.987    41 H    0.985
                            42 H    0.983
    24   6 C    3.996 --    22 C    0.991    44 H    0.986    45 H    0.985
                            43 H    0.982
    25   7 N    2.989 --    22 C    0.975    47 H    0.949    46 H    0.947
    26   1 H    1.027 --     1 C    0.974
    27   1 H    1.014 --     1 C    0.981
    28   1 H    1.035 --     1 C    0.976
    29   1 H    0.894 --     6 O    0.855
    30   1 H    1.012 --     8 C    0.988
    31   1 H    1.015 --     8 C    0.985
    32   1 H    1.012 --     8 C    0.986
    33   1 H    0.964 --    11 N    0.898
    34   1 H    1.005 --    12 C    0.978
    35   1 H    1.015 --    12 C    0.967
    36   1 H    1.011 --    14 C    0.969
    37   1 H    0.999 --    15 C    0.970
    38   1 H    0.999 --    18 C    0.970
    39   1 H    1.001 --    19 C    0.971
    40   1 H    1.007 --    23 C    0.987
    41   1 H    1.019 --    23 C    0.985
    42   1 H    1.022 --    23 C    0.983
    43   1 H    1.009 --    24 C    0.982
    44   1 H    1.007 --    24 C    0.986
    45   1 H    1.004 --    24 C    0.985
    46   1 H    0.965 --    25 N    0.947
    47   1 H    0.964 --    25 N    0.949
 ---------------------------------------------------------------------------

           -------------------------------------------------
          | TOTAL ENERGY              -80.210810298005 Eh   |
          | GRADIENT NORM               0.000682124683 Eh/α |
          | HOMO-LUMO GAP               0.900862144323 eV   |
           -------------------------------------------------

 * finished run on 2023/06/20 at 15:00:14.130
