   * xtb version 6.5.1 (579679a) compiled by 'ehlert@majestix' on 2022-07-11
          program call               : /lustre/hpc/kemi/ree/PhD/git/ReactivityQM/dep/xtb-6.5.1/bin/xtb --gfn 1 /lustre/hpc/kemi/ree/PhD/git/ReactivityQM/calculations/R02deprot/reac01prodN08/conf20/R02deprot_reac01prodN08_conf20_gfn1.xyz --opt --vfukui --chrg 0 --uhf 0 --alpb DMSO

   ID    Z sym.   atoms
    1    6 C      1, 3, 5, 7-10, 12, 14, 17-19, 22, 24
    2    8 O      2, 4, 13, 20, 23, 25
    3    7 N      6, 11, 15, 16, 21
    4    1 H      26-42

      * Solvation model:               ALPB
        Solvent                        DMSO
        Solvent mass                       7.8130E+01 g/mol
          :  Hamiltonian                  GFN1-xTB          :
 * total energy  :   -82.9481440 Eh     change       -0.1321041E-09 Eh
 * total energy  :   -82.9653628 Eh     change       -0.1721873E-01 Eh
 * total energy  :   -82.9714555 Eh     change       -0.6092723E-02 Eh
 * total energy  :   -82.9724643 Eh     change       -0.1008780E-02 Eh
 * total energy  :   -82.9731936 Eh     change       -0.7293885E-03 Eh
 * total energy  :   -82.9734756 Eh     change       -0.2819718E-03 Eh
 * total energy  :   -82.9737551 Eh     change       -0.2795152E-03 Eh
 * total energy  :   -82.9739744 Eh     change       -0.2193116E-03 Eh
 * total energy  :   -82.9741724 Eh     change       -0.1979830E-03 Eh
 * total energy  :   -82.9743847 Eh     change       -0.2122567E-03 Eh
 * total energy  :   -82.9765112 Eh     change       -0.2026792E-04 Eh
 * total energy  :   -82.9765315 Eh     change       -0.2029023E-04 Eh
 * total energy  :   -82.9765636 Eh     change       -0.3216016E-04 Eh
 * total energy  :   -82.9765872 Eh     change       -0.2355424E-04 Eh
 * total energy  :   -82.9766058 Eh     change       -0.1865163E-04 Eh
 * total energy  :   -82.9766238 Eh     change       -0.1790973E-04 Eh
 * total energy  :   -82.9766394 Eh     change       -0.1560220E-04 Eh
 * total energy  :   -82.9766508 Eh     change       -0.1142852E-04 Eh
 * total energy  :   -82.9766555 Eh     change       -0.4684557E-05 Eh
   *** GEOMETRY OPTIMIZATION CONVERGED AFTER 68 ITERATIONS ***

 final structure:
================
42
 xtb: 6.5.1 (579679a)
C           -3.15920282301931        3.37056985545808       -2.51083197861760
O           -3.38080747415836        2.05865567043882       -1.99826887978667
C           -2.32675893646345        1.46254252530484       -1.42198980295256
O           -1.23985414355955        2.00565162287574       -1.34370819187464
C           -2.61537522721998        0.11047109613515       -0.89784633559245
N           -1.54059901262227       -0.48692085237065       -0.28899634404208
C           -1.70490352221878       -1.68719557963969        0.21705920781144
C           -0.49054869890827       -2.31028076041644        0.89600296835189
C           -0.81234519653123       -2.60027760473920        2.36597582892905
C           -0.07916094224802       -3.58940313110159        0.15820523593139
N            0.57706488114399       -1.31116376035671        0.79735986406891
C            1.80363725861701       -1.43036160674017        1.27908384961951
O            2.28376818440256       -2.36569597506020        1.89545536498657
C            2.63935593701082       -0.20741425608602        0.97594211479280
N            3.86551047669227        0.03082529039135        1.33575776385544
N            4.15122908030499        1.23951132170919        0.81360134077730
C            5.45601218565862        1.83152422061399        1.01467304152977
C            3.11030818103507        1.70496617695199        0.15479252293820
C            2.96749765004452        2.97229196435072       -0.57914285155710
O            2.14733475801986        0.81282669148985        0.24409567965090
N           -2.80771297505598       -2.42925909930490        0.21444976997658
C           -3.91657205737174       -1.91214992026529       -0.37022543495240
O           -5.01261177398369       -2.49797183858658       -0.44145331239627
C           -3.80346173187529       -0.56713779080360       -0.95357918908782
O           -4.93853898497693       -0.10421241519939       -1.51709297620261
H           -4.10722115486421        3.71599678993386       -2.91990441186008
H           -2.82810775213060        4.03889932419607       -1.71163118591493
H           -2.39678890733924        3.34807479997575       -3.29378980048712
H           -1.69156131767669       -3.24297266075336        2.40895848991762
H            0.02371457724564       -3.09965640303561        2.85266645468554
H           -1.02666803714592       -1.67018106988682        2.89078256511756
H            0.76204758980521       -4.06671796928590        0.65841522409051
H           -0.92715912345556       -4.27388770181880        0.14471759237561
H            0.20342929146408       -3.35363196283224       -0.86700597386069
H            0.28750559575288       -0.46706268211166        0.29736892380488
H            5.33168060316808        2.82517751381434        1.44063280741242
H            6.01359266476303        1.19074873306850        1.69262643356739
H            5.96461477027971        1.90400788239807        0.05484866574924
H            3.24863983374332        3.80811610996769        0.06135573886753
H            3.63487350582320        2.97510156803723       -1.44239714142672
H            1.93727015786640        3.08536223277137       -0.91378117276750
H           -5.60312739000007       -0.81776634949085       -1.39318146545563

          :  Hamiltonian                  GFN1-xTB          :
         :: total energy             -82.976655472178 Eh    ::
         :: gradient norm              0.000428823715 Eh/a0 ::
         :: HOMO-LUMO gap              0.862422071317 eV    ::
         :: SCC energy               -83.757370893605 Eh    ::
         :: -> Gsolv                  -0.090677164135 Eh    ::
         :: repulsion energy           0.805964514955 Eh    ::

    * Orbital Energies and Occupations

         #    Occupation            Energy/Eh            Energy/eV
      -------------------------------------------------------------
         1        2.0000           -0.9308498             -25.3297
       ...           ...                  ...                  ...
        55        2.0000           -0.4967219             -13.5165
        56        2.0000           -0.4951292             -13.4732
        57        2.0000           -0.4874373             -13.2638
        58        2.0000           -0.4830319             -13.1440
        59        2.0000           -0.4813707             -13.0988
        60        2.0000           -0.4688559             -12.7582
        61        2.0000           -0.4562375             -12.4149
        62        2.0000           -0.4544868             -12.3672
        63        2.0000           -0.4448371             -12.1046
        64        2.0000           -0.4258027             -11.5867
        65        2.0000           -0.4120652             -11.2129
        66        2.0000           -0.3814535             -10.3799
        67        2.0000           -0.3783728             -10.2960 (HOMO)
        68        0.0000           -0.3466794              -9.4336 (LUMO)
        69                         -0.3374908              -9.1836
        70                         -0.2822293              -7.6799
        71                         -0.2362447              -6.4285
        72                         -0.2262143              -6.1556
        73                         -0.1957886              -5.3277
        74                         -0.1820638              -4.9542
        75                         -0.1686846              -4.5901
        76                         -0.1292474              -3.5170
        77                         -0.1222939              -3.3278
        78                         -0.1165614              -3.1718
       ...                                ...                  ...
       134                          0.7364148              20.0389
      -------------------------------------------------------------
                  HL-Gap            0.0316934 Eh            0.8624 eV

Wiberg/Mayer (AO) data.
largest (>0.10) Wiberg bond orders for each atom

     #   Z sym  total        # sym  WBO       # sym  WBO       # sym  WBO
 ---------------------------------------------------------------------------
     1   6 C    3.885 --    26 H    0.987    28 H    0.980    27 H    0.980
                             2 O    0.910
     2   8 O    2.187 --     3 C    1.090     1 C    0.910     4 O    0.124
     3   6 C    3.839 --     4 O    1.627     2 O    1.090     5 C    1.028
     4   8 O    1.892 --     3 C    1.627     2 O    0.124
     5   6 C    3.960 --    24 C    1.485     6 N    1.185     3 C    1.028
     6   7 N    3.041 --     7 C    1.467     5 C    1.185
     7   6 C    3.959 --     6 N    1.467    21 N    1.368     8 C    0.968
     8   6 C    3.916 --     9 C    0.984    10 C    0.983     7 C    0.968
                            11 N    0.909
     9   6 C    3.991 --    31 H    0.986     8 C    0.984    30 H    0.984
                            29 H    0.983
    10   6 C    3.991 --    34 H    0.986    32 H    0.984    33 H    0.983
                             8 C    0.983
    11   7 N    3.423 --    12 C    1.345     8 C    0.909    35 H    0.852
                            13 O    0.209
    12   6 C    3.932 --    13 O    1.569    11 N    1.345    14 C    0.946
    13   8 O    1.902 --    12 C    1.569    11 N    0.209
    14   6 C    3.829 --    15 N    1.613    20 O    1.054    12 C    0.946
    15   7 N    2.977 --    14 C    1.613    16 N    1.146
    16   7 N    3.629 --    18 C    1.425    15 N    1.146    17 C    0.913
    17   6 C    3.890 --    37 H    0.979    36 H    0.971    38 H    0.969
                            16 N    0.913
    18   6 C    3.844 --    16 N    1.425    20 O    1.152    19 C    1.040
    19   6 C    3.962 --    18 C    1.040    41 H    0.972    39 H    0.951
                            40 H    0.943
    20   8 O    2.381 --    18 C    1.152    14 C    1.054
    21   7 N    2.983 --     7 C    1.368    22 C    1.246    23 O    0.123
    22   6 C    3.929 --    23 O    1.480    21 N    1.246    24 C    1.065
    23   8 O    1.818 --    22 C    1.480    21 N    0.123
    24   6 C    3.907 --     5 C    1.485    25 O    1.078    22 C    1.065
    25   8 O    2.054 --    24 C    1.078    42 H    0.811
    26   1 H    1.013 --     1 C    0.987
    27   1 H    1.010 --     1 C    0.980
    28   1 H    1.010 --     1 C    0.980
    29   1 H    1.013 --     9 C    0.983
    30   1 H    1.009 --     9 C    0.984
    31   1 H    1.004 --     9 C    0.986
    32   1 H    1.008 --    10 C    0.984
    33   1 H    1.012 --    10 C    0.983
    34   1 H    1.004 --    10 C    0.986
    35   1 H    0.965 --    11 N    0.852
    36   1 H    0.990 --    17 C    0.971
    37   1 H    0.994 --    17 C    0.979
    38   1 H    0.990 --    17 C    0.969
    39   1 H    0.988 --    19 C    0.951
    40   1 H    0.987 --    19 C    0.943
    41   1 H    0.987 --    19 C    0.972
    42   1 H    0.873 --    25 O    0.811
 ---------------------------------------------------------------------------

           -------------------------------------------------
          | TOTAL ENERGY              -82.976655472178 Eh   |
          | GRADIENT NORM               0.000428823715 Eh/α |
          | HOMO-LUMO GAP               0.862422071317 eV   |
           -------------------------------------------------

 * finished run on 2023/06/20 at 18:15:26.681
