   * xtb version 6.5.1 (579679a) compiled by 'ehlert@majestix' on 2022-07-11
          program call               : /lustre/hpc/kemi/ree/PhD/git/ReactivityQM/dep/xtb-6.5.1/bin/xtb --gfn 1 /lustre/hpc/kemi/ree/PhD/git/ReactivityQM/calculations/R01/reac01prodN06/conf10/R01_reac01prodN06_conf10_gfn1.xyz --opt --vfukui --chrg 1 --uhf 0 --alpb DMSO

   ID    Z sym.   atoms
    1    6 C      1, 3, 5, 6, 9, 10
    2    8 O      2, 4, 11
    3    7 N      7, 8
    4    1 H      12-20

      * Solvation model:               ALPB
        Solvent                        DMSO
        Solvent mass                       7.8130E+01 g/mol
          :  Hamiltonian                  GFN1-xTB          :
 * total energy  :   -37.5805620 Eh     change       -0.1222134E-11 Eh
 * total energy  :   -37.5919651 Eh     change       -0.1140313E-01 Eh
 * total energy  :   -37.5962768 Eh     change       -0.4311665E-02 Eh
 * total energy  :   -37.5969084 Eh     change       -0.6316279E-03 Eh
 * total energy  :   -37.5973227 Eh     change       -0.4142530E-03 Eh
 * total energy  :   -37.5974743 Eh     change       -0.1516476E-03 Eh
 * total energy  :   -37.5976250 Eh     change       -0.1506411E-03 Eh
 * total energy  :   -37.5977517 Eh     change       -0.1267828E-03 Eh
 * total energy  :   -37.5978395 Eh     change       -0.8778524E-04 Eh
 * total energy  :   -37.5979105 Eh     change       -0.7102764E-04 Eh
 * total energy  :   -37.5981892 Eh     change       -0.1133758E-04 Eh
 * total energy  :   -37.5982076 Eh     change       -0.1833857E-04 Eh
 * total energy  :   -37.5982263 Eh     change       -0.1874908E-04 Eh
 * total energy  :   -37.5982476 Eh     change       -0.2125281E-04 Eh
 * total energy  :   -37.5982593 Eh     change       -0.1171406E-04 Eh
 * total energy  :   -37.5982651 Eh     change       -0.5798024E-05 Eh
 * total energy  :   -37.5982708 Eh     change       -0.5739732E-05 Eh
 * total energy  :   -37.5982700 Eh     change        0.8581642E-06 Eh
 * total energy  :   -37.5982741 Eh     change       -0.4169980E-05 Eh
   *** GEOMETRY OPTIMIZATION CONVERGED AFTER 27 ITERATIONS ***

 final structure:
================
20
 xtb: 6.5.1 (579679a)
C            2.60753387097360       -1.58136190161355        0.00761737784509
O            1.35264197361766       -0.85586532698422       -0.01874699259882
C            1.39609522770460        0.42202459069265       -0.17660164794686
O            2.32227596259406        1.14749429753498       -0.34338659295426
C           -0.09427243456667        1.03141191079427       -0.16258674495794
C           -0.05141321213535        2.48410326502735        0.28648712879569
N           -0.56761802951879        0.79105045999308       -1.47551208413771
N           -1.47856522772411       -0.07764216273736       -1.44942068204138
C           -1.69550927615472       -0.42138867467865       -0.13134923189435
C           -2.67142911326938       -1.39733904841298        0.33043717677204
O           -0.91713407247454        0.22951848985940        0.64681197540476
H            3.13993341018622       -1.33323217080970        0.92569208923498
H            2.33751423739892       -2.63369606676407       -0.01346236950921
H            3.20281685352445       -1.30712494240384       -0.86344781207139
H            0.62441698444777        3.03027078106763       -0.36843572724158
H            0.31122202030182        2.52763187756554        1.31103769444355
H           -1.05300010109503        2.90405764900292        0.23113746142179
H           -3.65542151422876       -1.13891471860433       -0.06889329140012
H           -2.41680400393882       -2.37696505357856       -0.08423751101019
H           -2.69328255564304       -1.44403325495053        1.41685978384602

          :  Hamiltonian                  GFN1-xTB          :
         :: total energy             -37.598274142678 Eh    ::
         :: gradient norm              0.000898110938 Eh/a0 ::
         :: HOMO-LUMO gap              2.234645701341 eV    ::
         :: SCC energy               -37.939090185721 Eh    ::
         :: -> Gsolv                  -0.080558012671 Eh    ::
         :: repulsion energy           0.349674892869 Eh    ::

    * Orbital Energies and Occupations

         #    Occupation            Energy/Eh            Energy/eV
      -------------------------------------------------------------
         1        2.0000           -0.9437972             -25.6820
       ...           ...                  ...                  ...
        18        2.0000           -0.6164953             -16.7757
        19        2.0000           -0.6119447             -16.6519
        20        2.0000           -0.6013547             -16.3637
        21        2.0000           -0.6010202             -16.3546
        22        2.0000           -0.5856780             -15.9371
        23        2.0000           -0.5805683             -15.7981
        24        2.0000           -0.5721819             -15.5699
        25        2.0000           -0.5669388             -15.4272
        26        2.0000           -0.5645957             -15.3634
        27        2.0000           -0.5506922             -14.9851
        28        2.0000           -0.5401921             -14.6994
        29        2.0000           -0.5356808             -14.5766
        30        2.0000           -0.5168092             -14.0631 (HOMO)
        31                         -0.4346875             -11.8284 (LUMO)
        32                         -0.3418601              -9.3025
        33                         -0.3171887              -8.6311
        34                         -0.1811262              -4.9287
        35                         -0.1647739              -4.4837
        36                         -0.1600521              -4.3552
        37                         -0.1133889              -3.0855
        38                         -0.1096287              -2.9831
        39                         -0.1016954              -2.7673
        40                         -0.0985975              -2.6830
        41                         -0.0979122              -2.6643
       ...                                ...                  ...
        62                          0.7468639              20.3232
      -------------------------------------------------------------
                  HL-Gap            0.0821217 Eh            2.2346 eV

Wiberg/Mayer (AO) data.
largest (>0.10) Wiberg bond orders for each atom

     #   Z sym  total        # sym  WBO       # sym  WBO       # sym  WBO
 ---------------------------------------------------------------------------
     1   6 C    3.814 --    13 H    0.981    14 H    0.979    12 H    0.976
                             2 O    0.836
     2   8 O    2.264 --     3 C    1.230     1 C    0.836     4 O    0.154
     3   6 C    3.864 --     4 O    1.743     2 O    1.230     5 C    0.746
     4   8 O    2.073 --     3 C    1.743     2 O    0.154
     5   6 C    3.837 --     7 N    1.076     6 C    0.934    11 O    0.905
                             3 C    0.746
     6   6 C    3.948 --    16 H    0.976    17 H    0.975    15 H    0.973
                             5 C    0.934
     7   7 N    3.010 --     8 N    1.682     5 C    1.076
     8   7 N    3.022 --     7 N    1.682     9 C    1.176
     9   6 C    3.801 --    11 O    1.307     8 N    1.176    10 C    1.086
    10   6 C    3.962 --     9 C    1.086    20 H    0.971    18 H    0.921
                            19 H    0.912
    11   8 O    2.395 --     9 C    1.307     5 C    0.905
    12   1 H    0.996 --     1 C    0.976
    13   1 H    1.002 --     1 C    0.981
    14   1 H    0.997 --     1 C    0.979
    15   1 H    0.995 --     6 C    0.973
    16   1 H    0.990 --     6 C    0.976
    17   1 H    0.989 --     6 C    0.975
    18   1 H    0.980 --    10 C    0.921
    19   1 H    0.977 --    10 C    0.912
    20   1 H    0.984 --    10 C    0.971
 ---------------------------------------------------------------------------

           -------------------------------------------------
          | TOTAL ENERGY              -37.598274142678 Eh   |
          | GRADIENT NORM               0.000898110938 Eh/α |
          | HOMO-LUMO GAP               2.234645701341 eV   |
           -------------------------------------------------

 * finished run on 2023/06/20 at 14:56:08.616
