   * xtb version 6.5.1 (579679a) compiled by 'ehlert@majestix' on 2022-07-11
          program call               : /lustre/hpc/kemi/ree/PhD/git/ReactivityQM/dep/xtb-6.5.1/bin/xtb --gfn 1 /lustre/hpc/kemi/ree/PhD/git/ReactivityQM/calculations/R02oxygendeprot/reac01prodN03/conf15/R02oxygendeprot_reac01prodN03_conf15_gfn1.xyz --opt --vfukui --chrg 0 --uhf 0 --alpb DMSO

   ID    Z sym.   atoms
    1    6 C      1, 3, 5, 6, 8-11, 13, 15, 18, 19, 22, 24
    2    8 O      2, 4, 14, 20, 23, 25
    3    7 N      7, 12, 16, 17, 21
    4    1 H      26-42

      * Solvation model:               ALPB
        Solvent                        DMSO
        Solvent mass                       7.8130E+01 g/mol
          :  Hamiltonian                  GFN1-xTB          :
 * total energy  :   -82.9827936 Eh     change       -0.7801759E-11 Eh
 * total energy  :   -82.9947295 Eh     change       -0.1193588E-01 Eh
 * total energy  :   -82.9992818 Eh     change       -0.4552320E-02 Eh
 * total energy  :   -83.0001770 Eh     change       -0.8952451E-03 Eh
 * total energy  :   -83.0006269 Eh     change       -0.4498253E-03 Eh
 * total energy  :   -83.0008018 Eh     change       -0.1749116E-03 Eh
 * total energy  :   -83.0009313 Eh     change       -0.1295107E-03 Eh
 * total energy  :   -83.0010422 Eh     change       -0.1109203E-03 Eh
 * total energy  :   -83.0011354 Eh     change       -0.9317183E-04 Eh
 * total energy  :   -83.0012089 Eh     change       -0.7353441E-04 Eh
 * total energy  :   -83.0015067 Eh     change       -0.2161531E-04 Eh
 * total energy  :   -83.0015334 Eh     change       -0.2670563E-04 Eh
 * total energy  :   -83.0015458 Eh     change       -0.1241817E-04 Eh
 * total energy  :   -83.0015603 Eh     change       -0.1446191E-04 Eh
 * total energy  :   -83.0015658 Eh     change       -0.5489230E-05 Eh
 * total energy  :   -83.0015822 Eh     change       -0.1648011E-04 Eh
 * total energy  :   -83.0015879 Eh     change       -0.5630815E-05 Eh
 * total energy  :   -83.0016019 Eh     change       -0.1401977E-04 Eh
 * total energy  :   -83.0016068 Eh     change       -0.4938537E-05 Eh
   *** GEOMETRY OPTIMIZATION CONVERGED AFTER 28 ITERATIONS ***

 final structure:
================
42
 xtb: 6.5.1 (579679a)
C           -6.05987549642658       -0.88126829354673        0.38388678942456
O           -5.07447073659740        0.12951506293302        0.11505373641057
C           -3.81279024611700       -0.20482726540054        0.27297695111975
O           -3.41518235684830       -1.27920330810423        0.63676022952439
C           -2.85399458602164        0.98314996638499       -0.03768095997934
C           -3.50416194717447        2.01860439613529       -0.95457959507805
N           -1.71268133181413        0.38969109992019       -0.69467920434785
C           -0.73784973779992       -0.05264968963990       -0.01783005550114
C            0.36978555327513       -0.82778242562283       -0.69822656068326
C            0.33090907134669       -0.59756766279692       -2.21117038638217
C            0.16719323134997       -2.31183448693888       -0.35647926411501
N            1.64176704549018       -0.34554934840967       -0.15043111971471
C            2.83946731993089       -0.86933996635277       -0.50751939768252
O            3.00488433003741       -1.87512289284369       -1.17058395550352
C            3.95143611218526       -0.05254233533020        0.04110312421435
N            3.82975859314139        1.03954397759957        0.73511639061102
N            5.09089121256241        1.46744759125527        1.01852777330561
C            5.90314148028364        0.61016928318850        0.47663464675969
C            7.38222554957627        0.63246772404007        0.49151548984430
O            5.24332970942458       -0.37148993778634       -0.15490550275504
N           -0.62366280164947        0.07716517776194        1.36162393796619
C           -1.43836552850804        0.85711522913676        2.12482779879900
O           -1.28285143468654        0.99788318853736        3.31643882397722
C           -2.54895468023643        1.56060390033883        1.33377720110277
O           -3.16099408943752        2.48411309714845        1.80152602144688
H           -6.06127388140599       -1.11921140132815        1.44929000950501
H           -7.01787934109267       -0.46343102250680        0.08355018742514
H           -5.83415541145937       -1.77955661859131       -0.19322944646078
H           -3.85549487359877        1.53596709253438       -1.86344954538079
H           -4.34252784071588        2.49189315193242       -0.44655470922076
H           -2.76795197456590        2.77681801797547       -1.21430354369711
H           -0.64203452726347       -0.89629393701490       -2.59756629117987
H            1.10663631599477       -1.18749996387266       -2.69532258769814
H            0.48943529556271        0.45646501089656       -2.43241207425777
H            0.88221720043646       -2.92505179170637       -0.90084641583552
H            0.30171803100877       -2.47222276889295        0.71164997162014
H           -0.84329094252616       -2.60749979802119       -0.63569920185972
H            1.65215378576725        0.56752099318543        0.27932838307528
H            7.73012811372416        1.41119775173307        1.16577861975005
H            7.76067974198025        0.82862169184486       -0.51233897697813
H            7.76676199320527       -0.33452234282488        0.81384414999319
H            0.14592507965168       -0.37494214696761        1.83259755843845

          :  Hamiltonian                  GFN1-xTB          :
         :: total energy             -83.001606829503 Eh    ::
         :: gradient norm              0.000875204787 Eh/a0 ::
         :: HOMO-LUMO gap              2.398921540802 eV    ::
         :: SCC energy               -83.789390575390 Eh    ::
         :: -> Gsolv                  -0.050745576218 Eh    ::
         :: repulsion energy           0.814314485899 Eh    ::

    * Orbital Energies and Occupations

         #    Occupation            Energy/Eh            Energy/eV
      -------------------------------------------------------------
         1        2.0000           -0.8652469             -23.5446
       ...           ...                  ...                  ...
        55        2.0000           -0.5126820             -13.9508
        56        2.0000           -0.5077260             -13.8159
        57        2.0000           -0.5075375             -13.8108
        58        2.0000           -0.5027017             -13.6792
        59        2.0000           -0.4934347             -13.4270
        60        2.0000           -0.4845761             -13.1860
        61        2.0000           -0.4729063             -12.8684
        62        2.0000           -0.4658175             -12.6755
        63        2.0000           -0.4630264             -12.5996
        64        2.0000           -0.4605997             -12.5336
        65        2.0000           -0.4540930             -12.3565
        66        2.0000           -0.4507446             -12.2654
        67        2.0000           -0.4422469             -12.0342 (HOMO)
        68                         -0.3540882              -9.6352 (LUMO)
        69                         -0.3138838              -8.5412
        70                         -0.2990200              -8.1367
        71                         -0.2711675              -7.3788
        72                         -0.2583300              -7.0295
        73                         -0.2269399              -6.1754
        74                         -0.2017229              -5.4892
        75                         -0.1477045              -4.0192
        76                         -0.1426420              -3.8815
        77                         -0.1302754              -3.5450
        78                         -0.1264785              -3.4417
       ...                                ...                  ...
       134                          0.7572212              20.6050
      -------------------------------------------------------------
                  HL-Gap            0.0881587 Eh            2.3989 eV

Wiberg/Mayer (AO) data.
largest (>0.10) Wiberg bond orders for each atom

     #   Z sym  total        # sym  WBO       # sym  WBO       # sym  WBO
 ---------------------------------------------------------------------------
     1   6 C    3.852 --    27 H    0.985    28 H    0.980    26 H    0.979
                             2 O    0.874
     2   8 O    2.232 --     3 C    1.159     1 C    0.874     4 O    0.140
     3   6 C    3.845 --     4 O    1.695     2 O    1.159     5 C    0.863
     4   8 O    1.965 --     3 C    1.695     2 O    0.140
     5   6 C    3.963 --     6 C    0.984     7 N    0.980    24 C    0.949
                             3 C    0.863
     6   6 C    3.985 --    29 H    0.985     5 C    0.984    31 H    0.983
                            30 H    0.982
     7   7 N    3.028 --     8 C    1.761     5 C    0.980
     8   6 C    3.926 --     7 N    1.761    21 N    1.065     9 C    0.978
     9   6 C    3.933 --    10 C    0.991     8 C    0.978    11 C    0.975
                            12 N    0.923
    10   6 C    3.989 --     9 C    0.991    34 H    0.985    32 H    0.983
                            33 H    0.982
    11   6 C    3.988 --    37 H    0.984    36 H    0.984    35 H    0.977
                             9 C    0.975
    12   7 N    3.325 --    13 C    1.233     9 C    0.923    38 H    0.895
                            14 O    0.172
    13   6 C    3.915 --    14 O    1.607    12 N    1.233    15 C    0.990
    14   8 O    1.921 --    13 C    1.607    12 N    0.172
    15   6 C    3.876 --    16 N    1.608    20 O    1.065    13 C    0.990
    16   7 N    3.018 --    15 C    1.608    17 N    1.202
    17   7 N    2.981 --    18 C    1.602    16 N    1.202
    18   6 C    3.870 --    17 N    1.602    20 O    1.084    19 C    1.032
    19   6 C    3.986 --    18 C    1.032    39 H    0.982    41 H    0.967
                            40 H    0.960
    20   8 O    2.332 --    18 C    1.084    15 C    1.065
    21   7 N    3.430 --    22 C    1.187     8 C    1.065    42 H    0.881
                            23 O    0.149
    22   6 C    3.893 --    23 O    1.673    21 N    1.187    24 C    0.906
    23   8 O    1.957 --    22 C    1.673    21 N    0.149
    24   6 C    3.847 --    25 O    1.813     5 C    0.949    22 C    0.906
    25   8 O    2.027 --    24 C    1.813
    26   1 H    1.003 --     1 C    0.979
    27   1 H    1.007 --     1 C    0.985
    28   1 H    1.004 --     1 C    0.980
    29   1 H    1.003 --     6 C    0.985
    30   1 H    1.007 --     6 C    0.982
    31   1 H    1.001 --     6 C    0.983
    32   1 H    1.009 --    10 C    0.983
    33   1 H    1.006 --    10 C    0.982
    34   1 H    1.004 --    10 C    0.985
    35   1 H    1.010 --    11 C    0.977
    36   1 H    1.000 --    11 C    0.984
    37   1 H    1.003 --    11 C    0.984
    38   1 H    0.952 --    12 N    0.895
    39   1 H    0.998 --    19 C    0.982
    40   1 H    0.996 --    19 C    0.960
    41   1 H    0.996 --    19 C    0.967
    42   1 H    0.927 --    21 N    0.881
 ---------------------------------------------------------------------------

           -------------------------------------------------
          | TOTAL ENERGY              -83.001606829503 Eh   |
          | GRADIENT NORM               0.000875204787 Eh/α |
          | HOMO-LUMO GAP               2.398921540802 eV   |
           -------------------------------------------------

 * finished run on 2023/06/21 at 17:19:15.438
