   * xtb version 6.5.1 (579679a) compiled by 'ehlert@majestix' on 2022-07-11
          program call               : /lustre/hpc/kemi/ree/PhD/git/ReactivityQM/dep/xtb-6.5.1/bin/xtb --gfn 1 /lustre/hpc/kemi/ree/PhD/git/ReactivityQM/calculations/R02/reac01prodN16/conf10/R02_reac01prodN16_conf10_gfn1.xyz --opt --vfukui --chrg 1 --uhf 0 --alpb DMSO

   ID    Z sym.   atoms
    1    6 C      1, 2, 5, 6, 9-12, 14, 15, 18-20, 22
    2    7 N      3, 4, 8, 13, 24
    3    8 O      7, 16, 17, 21, 23, 25
    4    1 H      26-43

      * Solvation model:               ALPB
        Solvent                        DMSO
        Solvent mass                       7.8130E+01 g/mol
          :  Hamiltonian                  GFN1-xTB          :
 * total energy  :   -83.0992351 Eh     change       -0.3053913E-10 Eh
 * total energy  :   -83.1132088 Eh     change       -0.1397366E-01 Eh
 * total energy  :   -83.1182696 Eh     change       -0.5060849E-02 Eh
 * total energy  :   -83.1197202 Eh     change       -0.1450560E-02 Eh
 * total energy  :   -83.1207184 Eh     change       -0.9981792E-03 Eh
 * total energy  :   -83.1213805 Eh     change       -0.6621887E-03 Eh
 * total energy  :   -83.1220006 Eh     change       -0.6200065E-03 Eh
 * total energy  :   -83.1225094 Eh     change       -0.5088482E-03 Eh
 * total energy  :   -83.1228071 Eh     change       -0.2976626E-03 Eh
 * total energy  :   -83.1231678 Eh     change       -0.3607705E-03 Eh
 * total energy  :   -83.1280511 Eh     change       -0.1298158E-03 Eh
 * total energy  :   -83.1280633 Eh     change       -0.1213998E-04 Eh
 * total energy  :   -83.1280860 Eh     change       -0.2267239E-04 Eh
 * total energy  :   -83.1280952 Eh     change       -0.9264972E-05 Eh
 * total energy  :   -83.1281079 Eh     change       -0.1272583E-04 Eh
 * total energy  :   -83.1281147 Eh     change       -0.6749831E-05 Eh
 * total energy  :   -83.1281240 Eh     change       -0.9318000E-05 Eh
 * total energy  :   -83.1281274 Eh     change       -0.3431056E-05 Eh
 * total energy  :   -83.1281308 Eh     change       -0.3397698E-05 Eh
   *** GEOMETRY OPTIMIZATION CONVERGED AFTER 40 ITERATIONS ***

 final structure:
================
43
 xtb: 6.5.1 (579679a)
C            5.29164965406441        3.14434057292714        0.05231471083904
C            5.27073586865084        1.66593933554524        0.06797295564278
N            6.27255451730711        0.85227258200576        0.19228010660287
N            5.76270439441492       -0.40965423308528        0.14593624546337
C            4.48103301114480       -0.29083566442400       -0.00564440620121
C            3.46541465158710       -1.36705845033723       -0.08884101477918
O            3.75331085339467       -2.54643922051524       -0.00920083365259
N            2.21490620474460       -0.87283330449536       -0.27690695376132
C            1.01670766592220       -1.71240184469250       -0.19696809114759
C            0.87812014645505       -2.28486515411579        1.21706321337243
C            1.07374152907327       -2.82655658887553       -1.25457012316271
C           -0.16323721351289       -0.82687872815677       -0.52722162598205
N           -1.26533367361509       -0.94929514687464        0.12918117939681
C           -2.34539839398904       -0.15273831927086       -0.18558008921234
C           -3.50662692554031       -0.46896585480733        0.61769292106137
O           -3.72285427458481       -1.38452943552715        1.33169924465850
O           -4.62978561760363        0.51368578223338        0.42962782744509
C           -5.93298006763039       -0.05070703383904        0.75989735174238
C           -4.40794802472848        1.83749216871337        1.00368857361070
C           -2.26751534678215        0.75847746193047       -1.21255608059800
O           -3.25173734513965        1.55935858461397       -1.58378936500303
C           -1.02384657045049        0.88074426214167       -1.99001980850352
O           -0.91850548142484        1.66138088787437       -2.91502469171516
N           -0.02346814812417        0.04607108303750       -1.57197864831469
O            4.10717232557992        1.00671293270242       -0.06048423888745
H            4.60186348572846        3.53125036946170        0.80164234328389
H            6.29831986529302        3.50281026328635        0.25584217412792
H            4.96451334443951        3.50729256255260       -0.92231339135902
H            2.08837609163354        0.11906083152385       -0.16865050788823
H            0.85031148504408       -1.47312391835105        1.94183087905264
H            1.72460776537092       -2.93395751606259        1.43586590044010
H           -0.04499470496047       -2.85712898740146        1.29028606237654
H            1.85705538490477       -3.54033869037861       -1.00600136490444
H            0.11587972929690       -3.34353817623552       -1.28389560891523
H            1.27731117209599       -2.39688449282166       -2.23364112312372
H           -5.98759453795174       -0.24345301773943        1.83123668290656
H           -6.67148415458227        0.68326372919239        0.44852705503975
H           -6.02840004406747       -0.97031353350676        0.18726401044301
H           -5.05875672587184        2.52041571272583        0.46251440976003
H           -4.64505691555142        1.81146372505576        2.06726765560178
H           -3.36485582602180        2.09159008214384        0.84230821605227
H           -2.96402359972632        2.09794704080205       -2.35099681342952
H            0.85811644570911        0.11092534103984       -2.06350793838042

          :  Hamiltonian                  GFN1-xTB          :
         :: total energy             -83.128130845969 Eh    ::
         :: gradient norm              0.000623687946 Eh/a0 ::
         :: HOMO-LUMO gap              1.987528314605 eV    ::
         :: SCC energy               -83.934266223519 Eh    ::
         :: -> Gsolv                  -0.128040492010 Eh    ::
         :: repulsion energy           0.832415500564 Eh    ::

    * Orbital Energies and Occupations

         #    Occupation            Energy/Eh            Energy/eV
      -------------------------------------------------------------
         1        2.0000           -0.9305483             -25.3215
       ...           ...                  ...                  ...
        55        2.0000           -0.5252072             -14.2916
        56        2.0000           -0.5224419             -14.2164
        57        2.0000           -0.5164769             -14.0541
        58        2.0000           -0.5101381             -13.8816
        59        2.0000           -0.5081905             -13.8286
        60        2.0000           -0.4929883             -13.4149
        61        2.0000           -0.4841853             -13.1754
        62        2.0000           -0.4821920             -13.1211
        63        2.0000           -0.4712839             -12.8243
        64        2.0000           -0.4677161             -12.7272
        65        2.0000           -0.4635892             -12.6149
        66        2.0000           -0.4558724             -12.4049
        67        2.0000           -0.4534441             -12.3388 (HOMO)
        68                         -0.3804038             -10.3513 (LUMO)
        69                         -0.3169471              -8.6246
        70                         -0.3144602              -8.5569
        71                         -0.2909940              -7.9184
        72                         -0.2592749              -7.0552
        73                         -0.2043058              -5.5594
        74                         -0.1990422              -5.4162
        75                         -0.1810809              -4.9275
        76                         -0.1722557              -4.6873
        77                         -0.1428540              -3.8873
        78                         -0.1372024              -3.7335
       ...                                ...                  ...
       136                          0.7478739              20.3507
      -------------------------------------------------------------
                  HL-Gap            0.0730403 Eh            1.9875 eV

Wiberg/Mayer (AO) data.
largest (>0.10) Wiberg bond orders for each atom

     #   Z sym  total        # sym  WBO       # sym  WBO       # sym  WBO
 ---------------------------------------------------------------------------
     1   6 C    3.986 --     2 C    1.032    27 H    0.982    26 H    0.965
                            28 H    0.960
     2   6 C    3.867 --     3 N    1.608    25 O    1.072     1 C    1.032
     3   7 N    2.982 --     2 C    1.608     4 N    1.201
     4   7 N    3.002 --     5 C    1.621     3 N    1.201
     5   6 C    3.873 --     4 N    1.621    25 O    1.045     6 C    0.996
     6   6 C    3.912 --     7 O    1.604     8 N    1.227     5 C    0.996
     7   8 O    1.917 --     6 C    1.604     8 N    0.169
     8   7 N    3.319 --     6 C    1.227     9 C    0.928    29 H    0.892
                             7 O    0.169
     9   6 C    3.934 --    10 C    0.989    12 C    0.983    11 C    0.971
                             8 N    0.928
    10   6 C    3.987 --     9 C    0.989    30 H    0.985    32 H    0.983
                            31 H    0.981
    11   6 C    3.984 --    34 H    0.985    35 H    0.984    33 H    0.975
                             9 C    0.971
    12   6 C    3.921 --    13 N    1.599    24 N    1.160     9 C    0.983
    13   7 N    3.023 --    12 C    1.599    14 C    1.150
    14   6 C    3.960 --    20 C    1.447    13 N    1.150    15 C    1.097
    15   6 C    3.801 --    16 O    1.824    14 C    1.097    17 O    0.742
    16   8 O    2.085 --    15 C    1.824
    17   8 O    2.483 --    18 C    0.814    19 C    0.807    15 C    0.742
    18   6 C    3.785 --    36 H    0.979    37 H    0.977    38 H    0.976
                            17 O    0.814
    19   6 C    3.783 --    40 H    0.979    39 H    0.976    41 H    0.976
                            17 O    0.807
    20   6 C    3.911 --    14 C    1.447    21 O    1.155    22 C    1.030
    21   8 O    2.131 --    20 C    1.155    42 H    0.778
    22   6 C    3.915 --    23 O    1.611    24 N    1.153    20 C    1.030
    23   8 O    1.936 --    22 C    1.611    24 N    0.142
    24   7 N    3.477 --    12 C    1.160    22 C    1.153    43 H    0.871
                            23 O    0.142
    25   8 O    2.315 --     2 C    1.072     5 C    1.045
    26   1 H    0.996 --     1 C    0.965
    27   1 H    0.998 --     1 C    0.982
    28   1 H    0.996 --     1 C    0.960
    29   1 H    0.936 --     8 N    0.892
    30   1 H    1.002 --    10 C    0.985
    31   1 H    1.005 --    10 C    0.981
    32   1 H    1.007 --    10 C    0.983
    33   1 H    1.009 --    11 C    0.975
    34   1 H    1.000 --    11 C    0.985
    35   1 H    1.000 --    11 C    0.984
    36   1 H    0.996 --    18 C    0.979
    37   1 H    0.993 --    18 C    0.977
    38   1 H    0.995 --    18 C    0.976
    39   1 H    0.996 --    19 C    0.976
    40   1 H    0.991 --    19 C    0.979
    41   1 H    1.000 --    19 C    0.976
    42   1 H    0.819 --    21 O    0.778
    43   1 H    0.915 --    24 N    0.871
 ---------------------------------------------------------------------------

           -------------------------------------------------
          | TOTAL ENERGY              -83.128130845969 Eh   |
          | GRADIENT NORM               0.000623687946 Eh/α |
          | HOMO-LUMO GAP               1.987528314605 eV   |
           -------------------------------------------------

 * finished run on 2023/06/20 at 15:43:01.846
