   * xtb version 6.5.1 (579679a) compiled by 'ehlert@majestix' on 2022-07-11
          program call               : /lustre/hpc/kemi/ree/PhD/git/ReactivityQM/dep/xtb-6.5.1/bin/xtb --gfn 1 /lustre/hpc/kemi/ree/PhD/git/ReactivityQM/calculations/R02methylcation/reac01prodN15/conf19/R02methylcation_reac01prodN15_conf19_gfn1.xyz --opt --vfukui --chrg 0 --uhf 0 --alpb DMSO

   ID    Z sym.   atoms
    1    6 C      1, 3, 5, 7-10, 12, 14, 17, 18, 21, 23, 24
    2    8 O      2, 4, 13, 19, 22, 25
    3    7 N      6, 11, 15, 16, 20
    4    1 H      26-42

      * Solvation model:               ALPB
        Solvent                        DMSO
        Solvent mass                       7.8130E+01 g/mol
          :  Hamiltonian                  GFN1-xTB          :
 * total energy  :   -82.8947192 Eh     change       -0.6039613E-10 Eh
 * total energy  :   -82.9148107 Eh     change       -0.2009153E-01 Eh
 * total energy  :   -82.9333151 Eh     change       -0.1850440E-01 Eh
 * total energy  :   -82.9527109 Eh     change       -0.1939578E-01 Eh
 * total energy  :   -82.9778989 Eh     change       -0.2518808E-01 Eh
 * total energy  :   -82.8914936 Eh     change        0.8640532E-01 Eh
 * total energy  :   -82.9968252 Eh     change       -0.1053316E+00 Eh
 * total energy  :   -82.9989211 Eh     change       -0.2095842E-02 Eh
 * total energy  :   -83.0015800 Eh     change       -0.2658959E-02 Eh
 * total energy  :   -83.0025655 Eh     change       -0.9855071E-03 Eh
 * total energy  :   -83.0058684 Eh     change       -0.1730447E-04 Eh
 * total energy  :   -83.0058449 Eh     change        0.2350255E-04 Eh
 * total energy  :   -83.0058927 Eh     change       -0.4781397E-04 Eh
 * total energy  :   -83.0059003 Eh     change       -0.7605118E-05 Eh
 * total energy  :   -83.0059090 Eh     change       -0.8655046E-05 Eh
 * total energy  :   -83.0059183 Eh     change       -0.9330842E-05 Eh
 * total energy  :   -83.0059233 Eh     change       -0.5016789E-05 Eh
 * total energy  :   -83.0059286 Eh     change       -0.5319097E-05 Eh
 * total energy  :   -83.0059312 Eh     change       -0.2532241E-05 Eh
   *** GEOMETRY OPTIMIZATION CONVERGED AFTER 69 ITERATIONS ***

 final structure:
================
42
 xtb: 6.5.1 (579679a)
C           -5.89260173076296        1.38885076434357        1.11509934470416
O           -4.55822998723027        0.90206621689703        1.31744337924711
C           -3.86084647956210        0.61162186545021        0.23274995138626
O           -4.27154829230338        0.72409886632620       -0.89429110560374
C           -2.46459496803242        0.09239443184721        0.54137637825443
N           -1.58007394129026        0.27871971268703       -0.54547120734682
C           -0.46306383649784       -0.33275795724645       -0.55282477042594
C            0.51629538362077       -0.09450178427699       -1.68375364948123
C            0.21369586382303        1.23948806071119       -2.37259034803447
C            0.39514508338682       -1.26764363182116       -2.66897189915326
N            1.86128721714437       -0.06484626001357       -1.10013764327560
C            2.97992188091765        0.09788400086519       -1.84082292245097
O            3.01970512719820        0.16193978795320       -3.05743298978968
C            4.20552399956495        0.18514153496474       -1.00830178878239
N            5.42552540684805        0.35902378688187       -1.41165327297257
N            6.20873932752219        0.38577267188072       -0.29723627356198
C            5.41898518243719        0.22703430856905        0.71886829467970
C            5.78271009807269        0.17942817948157        2.15152922044396
O            4.13717278263416        0.09568557195061        0.33819225284582
N           -0.11778952437693       -1.30786673296417        0.36164451592129
C           -1.01243789239752       -1.86173171830227        1.24767825475537
O           -0.82623944810320       -2.95274093694776        1.74139749560543
C           -2.22552934075930       -1.02282122289554        1.52000576869653
C           -3.31729240550073       -1.70676417265851        2.30727886387182
O           -1.94506861024042        0.32279212006646        1.81543370454960
H           -5.87088219381201        2.28680598782410        0.49447188876679
H           -6.29060401641787        1.61503817947957        2.10138471004929
H           -6.49588075251658        0.62164658097509        0.62585705912528
H            0.88946482278303        1.38646847997545       -3.21278665544123
H           -0.81292532117764        1.23354127263831       -2.73536248400787
H            0.33464392926167        2.05848202456962       -1.66538138082662
H            1.05722773741381       -1.11328430916028       -3.51869178273961
H           -0.63154075589243       -1.33450543697626       -3.02550752875650
H            0.66151894384760       -2.19979312639405       -2.17455081895426
H            1.94416236808340       -0.01798018431250       -0.09825670251928
H            5.56345246860544       -0.80804690627533        2.55666329796885
H            5.19672311020696        0.90931311482840        2.70876189562824
H            6.84269191199726        0.39187484285592        2.26803882881302
H            0.71228161921798       -1.85532123633561        0.19076499530791
H           -2.86680287499598       -2.24068654401908        3.14401782626302
H           -3.83695558026612       -2.42584350795601        1.67642701103024
H           -4.02596631244812       -0.97728469546153        2.68894128621164

          :  Hamiltonian                  GFN1-xTB          :
         :: total energy             -83.005931176718 Eh    ::
         :: gradient norm              0.000457062510 Eh/a0 ::
         :: HOMO-LUMO gap              3.707909937092 eV    ::
         :: SCC energy               -83.778266263263 Eh    ::
         :: -> Gsolv                  -0.054329432144 Eh    ::
         :: repulsion energy           0.797764654664 Eh    ::

    * Orbital Energies and Occupations

         #    Occupation            Energy/Eh            Energy/eV
      -------------------------------------------------------------
         1        2.0000           -0.8665658             -23.5805
       ...           ...                  ...                  ...
        55        2.0000           -0.5073562             -13.8059
        56        2.0000           -0.5060480             -13.7703
        57        2.0000           -0.5050498             -13.7431
        58        2.0000           -0.5029530             -13.6860
        59        2.0000           -0.4815897             -13.1047
        60        2.0000           -0.4782871             -13.0149
        61        2.0000           -0.4689124             -12.7598
        62        2.0000           -0.4669454             -12.7062
        63        2.0000           -0.4647827             -12.6474
        64        2.0000           -0.4611922             -12.5497
        65        2.0000           -0.4528280             -12.3221
        66        2.0000           -0.4500064             -12.2453
        67        2.0000           -0.4486923             -12.2095 (HOMO)
        68                         -0.3124291              -8.5016 (LUMO)
        69                         -0.3028252              -8.2403
        70                         -0.2889075              -7.8616
        71                         -0.2596379              -7.0651
        72                         -0.2575671              -7.0088
        73                         -0.2001118              -5.4453
        74                         -0.1426061              -3.8805
        75                         -0.1425748              -3.8797
        76                         -0.1324929              -3.6053
        77                         -0.1296755              -3.5287
        78                         -0.1244049              -3.3852
       ...                                ...                  ...
       134                          0.7279310              19.8080
      -------------------------------------------------------------
                  HL-Gap            0.1362632 Eh            3.7079 eV

Wiberg/Mayer (AO) data.
largest (>0.10) Wiberg bond orders for each atom

     #   Z sym  total        # sym  WBO       # sym  WBO       # sym  WBO
 ---------------------------------------------------------------------------
     1   6 C    3.859 --    27 H    0.985    26 H    0.980    28 H    0.980
                             2 O    0.883
     2   8 O    2.227 --     3 C    1.142     1 C    0.883     4 O    0.142
     3   6 C    3.851 --     4 O    1.688     2 O    1.142     5 C    0.937
     4   8 O    1.940 --     3 C    1.688     2 O    0.142
     5   6 C    3.869 --     6 N    1.027     3 C    0.937    25 O    0.907
                            23 C    0.833
     6   7 N    3.026 --     7 C    1.711     5 C    1.027
     7   6 C    3.928 --     6 N    1.711    20 N    1.108     8 C    0.979
     8   6 C    3.934 --     9 C    0.991     7 C    0.979    10 C    0.975
                            11 N    0.924
     9   6 C    3.988 --     8 C    0.991    31 H    0.985    30 H    0.983
                            29 H    0.982
    10   6 C    3.987 --    33 H    0.985    34 H    0.984    32 H    0.977
                             8 C    0.975
    11   7 N    3.339 --    12 C    1.248     8 C    0.924    35 H    0.893
                            13 O    0.174
    12   6 C    3.915 --    13 O    1.591    11 N    1.248    14 C    0.993
    13   8 O    1.908 --    12 C    1.591    11 N    0.174
    14   6 C    3.872 --    15 N    1.623    19 O    1.046    12 C    0.993
    15   7 N    3.000 --    14 C    1.623    16 N    1.199
    16   7 N    2.982 --    17 C    1.611    15 N    1.199
    17   6 C    3.868 --    16 N    1.611    19 O    1.072    18 C    1.032
    18   6 C    3.986 --    17 C    1.032    38 H    0.982    37 H    0.965
                            36 H    0.961
    19   8 O    2.315 --    17 C    1.072    14 C    1.046
    20   7 N    3.416 --    21 C    1.141     7 C    1.108    39 H    0.884
                            22 O    0.126
    21   6 C    3.893 --    22 O    1.657    20 N    1.141    23 C    0.980
    22   8 O    1.936 --    21 C    1.657    20 N    0.126
    23   6 C    3.861 --    24 C    1.002    21 C    0.980    25 O    0.895
                             5 C    0.833
    24   6 C    3.985 --    23 C    1.002    42 H    0.980    41 H    0.980
                            40 H    0.974
    25   8 O    1.967 --     5 C    0.907    23 C    0.895
    26   1 H    1.005 --     1 C    0.980
    27   1 H    1.008 --     1 C    0.985
    28   1 H    1.005 --     1 C    0.980
    29   1 H    1.008 --     9 C    0.982
    30   1 H    1.010 --     9 C    0.983
    31   1 H    1.003 --     9 C    0.985
    32   1 H    1.009 --    10 C    0.977
    33   1 H    1.001 --    10 C    0.985
    34   1 H    1.001 --    10 C    0.984
    35   1 H    0.937 --    11 N    0.893
    36   1 H    0.996 --    18 C    0.961
    37   1 H    0.997 --    18 C    0.965
    38   1 H    0.998 --    18 C    0.982
    39   1 H    0.929 --    20 N    0.884
    40   1 H    1.002 --    24 C    0.974
    41   1 H    1.000 --    24 C    0.980
    42   1 H    1.008 --    24 C    0.980
 ---------------------------------------------------------------------------

           -------------------------------------------------
          | TOTAL ENERGY              -83.005931176718 Eh   |
          | GRADIENT NORM               0.000457062510 Eh/α |
          | HOMO-LUMO GAP               3.707909937092 eV   |
           -------------------------------------------------

 * finished run on 2023/06/21 at 17:57:10.958
