   * xtb version 6.5.1 (579679a) compiled by 'ehlert@majestix' on 2022-07-11
          program call               : /lustre/hpc/kemi/ree/PhD/git/ReactivityQM/dep/xtb-6.5.1/bin/xtb --gfn 1 /lustre/hpc/kemi/ree/PhD/git/ReactivityQM/calculations/R02methylcation/reac01prodE08/conf08/R02methylcation_reac01prodE08_conf08_gfn1.xyz --opt --vfukui --chrg -2 --uhf 0 --alpb DMSO

   ID    Z sym.   atoms
    1    6 C      1, 3, 5, 7-10, 12, 14, 15, 18, 19, 22, 24
    2    8 O      2, 4, 13, 20, 23, 25
    3    7 N      6, 11, 16, 17, 21
    4    1 H      26-42

      * Solvation model:               ALPB
        Solvent                        DMSO
        Solvent mass                       7.8130E+01 g/mol
          :  Hamiltonian                  GFN1-xTB          :
 * total energy  :   -83.6242615 Eh     change       -0.1028013E-09 Eh
 * total energy  :   -83.6357333 Eh     change       -0.1147175E-01 Eh
 * total energy  :   -83.6396873 Eh     change       -0.3954023E-02 Eh
 * total energy  :   -83.6402872 Eh     change       -0.5999281E-03 Eh
 * total energy  :   -83.6408105 Eh     change       -0.5232598E-03 Eh
 * total energy  :   -83.6410476 Eh     change       -0.2371452E-03 Eh
 * total energy  :   -83.6412373 Eh     change       -0.1896924E-03 Eh
 * total energy  :   -83.6413474 Eh     change       -0.1100750E-03 Eh
 * total energy  :   -83.6414245 Eh     change       -0.7707385E-04 Eh
 * total energy  :   -83.6415007 Eh     change       -0.7620673E-04 Eh
 * total energy  :   -83.6436886 Eh     change       -0.1571442E-04 Eh
 * total energy  :   -83.6437052 Eh     change       -0.1665781E-04 Eh
 * total energy  :   -83.6437170 Eh     change       -0.1178385E-04 Eh
 * total energy  :   -83.6437302 Eh     change       -0.1317095E-04 Eh
 * total energy  :   -83.6437423 Eh     change       -0.1217983E-04 Eh
 * total energy  :   -83.6437512 Eh     change       -0.8842411E-05 Eh
 * total energy  :   -83.6437521 Eh     change       -0.9178058E-06 Eh
 * total energy  :   -83.6437578 Eh     change       -0.5702379E-05 Eh
 * total energy  :   -83.6437627 Eh     change       -0.4911374E-05 Eh
   *** GEOMETRY OPTIMIZATION CONVERGED AFTER 44 ITERATIONS ***

 final structure:
================
42
 xtb: 6.5.1 (579679a)
C            4.95624616259926        3.22968977929526       -0.16372693903828
O            3.98514206715703        2.19534911231210       -0.16231857918317
C            4.12797487615621        1.25289250235241       -1.14941046520949
O            5.03526549889570        1.35368694502198       -1.96271804591084
C            3.12584094906453        0.20692272577749       -1.07218501629771
N            2.21127741413797        0.33824123968864       -0.04328166289266
C            1.29211621437136       -0.53642548346933        0.13393286259273
C            0.30133425948251       -0.40004630799137        1.27604810524780
C            0.44606928277258       -1.60449085994572        2.22332111418679
C            0.58814803547385        0.90571840938178        2.02737665279437
N           -1.04415337294751       -0.36711279945772        0.69825455177837
C           -2.17640693701781       -0.30111354383046        1.45009970837152
O           -2.17107644243600       -0.09244261392885        2.66552078574922
C           -3.48086372835023       -0.30641443763921        0.63214971182795
C           -4.57357537639549       -1.09522361362166        1.37897488681867
N           -3.82803442114218        1.11326472101175        0.48184999042498
N           -3.84258939016786        1.34332983143278       -0.86032725597269
C           -3.55213869005241        0.27865389138608       -1.50953450890012
C           -3.51395239754581        0.08256008180846       -2.98485255406014
O           -3.27811925531252       -0.82897018237053       -0.67518797963764
N            1.17245490082166       -1.64004511976461       -0.69084000456411
C            2.01765871973804       -1.90498541337419       -1.73700328591325
O            1.86439435164036       -2.92864875873103       -2.40117064046166
C            3.10276519484458       -0.88098895192440       -1.98519289478325
O            3.88596144894467       -1.05751883219223       -2.93692752905883
H            4.71812274857125        3.89566818347871        0.66479262845718
H            4.93100006823440        3.78882097579106       -1.10488688711336
H            5.96208680376606        2.81907006277771       -0.02720215375143
H           -0.20920309606878       -1.48638502830465        3.08477856922846
H            1.47583937054452       -1.67666187156270        2.56988824568613
H            0.18263477813989       -2.52611609091223        1.70781211311297
H            0.46037572692794        1.75805534466525        1.35965826429937
H            1.61708920704749        0.89612708621936        2.38497372218644
H           -0.08046334446682        1.01195220277957        2.87933518127237
H           -1.14889536572709       -0.76966263951039       -0.22430509664047
H           -4.65217021733468       -0.72290033011813        2.39894707084392
H           -4.32528085764308       -2.15530220542732        1.39714452082101
H           -5.52619177395011       -0.95872022552165        0.87122649463711
H           -4.18539031508793       -0.72449412038393       -3.28611532874267
H           -2.50961615691916       -0.17315965663205       -3.33230320971852
H           -3.82972774158221        1.00277237576773       -3.47450860202245
H            0.46805180080404       -2.33494838431064       -0.50208454047578

          :  Hamiltonian                  GFN1-xTB          :
         :: total energy             -83.643762722738 Eh    ::
         :: gradient norm              0.000727005576 Eh/a0 ::
         :: HOMO-LUMO gap              0.296011769996 eV    ::
         :: SCC energy               -84.382904222022 Eh    ::
         :: -> Gsolv                  -0.263066645205 Eh    ::
         :: repulsion energy           0.765497006237 Eh    ::

    * Orbital Energies and Occupations

         #    Occupation            Energy/Eh            Energy/eV
      -------------------------------------------------------------
         1        2.0000           -0.7931618             -21.5830
       ...           ...                  ...                  ...
        56        2.0000           -0.4484519             -12.2030
        57        2.0000           -0.4467842             -12.1576
        58        2.0000           -0.4328241             -11.7777
        59        2.0000           -0.4320963             -11.7579
        60        2.0000           -0.4096094             -11.1460
        61        2.0000           -0.4070663             -11.0768
        62        2.0000           -0.4024138             -10.9502
        63        2.0000           -0.3994173             -10.8687
        64        2.0000           -0.3779223             -10.2838
        65        2.0000           -0.3713181             -10.1041
        66        2.0000           -0.3591876              -9.7740
        67        2.0000           -0.3492375              -9.5032
        68        1.9935           -0.2754426              -7.4952 (HOMO)
        69        0.0065           -0.2645644              -7.1992 (LUMO)
        70                         -0.2309762              -6.2852
        71                         -0.2083915              -5.6706
        72                         -0.1909380              -5.1957
        73                         -0.1619946              -4.4081
        74                         -0.1208291              -3.2879
        75                         -0.1107170              -3.0128
        76                         -0.1071844              -2.9166
        77                         -0.1027194              -2.7951
        78                         -0.0998711              -2.7176
        79                         -0.0883123              -2.4031
       ...                                ...                  ...
       134                          0.7691744              20.9303
      -------------------------------------------------------------
                  HL-Gap            0.0108782 Eh            0.2960 eV

Wiberg/Mayer (AO) data.
largest (>0.10) Wiberg bond orders for each atom

     #   Z sym  total        # sym  WBO       # sym  WBO       # sym  WBO
 ---------------------------------------------------------------------------
     1   6 C    3.902 --    26 H    0.987    28 H    0.980    27 H    0.980
                             2 O    0.930
     2   8 O    2.132 --     3 C    1.018     1 C    0.930     4 O    0.107
     3   6 C    3.847 --     4 O    1.586     5 C    1.127     2 O    1.018
     4   8 O    1.863 --     3 C    1.586     2 O    0.107
     5   6 C    3.916 --    24 C    1.267     6 N    1.150     3 C    1.127
                            25 O    0.129
     6   7 N    3.027 --     7 C    1.637     5 C    1.150
     7   6 C    3.929 --     6 N    1.637    21 N    1.089     8 C    0.977
     8   6 C    3.952 --    10 C    0.997     9 C    0.981     7 C    0.977
                            11 N    0.933
     9   6 C    3.992 --    30 H    0.987    31 H    0.984     8 C    0.981
                            29 H    0.981
    10   6 C    3.995 --     8 C    0.997    33 H    0.987    32 H    0.986
                            34 H    0.982
    11   7 N    3.294 --    12 C    1.217     8 C    0.933    35 H    0.903
                            13 O    0.141
    12   6 C    3.866 --    13 O    1.556    11 N    1.217    14 C    0.923
    13   8 O    1.863 --    12 C    1.556    11 N    0.141
    14   6 C    3.896 --    16 N    0.977    15 C    0.970    12 C    0.923
                            20 O    0.923
    15   6 C    3.995 --    37 H    0.988    38 H    0.987    36 H    0.986
                            14 C    0.970
    16   7 N    2.613 --    17 N    1.194    14 C    0.977    18 C    0.209
    17   7 N    3.019 --    18 C    1.666    16 N    1.194
    18   6 C    3.859 --    17 N    1.666    19 C    1.017    20 O    0.918
                            16 N    0.209
    19   6 C    3.996 --    18 C    1.017    41 H    0.987    39 H    0.977
                            40 H    0.976
    20   8 O    2.063 --    14 C    0.923    18 C    0.918
    21   7 N    3.426 --    22 C    1.163     7 C    1.089    42 H    0.898
                            23 O    0.135
    22   6 C    3.877 --    23 O    1.574    21 N    1.163    24 C    0.969
    23   8 O    1.852 --    22 C    1.574    21 N    0.135
    24   6 C    3.941 --    25 O    1.520     5 C    1.267    22 C    0.969
    25   8 O    1.823 --    24 C    1.520     5 C    0.129
    26   1 H    1.017 --     1 C    0.987
    27   1 H    1.015 --     1 C    0.980
    28   1 H    1.015 --     1 C    0.980
    29   1 H    1.014 --     9 C    0.981
    30   1 H    1.005 --     9 C    0.987
    31   1 H    1.005 --     9 C    0.984
    32   1 H    1.014 --    10 C    0.986
    33   1 H    1.016 --    10 C    0.987
    34   1 H    1.020 --    10 C    0.982
    35   1 H    0.964 --    11 N    0.903
    36   1 H    1.019 --    15 C    0.986
    37   1 H    1.011 --    15 C    0.988
    38   1 H    1.020 --    15 C    0.987
    39   1 H    1.009 --    19 C    0.977
    40   1 H    1.010 --    19 C    0.976
    41   1 H    1.010 --    19 C    0.987
    42   1 H    0.947 --    21 N    0.898
 ---------------------------------------------------------------------------

           -------------------------------------------------
          | TOTAL ENERGY              -83.643762722738 Eh   |
          | GRADIENT NORM               0.000727005576 Eh/α |
          | HOMO-LUMO GAP               0.296011769996 eV   |
           -------------------------------------------------

 * finished run on 2023/06/21 at 17:18:58.533
