   * xtb version 6.5.1 (579679a) compiled by 'ehlert@majestix' on 2022-07-11
          program call               : /lustre/hpc/kemi/ree/PhD/git/ReactivityQM/dep/xtb-6.5.1/bin/xtb --gfn 1 /lustre/hpc/kemi/ree/PhD/git/ReactivityQM/calculations/R02methylcation/reac01prodE04/conf19/R02methylcation_reac01prodE04_conf19_gfn1.xyz --opt --vfukui --chrg -2 --uhf 0 --alpb DMSO

   ID    Z sym.   atoms
    1    6 C      1, 3, 5, 6, 8-11, 13, 15, 18, 19, 22, 24
    2    8 O      2, 4, 14, 20, 23, 25
    3    7 N      7, 12, 16, 17, 21
    4    1 H      26-42

      * Solvation model:               ALPB
        Solvent                        DMSO
        Solvent mass                       7.8130E+01 g/mol
          :  Hamiltonian                  GFN1-xTB          :
 * total energy  :   -83.5771799 Eh     change       -0.7641177E-10 Eh
 * total energy  :   -83.5989318 Eh     change       -0.2175193E-01 Eh
 * total energy  :   -83.6060358 Eh     change       -0.7103966E-02 Eh
 * total energy  :   -83.6075616 Eh     change       -0.1525795E-02 Eh
 * total energy  :   -83.6084264 Eh     change       -0.8648598E-03 Eh
 * total energy  :   -83.6087766 Eh     change       -0.3501614E-03 Eh
 * total energy  :   -83.6090298 Eh     change       -0.2532499E-03 Eh
 * total energy  :   -83.6093535 Eh     change       -0.3236357E-03 Eh
 * total energy  :   -83.6097140 Eh     change       -0.3605350E-03 Eh
 * total energy  :   -83.6100375 Eh     change       -0.3234428E-03 Eh
 * total energy  :   -83.6150898 Eh     change       -0.1054793E-04 Eh
 * total energy  :   -83.6150994 Eh     change       -0.9619295E-05 Eh
 * total energy  :   -83.6151088 Eh     change       -0.9390593E-05 Eh
 * total energy  :   -83.6151182 Eh     change       -0.9472603E-05 Eh
 * total energy  :   -83.6151277 Eh     change       -0.9428823E-05 Eh
 * total energy  :   -83.6151367 Eh     change       -0.9064236E-05 Eh
 * total energy  :   -83.6151447 Eh     change       -0.7971995E-05 Eh
 * total energy  :   -83.6151512 Eh     change       -0.6479425E-05 Eh
 * total energy  :   -83.6151561 Eh     change       -0.4942156E-05 Eh
   *** GEOMETRY OPTIMIZATION CONVERGED AFTER 66 ITERATIONS ***

 final structure:
================
42
 xtb: 6.5.1 (579679a)
C           -6.00975224281069       -1.04187317429944       -0.73047571602432
O           -5.08877240792390       -0.15741453536897       -0.10703884717288
C           -3.78393071423602       -0.31104727991917       -0.45388503493552
O           -3.43714463255971       -1.15229195110197       -1.27109714521156
C           -2.85299586959789        0.55753687051719        0.37501935494981
C           -3.47729743532283        1.90994929204581        0.72812717509895
N           -1.61657131715581        0.77381247511262       -0.35791090170734
C           -0.73704909584138       -0.15952904289771       -0.32351064693074
C            0.48570016002460       -0.07232129661123       -1.22693350310794
C            0.31623837467527       -1.12543989998253       -2.33265904563216
C            0.59073342136246        1.33335598795975       -1.83323380690832
N            1.65892930048113       -0.37599497220334       -0.39993506476595
C            2.95036691384710       -0.25406363017306       -0.93801868478019
O            3.20307980710871       -0.39985711859121       -2.15159384798863
C            3.91623789251040        0.00363589715291        0.08381395909073
N            3.65764696755903        0.20160446841375        1.38018363747631
N            4.85986624385302        0.45675508742190        1.98087008485054
C            5.76774871276000        0.40805211367351        1.06221240295853
C            7.22552374970870        0.62591312549386        1.23460581875804
O            5.26848859647907        0.12793575475603       -0.16518036067655
N           -0.84113093459302       -1.27523796944140        0.44611397313613
C           -1.70349918598749       -1.33205860264021        1.59102265186451
O           -1.42641065169801       -2.20868060110514        2.46071530541738
C           -2.71768171498729       -0.34905366924754        1.63361769524338
O           -3.54381247656820       -0.17636024691060        2.59356581735002
H           -5.99227137833673       -0.91152661136448       -1.81699286206847
H           -6.99933465603515       -0.79479491077507       -0.34896032188753
H           -5.77098504094449       -2.08459775455300       -0.49688934207443
H           -2.75024722958327        2.51234396597330        1.27316185562803
H           -4.35688535088521        1.76783260119527        1.35533988949325
H           -3.76567808040482        2.44451925354206       -0.17626605405496
H           -0.64245518511183       -0.97411759241863       -2.82947786029185
H            0.33518661161463       -2.12641751552426       -1.90266651910134
H            1.11245838658721       -1.04463967421470       -3.06998876977082
H            1.42579943059792        1.38561260577354       -2.52986365258607
H            0.73584628428788        2.07197132570350       -1.04530507083063
H           -0.33072989391884        1.57055076767110       -2.36416776379492
H            1.60132912982121        0.03135081915372        0.52968148766686
H            7.56429621225210        1.44547473725878        0.60071547860606
H            7.43591501595536        0.86545498602586        2.27420579229598
H            7.78082729660598       -0.26890739029774        0.95248068337099
H           -0.04758501359159       -1.89743669520432        0.48728875904916

          :  Hamiltonian                  GFN1-xTB          :
         :: total energy             -83.615156130437 Eh    ::
         :: gradient norm              0.000189016230 Eh/a0 ::
         :: HOMO-LUMO gap              0.038033609244 eV    ::
         :: SCC energy               -84.341565367101 Eh    ::
         :: -> Gsolv                  -0.272143916077 Eh    ::
         :: repulsion energy           0.753037609271 Eh    ::

    * Orbital Energies and Occupations

         #    Occupation            Energy/Eh            Energy/eV
      -------------------------------------------------------------
         1        2.0000           -0.8032819             -21.8584
       ...           ...                  ...                  ...
        56        2.0000           -0.4469856             -12.1631
        57        2.0000           -0.4431030             -12.0574
        58        2.0000           -0.4313575             -11.7378
        59        2.0000           -0.4248790             -11.5615
        60        2.0000           -0.4102875             -11.1645
        61        2.0000           -0.4069019             -11.0724
        62        2.0000           -0.4060781             -11.0499
        63        2.0000           -0.3997646             -10.8781
        64        2.0000           -0.3906132             -10.6291
        65        2.0000           -0.3799080             -10.3378
        66        2.0000           -0.3758844             -10.2283
        67        2.0000           -0.3462691              -9.4225
        68        1.3521           -0.2704648              -7.3597 (HOMO)
        69        0.6479           -0.2690671              -7.3217 (LUMO)
        70                         -0.2221188              -6.0442
        71                         -0.2116405              -5.7590
        72                         -0.2021607              -5.5011
        73                         -0.1427947              -3.8856
        74                         -0.1248968              -3.3986
        75                         -0.1227764              -3.3409
        76                         -0.1151643              -3.1338
        77                         -0.0955044              -2.5988
        78                         -0.0929941              -2.5305
        79                         -0.0891664              -2.4263
       ...                                ...                  ...
       134                          0.7122035              19.3800
      -------------------------------------------------------------
                  HL-Gap            0.0013977 Eh            0.0380 eV

Wiberg/Mayer (AO) data.
largest (>0.10) Wiberg bond orders for each atom

     #   Z sym  total        # sym  WBO       # sym  WBO       # sym  WBO
 ---------------------------------------------------------------------------
     1   6 C    3.897 --    27 H    0.987    26 H    0.981    28 H    0.981
                             2 O    0.921
     2   8 O    2.153 --     3 C    1.045     1 C    0.921     4 O    0.108
     3   6 C    3.777 --     4 O    1.596     2 O    1.045     5 C    0.945
     4   8 O    1.853 --     3 C    1.596     2 O    0.108
     5   6 C    3.959 --     6 C    0.992     7 N    0.981     3 C    0.945
                            24 C    0.875
     6   6 C    3.990 --     5 C    0.992    31 H    0.989    29 H    0.987
                            30 H    0.983
     7   7 N    2.940 --     8 C    1.654     5 C    0.981    21 N    0.148
     8   6 C    3.932 --     7 N    1.654    21 N    1.175     9 C    0.970
     9   6 C    3.949 --    11 C    0.992    10 C    0.985     8 C    0.970
                            12 N    0.939
    10   6 C    3.994 --    32 H    0.987    33 H    0.986     9 C    0.985
                            34 H    0.980
    11   6 C    3.993 --     9 C    0.992    36 H    0.986    37 H    0.985
                            35 H    0.985
    12   7 N    3.141 --    13 C    1.076     9 C    0.939    38 H    0.919
                            14 O    0.107
    13   6 C    3.749 --    14 O    1.456    15 C    1.150    12 N    1.076
    14   8 O    1.696 --    13 C    1.456    12 N    0.107
    15   6 C    3.698 --    16 N    1.398    13 C    1.150    20 O    0.979
    16   7 N    2.749 --    15 C    1.398    17 N    1.185
    17   7 N    2.980 --    18 C    1.628    16 N    1.185
    18   6 C    3.821 --    17 N    1.628    20 O    1.051    19 C    1.024
    19   6 C    3.994 --    18 C    1.024    40 H    0.986    39 H    0.971
                            41 H    0.971
    20   8 O    2.187 --    18 C    1.051    15 C    0.979
    21   7 N    3.325 --     8 C    1.175    22 C    0.962    42 H    0.912
                             7 N    0.148
    22   6 C    3.746 --    23 O    1.390    24 C    1.243    21 N    0.962
    23   8 O    1.601 --    22 C    1.390
    24   6 C    3.730 --    25 O    1.372    22 C    1.243     5 C    0.875
    25   8 O    1.576 --    24 C    1.372
    26   1 H    1.013 --     1 C    0.981
    27   1 H    1.015 --     1 C    0.987
    28   1 H    1.012 --     1 C    0.981
    29   1 H    1.013 --     6 C    0.987
    30   1 H    1.027 --     6 C    0.983
    31   1 H    1.010 --     6 C    0.989
    32   1 H    1.010 --    10 C    0.987
    33   1 H    1.009 --    10 C    0.986
    34   1 H    1.023 --    10 C    0.980
    35   1 H    1.013 --    11 C    0.985
    36   1 H    1.011 --    11 C    0.986
    37   1 H    1.020 --    11 C    0.985
    38   1 H    0.981 --    12 N    0.919
    39   1 H    1.001 --    19 C    0.971
    40   1 H    1.004 --    19 C    0.986
    41   1 H    1.001 --    19 C    0.971
    42   1 H    0.971 --    21 N    0.912
 ---------------------------------------------------------------------------

           -------------------------------------------------
          | TOTAL ENERGY              -83.615156130437 Eh   |
          | GRADIENT NORM               0.000189016230 Eh/α |
          | HOMO-LUMO GAP               0.038033609244 eV   |
           -------------------------------------------------

 * finished run on 2023/06/21 at 17:10:58.413
