   * xtb version 6.5.1 (579679a) compiled by 'ehlert@majestix' on 2022-07-11
          program call               : /lustre/hpc/kemi/ree/PhD/git/ReactivityQM/dep/xtb-6.5.1/bin/xtb --gfn 1 /lustre/hpc/kemi/ree/PhD/git/ReactivityQM/calculations/R02methylcation/reac01prodE08/conf01/R02methylcation_reac01prodE08_conf01_gfn1.xyz --opt --vfukui --chrg -2 --uhf 0 --alpb DMSO

   ID    Z sym.   atoms
    1    6 C      1, 3, 5, 7-10, 12, 14, 15, 18, 19, 22, 24
    2    8 O      2, 4, 13, 20, 23, 25
    3    7 N      6, 11, 16, 17, 21
    4    1 H      26-42

      * Solvation model:               ALPB
        Solvent                        DMSO
        Solvent mass                       7.8130E+01 g/mol
          :  Hamiltonian                  GFN1-xTB          :
 * total energy  :   -83.6225634 Eh     change        0.5684342E-13 Eh
 * total energy  :   -83.6362734 Eh     change       -0.1371002E-01 Eh
 * total energy  :   -83.6413399 Eh     change       -0.5066489E-02 Eh
 * total energy  :   -83.6422604 Eh     change       -0.9204959E-03 Eh
 * total energy  :   -83.6428680 Eh     change       -0.6075909E-03 Eh
 * total energy  :   -83.6430643 Eh     change       -0.1963376E-03 Eh
 * total energy  :   -83.6431996 Eh     change       -0.1353114E-03 Eh
 * total energy  :   -83.6432872 Eh     change       -0.8763707E-04 Eh
 * total energy  :   -83.6433594 Eh     change       -0.7214683E-04 Eh
 * total energy  :   -83.6434213 Eh     change       -0.6195943E-04 Eh
 * total energy  :   -83.6443781 Eh     change       -0.3090765E-04 Eh
 * total energy  :   -83.6443913 Eh     change       -0.1317891E-04 Eh
 * total energy  :   -83.6444263 Eh     change       -0.3495607E-04 Eh
 * total energy  :   -83.6444470 Eh     change       -0.2075525E-04 Eh
 * total energy  :   -83.6444671 Eh     change       -0.2010417E-04 Eh
 * total energy  :   -83.6444845 Eh     change       -0.1738799E-04 Eh
 * total energy  :   -83.6444996 Eh     change       -0.1512681E-04 Eh
 * total energy  :   -83.6445070 Eh     change       -0.7335446E-05 Eh
 * total energy  :   -83.6445107 Eh     change       -0.3703237E-05 Eh
   *** GEOMETRY OPTIMIZATION CONVERGED AFTER 45 ITERATIONS ***

 final structure:
================
42
 xtb: 6.5.1 (579679a)
C            4.62568886631022       -0.39564818345055        3.50157826502995
O            4.33994373835930        0.24938494359187        2.27122386730325
C            3.13885309941890       -0.05584171507453        1.70720758929485
O            2.37215546095252       -0.82801027094167        2.27071697629458
C            2.88833781342407        0.59167391804028        0.42925178419708
N            1.64943463006786        0.27830145412307       -0.10417752452554
C            1.29402308669939        0.73275014384123       -1.24664261271749
C           -0.04377160284961        0.36644457430661       -1.86723511474434
C            0.20188456810125       -0.57647213186857       -3.05852301433861
C           -0.79212541812629        1.62673002065493       -2.33357618061565
N           -0.82763691430996       -0.31272133368140       -0.85211472336097
C           -2.06185619696568       -0.80230538796224       -1.01448873860946
O           -2.66889733884725       -0.83959975537937       -2.08542192362392
C           -2.64087281484330       -1.37278303660788        0.33056480414043
C           -2.80698579310686       -2.89447210886910        0.13897160992838
N           -1.75277534075493       -1.05164638075169        1.43424652442892
N           -2.47865878440113       -0.23875767089953        2.26751487977203
C           -3.66421551928215       -0.08272913578153        1.81117181936406
C           -4.77759146041837        0.71014547290036        2.40359206521870
O           -3.90058736601492       -0.76512103783231        0.60557211369787
N            2.12846290278682        1.54556934840692       -1.99240275987212
C            3.36712358527438        1.95724020835963       -1.57612808023660
O            4.03433316212824        2.70104425846693       -2.29538377357063
C            3.81812173275527        1.43516109249625       -0.23333626959036
O            4.94611812824648        1.76572914872712        0.18402672788042
H            4.62937175885581       -1.48378599838174        3.37919983692931
H            5.61271370858376       -0.05999575654097        3.81702161280795
H            3.88595202735060       -0.13079371344271        4.26433601969355
H            0.68316251568332       -1.49258119951561       -2.71769510120128
H            0.84668233426474       -0.08979825041731       -3.78755303881094
H           -0.74204604241891       -0.82766596234786       -3.53914462303692
H           -0.23751055494793        2.12811509365336       -3.12333712416278
H           -1.76938852121696        1.34830655693853       -2.72526509084386
H           -0.92422434191623        2.31672651311819       -1.50091240746121
H           -0.49248318942018       -0.30815374042640        0.12605901796906
H           -3.44573040400759       -3.09912742265382       -0.71900782563775
H           -3.25707905772731       -3.32053706002289        1.03340169224568
H           -1.82912971427825       -3.34640491344170       -0.01841474816389
H           -5.63276141659723        0.07359173673561        2.64077229461508
H           -5.12087453921031        1.48459170392310        1.71436759408235
H           -4.43105188854053        1.18353033296448        3.32059502269778
H            1.83589210093727        1.87991364503812       -2.89486044246760

          :  Hamiltonian                  GFN1-xTB          :
         :: total energy             -83.644510679218 Eh    ::
         :: gradient norm              0.000946412998 Eh/a0 ::
         :: HOMO-LUMO gap              0.249411235333 eV    ::
         :: SCC energy               -84.383818355242 Eh    ::
         :: -> Gsolv                  -0.272447139571 Eh    ::
         :: repulsion energy           0.765614849355 Eh    ::

    * Orbital Energies and Occupations

         #    Occupation            Energy/Eh            Energy/eV
      -------------------------------------------------------------
         1        2.0000           -0.7934447             -21.5907
       ...           ...                  ...                  ...
        56        2.0000           -0.4490381             -12.2189
        57        2.0000           -0.4441135             -12.0849
        58        2.0000           -0.4326429             -11.7728
        59        2.0000           -0.4306926             -11.7197
        60        2.0000           -0.4106101             -11.1733
        61        2.0000           -0.4037811             -10.9874
        62        2.0000           -0.3991418             -10.8612
        63        2.0000           -0.3966519             -10.7934
        64        2.0000           -0.3748749             -10.2009
        65        2.0000           -0.3729202             -10.1477
        66        2.0000           -0.3594154              -9.7802
        67        2.0000           -0.3478702              -9.4660
        68        1.9841           -0.2741127              -7.4590 (HOMO)
        69        0.0159           -0.2649470              -7.2096 (LUMO)
        70                         -0.2306691              -6.2768
        71                         -0.2054807              -5.5914
        72                         -0.1914266              -5.2090
        73                         -0.1613524              -4.3906
        74                         -0.1202897              -3.2733
        75                         -0.1172983              -3.1919
        76                         -0.1075876              -2.9276
        77                         -0.1072514              -2.9185
        78                         -0.1010734              -2.7503
        79                         -0.0900604              -2.4507
       ...                                ...                  ...
       134                          0.7548844              20.5414
      -------------------------------------------------------------
                  HL-Gap            0.0091657 Eh            0.2494 eV

Wiberg/Mayer (AO) data.
largest (>0.10) Wiberg bond orders for each atom

     #   Z sym  total        # sym  WBO       # sym  WBO       # sym  WBO
 ---------------------------------------------------------------------------
     1   6 C    3.902 --    27 H    0.987    26 H    0.980    28 H    0.980
                             2 O    0.929
     2   8 O    2.153 --     3 C    1.038     1 C    0.929     4 O    0.108
     3   6 C    3.845 --     4 O    1.576     5 C    1.119     2 O    1.038
     4   8 O    1.851 --     3 C    1.576     2 O    0.108
     5   6 C    3.914 --    24 C    1.274     6 N    1.148     3 C    1.119
                            25 O    0.130
     6   7 N    3.039 --     7 C    1.640     5 C    1.148
     7   6 C    3.930 --     6 N    1.640    21 N    1.088     8 C    0.978
     8   6 C    3.955 --    10 C    0.983     9 C    0.979     7 C    0.978
                            11 N    0.946
     9   6 C    3.992 --    30 H    0.987    29 H    0.986    31 H    0.980
                             8 C    0.979
    10   6 C    3.993 --    34 H    0.986    32 H    0.984     8 C    0.983
                            33 H    0.981
    11   7 N    3.357 --    12 C    1.301     8 C    0.946    35 H    0.855
                            13 O    0.165
    12   6 C    3.864 --    13 O    1.564    11 N    1.301    14 C    0.887
    13   8 O    1.860 --    12 C    1.564    11 N    0.165
    14   6 C    3.898 --    16 N    1.020    15 C    0.964    20 O    0.920
                            12 C    0.887
    15   6 C    3.995 --    38 H    0.988    36 H    0.987    37 H    0.985
                            14 C    0.964
    16   7 N    2.638 --    17 N    1.170    14 C    1.020    18 C    0.205
    17   7 N    3.006 --    18 C    1.676    16 N    1.170
    18   6 C    3.862 --    17 N    1.676    19 C    1.015    20 O    0.933
                            16 N    0.205
    19   6 C    3.996 --    18 C    1.015    41 H    0.987    40 H    0.978
                            39 H    0.977
    20   8 O    2.058 --    18 C    0.933    14 C    0.920
    21   7 N    3.420 --    22 C    1.163     7 C    1.088    42 H    0.899
                            23 O    0.134
    22   6 C    3.873 --    23 O    1.566    21 N    1.163    24 C    0.974
    23   8 O    1.846 --    22 C    1.566    21 N    0.134
    24   6 C    3.941 --    25 O    1.508     5 C    1.274    22 C    0.974
    25   8 O    1.812 --    24 C    1.508     5 C    0.130
    26   1 H    1.015 --     1 C    0.980
    27   1 H    1.016 --     1 C    0.987
    28   1 H    1.015 --     1 C    0.980
    29   1 H    1.007 --     9 C    0.986
    30   1 H    1.004 --     9 C    0.987
    31   1 H    1.017 --     9 C    0.980
    32   1 H    1.003 --    10 C    0.984
    33   1 H    1.013 --    10 C    0.981
    34   1 H    1.006 --    10 C    0.986
    35   1 H    1.007 --    11 N    0.855
    36   1 H    1.012 --    15 C    0.987
    37   1 H    1.020 --    15 C    0.985
    38   1 H    1.016 --    15 C    0.988
    39   1 H    1.010 --    19 C    0.977
    40   1 H    1.010 --    19 C    0.978
    41   1 H    1.010 --    19 C    0.987
    42   1 H    0.951 --    21 N    0.899
 ---------------------------------------------------------------------------

           -------------------------------------------------
          | TOTAL ENERGY              -83.644510679218 Eh   |
          | GRADIENT NORM               0.000946412998 Eh/α |
          | HOMO-LUMO GAP               0.249411235333 eV   |
           -------------------------------------------------

 * finished run on 2023/06/21 at 17:18:43.507
