                         Program Version 5.0.1 -  RELEASE  -
|  1> # ORCA input file
|  2> ! SP r2SCAN-3c CPCM
|  3>
|  4> %maxcore 1875.0
|  5> %pal nprocs 4 end
|  6> %cpcm smd true SMDsolvent "DMSO" end
|  7>
|  8> *xyz -1 1
|  9> C      -3.459754    1.789819    1.857321
| 10> O      -3.962400    0.606560    1.242185
| 11> C      -3.740301    0.493389   -0.128481
| 12> O      -4.819002    0.902764   -0.922892
| 13> C      -6.045977    0.233398   -0.654036
| 14> C      -2.542928    0.086697   -0.649383
| 15> N      -1.534845   -0.166409    0.301712
| 16> C      -0.380920   -0.559407   -0.098463
| 17> C       0.692613   -0.885576    0.930301
| 18> C       0.796471   -2.407385    1.071585
| 19> C       0.358898   -0.242183    2.278937
| 20> N       1.991241   -0.402316    0.448384
| 21> C       2.214710    0.896116    0.142758
| 22> O       1.360702    1.772870    0.137897
| 23> C       3.621432    1.168435   -0.226220
| 24> N       4.129646    2.295073   -0.634963
| 25> N       5.456816    2.068854   -0.860380
| 26> C       5.678513    0.824963   -0.576185
| 27> C       6.962472    0.093279   -0.647869
| 28> O       4.562068    0.193953   -0.170239
| 29> N      -0.058826   -0.765932   -1.396188
| 30> C      -0.978753   -0.530391   -2.470176
| 31> O      -0.558615   -0.745119   -3.632468
| 32> C      -2.224943   -0.092657   -2.038611
| 33> O      -3.195102    0.142137   -3.027935
| 34> H      -2.362783    1.809720    1.819634
| 35> H      -3.855017    2.691012    1.373039
| 36> H      -3.782674    1.771200    2.899766
| 37> H      -6.805688    0.681821   -1.295186
| 38> H      -6.337920    0.361633    0.394422
| 39> H      -5.968563   -0.838605   -0.875308
| 40> H       1.052981   -2.858783    0.114361
| 41> H      -0.157781   -2.810872    1.407558
| 42> H       1.562884   -2.666667    1.799602
| 43> H       1.133154   -0.475668    3.006905
| 44> H      -0.595868   -0.629032    2.632878
| 45> H       0.279061    0.839239    2.171963
| 46> H       2.778086   -1.021694    0.524981
| 47> H       7.737420    0.750041   -1.035406
| 48> H       7.245639   -0.257233    0.344379
| 49> H       6.861428   -0.777596   -1.294796
| 50> H       0.854255   -1.106045   -1.643099
| 51> H      -3.961832    0.576799   -2.622284
| 52> **                         ****END OF INPUT****

CARTESIAN COORDINATES (ANGSTROEM)
---------------------------------
  C     -3.459754    1.789819    1.857321
  O     -3.962400    0.606560    1.242185
  C     -3.740301    0.493389   -0.128481
  O     -4.819002    0.902764   -0.922892
  C     -6.045977    0.233398   -0.654036
  C     -2.542928    0.086697   -0.649383
  N     -1.534845   -0.166409    0.301712
  C     -0.380920   -0.559407   -0.098463
  C      0.692613   -0.885576    0.930301
  C      0.796471   -2.407385    1.071585
  C      0.358898   -0.242183    2.278937
  N      1.991241   -0.402316    0.448384
  C      2.214710    0.896116    0.142758
  O      1.360702    1.772870    0.137897
  C      3.621432    1.168435   -0.226220
  N      4.129646    2.295073   -0.634963
  N      5.456816    2.068854   -0.860380
  C      5.678513    0.824963   -0.576185
  C      6.962472    0.093279   -0.647869
  O      4.562068    0.193953   -0.170239
  N     -0.058826   -0.765932   -1.396188
  C     -0.978753   -0.530391   -2.470176
  O     -0.558615   -0.745119   -3.632468
  C     -2.224943   -0.092657   -2.038611
  O     -3.195102    0.142137   -3.027935
  H     -2.362783    1.809720    1.819634
  H     -3.855017    2.691012    1.373039
  H     -3.782674    1.771200    2.899766
  H     -6.805688    0.681821   -1.295186
  H     -6.337920    0.361633    0.394422
  H     -5.968563   -0.838605   -0.875308
  H      1.052981   -2.858783    0.114361
  H     -0.157781   -2.810872    1.407558
  H      1.562884   -2.666667    1.799602
  H      1.133154   -0.475668    3.006905
  H     -0.595868   -0.629032    2.632878
  H      0.279061    0.839239    2.171963
  H      2.778086   -1.021694    0.524981
  H      7.737420    0.750041   -1.035406
  H      7.245639   -0.257233    0.344379
  H      6.861428   -0.777596   -1.294796
  H      0.854255   -1.106045   -1.643099
  H     -3.961832    0.576799   -2.622284

 Total Charge           Charge          ....   -1
 Multiplicity           Mult            ....    1
 Number of Electrons    NEL             ....  186
 Basis Dimension        Dim             ....  620

ORBITAL ENERGIES
----------------

  NO   OCC          E(Eh)            E(eV)
   0   2.0000     -19.063965      -518.7569
   1   2.0000     -18.960572      -515.9434
   2   2.0000     -18.945279      -515.5273
   3   2.0000     -18.931511      -515.1526
   4   2.0000     -18.929335      -515.0934
   5   2.0000     -18.860701      -513.2258
   6   2.0000     -14.203903      -386.5078
   7   2.0000     -14.196841      -386.3157
   8   2.0000     -14.195994      -386.2926
   9   2.0000     -14.166464      -385.4891
  10   2.0000     -14.120134      -384.2284
  11   2.0000     -10.153270      -276.2845
  12   2.0000     -10.145887      -276.0836
  13   2.0000     -10.141602      -275.9670
  14   2.0000     -10.089027      -274.5364
  15   2.0000     -10.085540      -274.4415
  16   2.0000     -10.074755      -274.1480
  17   2.0000     -10.072585      -274.0890
  18   2.0000     -10.058129      -273.6956
  19   2.0000     -10.052872      -273.5525
  20   2.0000     -10.044107      -273.3140
  21   2.0000     -10.039931      -273.2004
  22   2.0000     -10.031817      -272.9796
  23   2.0000     -10.021248      -272.6920
  24   2.0000     -10.010268      -272.3932
  25   2.0000      -1.151318       -31.3289
  26   2.0000      -1.017818       -27.6962
  27   2.0000      -1.015943       -27.6452
  28   2.0000      -0.972930       -26.4748
  29   2.0000      -0.968790       -26.3621
  30   2.0000      -0.960828       -26.1455
  31   2.0000      -0.944205       -25.6931
  32   2.0000      -0.915427       -24.9100
  33   2.0000      -0.895615       -24.3709
  34   2.0000      -0.828960       -22.5571
  35   2.0000      -0.824074       -22.4242
  36   2.0000      -0.764385       -20.8000
  37   2.0000      -0.712850       -19.3976
  38   2.0000      -0.708979       -19.2923
  39   2.0000      -0.669879       -18.2283
  40   2.0000      -0.663444       -18.0532
  41   2.0000      -0.656027       -17.8514
  42   2.0000      -0.639782       -17.4094
  43   2.0000      -0.617860       -16.8128
  44   2.0000      -0.601587       -16.3700
  45   2.0000      -0.597303       -16.2534
  46   2.0000      -0.576491       -15.6871
  47   2.0000      -0.536215       -14.5912
  48   2.0000      -0.522262       -14.2115
  49   2.0000      -0.517973       -14.0948
  50   2.0000      -0.501961       -13.6591
  51   2.0000      -0.491716       -13.3803
  52   2.0000      -0.487621       -13.2688
  53   2.0000      -0.465107       -12.6562
  54   2.0000      -0.457130       -12.4391
  55   2.0000      -0.441847       -12.0233
  56   2.0000      -0.432003       -11.7554
  57   2.0000      -0.424348       -11.5471
  58   2.0000      -0.419793       -11.4231
  59   2.0000      -0.409755       -11.1500
  60   2.0000      -0.405322       -11.0294
  61   2.0000      -0.401402       -10.9227
  62   2.0000      -0.399454       -10.8697
  63   2.0000      -0.388341       -10.5673
  64   2.0000      -0.386378       -10.5139
  65   2.0000      -0.383427       -10.4336
  66   2.0000      -0.381513       -10.3815
  67   2.0000      -0.380018       -10.3408
  68   2.0000      -0.371064       -10.0972
  69   2.0000      -0.359351        -9.7784
  70   2.0000      -0.352243        -9.5850
  71   2.0000      -0.345032        -9.3888
  72   2.0000      -0.343605        -9.3500
  73   2.0000      -0.342076        -9.3083
  74   2.0000      -0.323482        -8.8024
  75   2.0000      -0.321069        -8.7367
  76   2.0000      -0.316070        -8.6007
  77   2.0000      -0.312483        -8.5031
  78   2.0000      -0.307974        -8.3804
  79   2.0000      -0.302447        -8.2300
  80   2.0000      -0.298304        -8.1173
  81   2.0000      -0.287349        -7.8192
  82   2.0000      -0.266517        -7.2523
  83   2.0000      -0.260382        -7.0854
  84   2.0000      -0.250298        -6.8110
  85   2.0000      -0.244526        -6.6539
  86   2.0000      -0.239315        -6.5121
  87   2.0000      -0.230779        -6.2798
  88   2.0000      -0.222741        -6.0611
  89   2.0000      -0.210662        -5.7324
  90   2.0000      -0.184011        -5.0072
  91   2.0000      -0.172214        -4.6862
  92   2.0000      -0.096675        -2.6307
  93   0.0000      -0.085868        -2.3366
  94   0.0000      -0.018748        -0.5102
  95   0.0000       0.000304         0.0083
  96   0.0000       0.035657         0.9703
  97   0.0000       0.054351         1.4790

MULLIKEN ATOMIC CHARGES
-----------------------
   0 C :   -0.335472
   1 O :   -0.203966
   2 C :   -0.083524
   3 O :   -0.231298
   4 C :   -0.329060
   5 C :    0.023915
   6 N :   -0.165153
   7 C :    0.178163
   8 C :    0.134097
   9 C :   -0.569393
  10 C :   -0.642176
  11 N :   -0.161534
  12 C :   -0.150143
  13 O :   -0.425078
  14 C :    0.443064
  15 N :   -0.178097
  16 N :   -0.279963
  17 C :    0.393083
  18 C :   -0.633356
  19 O :   -0.058547
  20 N :   -0.076528
  21 C :   -0.150976
  22 O :   -0.458554
  23 C :   -0.229254
  24 O :   -0.419443
  25 H :    0.158689
  26 H :    0.146791
  27 H :    0.154709
  28 H :    0.159873
  29 H :    0.165508
  30 H :    0.150905
  31 H :    0.186044
  32 H :    0.193587
  33 H :    0.184693
  34 H :    0.178877
  35 H :    0.185164
  36 H :    0.194783
  37 H :    0.317101
  38 H :    0.204662
  39 H :    0.201810
  40 H :    0.199977
  41 H :    0.285881
  42 H :    0.340136
Sum of atomic charges:   -1.0000000

LOEWDIN ATOMIC CHARGES
----------------------
   0 C :   -0.070678
   1 O :   -0.679986
   2 C :    0.280474
   3 O :   -0.715483
   4 C :   -0.067714
   5 C :    0.164495
   6 N :   -0.619949
   7 C :    0.328188
   8 C :    0.106396
   9 C :   -0.344798
  10 C :   -0.352217
  11 N :   -0.575080
  12 C :    0.378197
  13 O :   -0.442274
  14 C :    0.416221
  15 N :   -0.335203
  16 N :   -0.362530
  17 C :    0.377869
  18 C :   -0.317611
  19 O :   -0.392820
  20 N :   -0.543581
  21 C :    0.298629
  22 O :   -0.600243
  23 C :    0.125747
  24 O :   -0.551520
  25 H :    0.165984
  26 H :    0.160995
  27 H :    0.171626
  28 H :    0.175276
  29 H :    0.171270
  30 H :    0.163485
  31 H :    0.172357
  32 H :    0.176407
  33 H :    0.170708
  34 H :    0.163866
  35 H :    0.175121
  36 H :    0.179113
  37 H :    0.297703
  38 H :    0.190866
  39 H :    0.192042
  40 H :    0.191192
  41 H :    0.291140
  42 H :    0.286318

  Mayer bond orders larger than 0.100000
B(  0-C ,  1-O ) :   0.8432 B(  0-C , 25-H ) :   0.9618 B(  0-C , 26-H ) :   0.9655
B(  0-C , 27-H ) :   0.9721 B(  1-O ,  2-C ) :   1.0805 B(  2-C ,  3-O ) :   1.0538
B(  2-C ,  5-C ) :   1.6424 B(  3-O ,  4-C ) :   0.8513 B(  4-C , 28-H ) :   0.9678
B(  4-C , 29-H ) :   0.9705 B(  4-C , 30-H ) :   0.9576 B(  5-C ,  6-N ) :   0.8733
B(  5-C , 23-C ) :   0.8781 B(  6-N ,  7-C ) :   1.8450 B(  7-C ,  8-C ) :   0.7769
B(  7-C , 20-N ) :   1.1106 B(  8-C ,  9-C ) :   0.9356 B(  8-C , 10-C ) :   0.8680
B(  8-C , 11-N ) :   0.7867 B(  9-C , 31-H ) :   0.9590 B(  9-C , 32-H ) :   0.9694
B(  9-C , 33-H ) :   0.9666 B( 10-C , 34-H ) :   0.9747 B( 10-C , 35-H ) :   0.9616
B( 10-C , 36-H ) :   0.9721 B( 11-N , 12-C ) :   1.1670 B( 11-N , 37-H ) :   0.8897
B( 12-C , 13-O ) :   1.8955 B( 12-C , 14-C ) :   0.7734 B( 13-O , 14-C ) :  -0.1057
B( 14-C , 15-N ) :   1.7141 B( 14-C , 17-C ) :   0.1149 B( 14-C , 19-O ) :   1.0707
B( 15-N , 16-N ) :   1.2700 B( 16-N , 17-C ) :   1.6304 B( 17-C , 18-C ) :   0.8281
B( 17-C , 19-O ) :   1.0658 B( 18-C , 38-H ) :   0.9902 B( 18-C , 39-H ) :   0.9398
B( 18-C , 40-H ) :   0.9446 B( 20-N , 21-C ) :   0.8828 B( 20-N , 41-H ) :   0.8948
B( 21-C , 22-O ) :   2.1141 B( 21-C , 23-C ) :   1.2400 B( 23-C , 24-O ) :   1.0032
B( 24-O , 42-H ) :   0.8123

Dispersion correction           -0.019388080
FINAL SINGLE POINT ENERGY     -1269.302390641950

DIPOLE MOMENT
-------------
                                X             Y             Z
Electronic contribution:     11.28425       5.62222     -10.97083
Nuclear contribution   :     -6.08353      -8.23360      15.61237
                        -----------------------------------------
Total Dipole Moment    :      5.20071      -2.61139       4.64154
                        -----------------------------------------
Magnitude (a.u.)       :      7.44384
Magnitude (Debye)      :     18.92073

Rotational constants in cm-1:     0.015152     0.003551     0.003322
Rotational constants in MHz :   454.232271   106.464456    99.577454

                             ****ORCA TERMINATED NORMALLY****
TOTAL RUN TIME: 0 days 0 hours 2 minutes 34 seconds 43 msec
