   * xtb version 6.5.1 (579679a) compiled by 'ehlert@majestix' on 2022-07-11
          program call               : /lustre/hpc/kemi/ree/PhD/git/ReactivityQM/dep/xtb-6.5.1/bin/xtb --gfn 1 /lustre/hpc/kemi/ree/PhD/git/ReactivityQM/calculations/R02/reac01prodE03/conf04/R02_reac01prodE03_conf04_gfn1.xyz --opt --vfukui --chrg -1 --uhf 0 --alpb DMSO

   ID    Z sym.   atoms
    1    6 C      1, 3, 5, 6, 8-11, 13, 15, 18, 19, 22, 24
    2    8 O      2, 4, 14, 20, 23, 25
    3    7 N      7, 12, 16, 17, 21
    4    1 H      26-43

      * Solvation model:               ALPB
        Solvent                        DMSO
        Solvent mass                       7.8130E+01 g/mol
          :  Hamiltonian                  GFN1-xTB          :
 * total energy  :   -83.8154481 Eh     change       -0.7105427E-10 Eh
 * total energy  :   -83.8306537 Eh     change       -0.1520555E-01 Eh
 * total energy  :   -83.8368118 Eh     change       -0.6158182E-02 Eh
 * total energy  :   -83.8384279 Eh     change       -0.1616053E-02 Eh
 * total energy  :   -83.8395342 Eh     change       -0.1106280E-02 Eh
 * total energy  :   -83.8401844 Eh     change       -0.6502615E-03 Eh
 * total energy  :   -83.8407757 Eh     change       -0.5912586E-03 Eh
 * total energy  :   -83.8412411 Eh     change       -0.4654441E-03 Eh
 * total energy  :   -83.8415534 Eh     change       -0.3122421E-03 Eh
 * total energy  :   -83.8417695 Eh     change       -0.2160799E-03 Eh
 * total energy  :   -83.8471935 Eh     change       -0.6971746E-04 Eh
 * total energy  :   -83.8472240 Eh     change       -0.3049054E-04 Eh
 * total energy  :   -83.8472569 Eh     change       -0.3290433E-04 Eh
 * total energy  :   -83.8472769 Eh     change       -0.1995880E-04 Eh
 * total energy  :   -83.8472934 Eh     change       -0.1653465E-04 Eh
 * total energy  :   -83.8473064 Eh     change       -0.1298546E-04 Eh
 * total energy  :   -83.8473118 Eh     change       -0.5423296E-05 Eh
 * total energy  :   -83.8473149 Eh     change       -0.3062286E-05 Eh
 * total energy  :   -83.8473182 Eh     change       -0.3314617E-05 Eh
   *** GEOMETRY OPTIMIZATION CONVERGED AFTER 55 ITERATIONS ***

 final structure:
================
43
 xtb: 6.5.1 (579679a)
C           -3.45975437889981        1.78981883424713        1.85732116814551
O           -3.96239952457932        0.60656006562551        1.24218487680533
C           -3.74030094991263        0.49338946142394       -0.12848134064124
O           -4.81900200588096        0.90276420718297       -0.92289241129161
C           -6.04597671718673        0.23339794874695       -0.65403576673293
C           -2.54292751924793        0.08669698455918       -0.64938295469987
N           -1.53484537105233       -0.16640926981002        0.30171150201567
C           -0.38091954504293       -0.55940735308630       -0.09846273324311
C            0.69261348988973       -0.88557597699315        0.93030094879397
C            0.79647094425914       -2.40738537369298        1.07158464174338
C            0.35889771690025       -0.24218305527458        2.27893713662671
N            1.99124071611334       -0.40231562790755        0.44838447939710
C            2.21471041392945        0.89611607146248        0.14275837426103
O            1.36070171020990        1.77286967058095        0.13789664442807
C            3.62143201403069        1.16843521653749       -0.22621982675260
N            4.12964627293880        2.29507316886635       -0.63496313275848
N            5.45681550769842        2.06885428868741       -0.86037990334271
C            5.67851327568486        0.82496324296126       -0.57618455803740
C            6.96247204000210        0.09327881173418       -0.64786883883671
O            4.56206819656612        0.19395254001661       -0.17023878298499
N           -0.05882574580549       -0.76593217215498       -1.39618773767031
C           -0.97875333241619       -0.53039107372070       -2.47017573622853
O           -0.55861465278939       -0.74511948049104       -3.63246804946541
C           -2.22494294152341       -0.09265718470145       -2.03861054337076
O           -3.19510161722719        0.14213717990351       -3.02793504699336
H           -2.36278273150951        1.80971994128618        1.81963413138356
H           -3.85501655190627        2.69101162418700        1.37303937104852
H           -3.78267420380280        1.77119971962604        2.89976603465267
H           -6.80568809650104        0.68182118534119       -1.29518571459933
H           -6.33792049150223        0.36163300499760        0.39442245600801
H           -5.96856321646859       -0.83860502761572       -0.87530817844734
H            1.05298138978434       -2.85878339305877        0.11436121512964
H           -0.15778105362437       -2.81087204609756        1.40755793837944
H            1.56288393978121       -2.66666716739051        1.79960249873316
H            1.13315445115217       -0.47566832975938        3.00690484294944
H           -0.59586776124337       -0.62903246632452        2.63287786400244
H            0.27906122666010        0.83923947903314        2.17196251460409
H            2.77808615012673       -1.02169369124094        0.52498073056411
H            7.73742024679445        0.75004111390940       -1.03540635160918
H            7.24563919413780       -0.25723277770477        0.34437851220442
H            6.86142762542474       -0.77759574143015       -1.29479646767323
H            0.85425536727458       -1.10604463471677       -1.64309890827252
H           -3.96183248123236        0.57679908225579       -2.62228389823622

          :  Hamiltonian                  GFN1-xTB          :
         :: total energy             -83.847318209276 Eh    ::
         :: gradient norm              0.000526034102 Eh/a0 ::
         :: HOMO-LUMO gap              0.160121464259 eV    ::
         :: SCC energy               -84.607340220107 Eh    ::
         :: -> Gsolv                  -0.134045000671 Eh    ::
         :: repulsion energy           0.786594324555 Eh    ::

    * Orbital Energies and Occupations

         #    Occupation            Energy/Eh            Energy/eV
      -------------------------------------------------------------
         1        2.0000           -0.8520653             -23.1859
       ...           ...                  ...                  ...
        56        2.0000           -0.4695463             -12.7770
        57        2.0000           -0.4659705             -12.6797
        58        2.0000           -0.4507704             -12.2661
        59        2.0000           -0.4467238             -12.1560
        60        2.0000           -0.4423277             -12.0364
        61        2.0000           -0.4390944             -11.9484
        62        2.0000           -0.4382377             -11.9251
        63        2.0000           -0.4306362             -11.7182
        64        2.0000           -0.4225069             -11.4970
        65        2.0000           -0.3918809             -10.6636
        66        2.0000           -0.3880579             -10.5596
        67        2.0000           -0.3708033             -10.0901
        68        1.9135           -0.3031109              -8.2481 (HOMO)
        69        0.0865           -0.2972265              -8.0879 (LUMO)
        70                         -0.2461368              -6.6977
        71                         -0.2254424              -6.1346
        72                         -0.1920334              -5.2255
        73                         -0.1832465              -4.9864
        74                         -0.1372895              -3.7358
        75                         -0.1199338              -3.2636
        76                         -0.1187745              -3.2320
        77                         -0.1156546              -3.1471
        78                         -0.1059553              -2.8832
        79                         -0.0903118              -2.4575
       ...                                ...                  ...
       136                          0.7299843              19.8639
      -------------------------------------------------------------
                  HL-Gap            0.0058844 Eh            0.1601 eV

Wiberg/Mayer (AO) data.
largest (>0.10) Wiberg bond orders for each atom

     #   Z sym  total        # sym  WBO       # sym  WBO       # sym  WBO
 ---------------------------------------------------------------------------
     1   6 C    3.913 --    28 H    0.986    27 H    0.983    26 H    0.981
                             2 O    0.930
     2   8 O    2.014 --     3 C    0.947     1 C    0.930
     3   6 C    3.710 --     6 C    1.520     2 O    0.947     4 O    0.932
     4   8 O    2.047 --     3 C    0.932     5 C    0.931
     5   6 C    3.910 --    29 H    0.986    31 H    0.983    30 H    0.982
                             4 O    0.931
     6   6 C    3.952 --     3 C    1.520    24 C    1.173     7 N    1.071
     7   7 N    3.002 --     8 C    1.624     6 C    1.071    21 N    0.132
     8   6 C    3.947 --     7 N    1.624    21 N    1.195     9 C    0.965
     9   6 C    3.933 --    11 C    0.992    10 C    0.990     8 C    0.965
                            12 N    0.920
    10   6 C    3.993 --     9 C    0.990    33 H    0.985    32 H    0.984
                            34 H    0.984
    11   6 C    3.992 --     9 C    0.992    35 H    0.987    36 H    0.984
                            37 H    0.981
    12   7 N    3.328 --    13 C    1.243     9 C    0.920    38 H    0.899
                            14 O    0.171
    13   6 C    3.891 --    14 O    1.565    12 N    1.243    15 C    1.005
    14   8 O    1.855 --    13 C    1.565    12 N    0.171
    15   6 C    3.835 --    16 N    1.594    20 O    1.036    13 C    1.005
    16   7 N    2.953 --    15 C    1.594    17 N    1.192
    17   7 N    2.980 --    18 C    1.618    16 N    1.192
    18   6 C    3.861 --    17 N    1.618    20 O    1.068    19 C    1.030
    19   6 C    3.988 --    18 C    1.030    39 H    0.983    41 H    0.966
                            40 H    0.964
    20   8 O    2.294 --    18 C    1.068    15 C    1.036
    21   7 N    3.361 --     8 C    1.195    22 C    0.959    42 H    0.907
                             7 N    0.132
    22   6 C    3.896 --    23 O    1.413    24 C    1.369    21 N    0.959
    23   8 O    1.711 --    22 C    1.413    24 C    0.131
    24   6 C    3.807 --    22 C    1.369     6 C    1.173    25 O    0.966
                            23 O    0.131
    25   8 O    1.928 --    24 C    0.966    43 H    0.847
    26   1 H    1.030 --     1 C    0.981
    27   1 H    1.014 --     1 C    0.983
    28   1 H    1.019 --     1 C    0.986
    29   1 H    1.018 --     5 C    0.986
    30   1 H    1.021 --     5 C    0.982
    31   1 H    1.014 --     5 C    0.983
    32   1 H    1.002 --    10 C    0.984
    33   1 H    1.004 --    10 C    0.985
    34   1 H    0.999 --    10 C    0.984
    35   1 H    1.003 --    11 C    0.987
    36   1 H    1.016 --    11 C    0.984
    37   1 H    1.017 --    11 C    0.981
    38   1 H    0.941 --    12 N    0.899
    39   1 H    1.000 --    19 C    0.983
    40   1 H    0.998 --    19 C    0.964
    41   1 H    0.997 --    19 C    0.966
    42   1 H    0.959 --    21 N    0.907
    43   1 H    0.899 --    25 O    0.847
 ---------------------------------------------------------------------------

           -------------------------------------------------
          | TOTAL ENERGY              -83.847318209276 Eh   |
          | GRADIENT NORM               0.000526034102 Eh/α |
          | HOMO-LUMO GAP               0.160121464259 eV   |
           -------------------------------------------------

 * finished run on 2023/06/20 at 14:55:13.049
