   * xtb version 6.5.1 (579679a) compiled by 'ehlert@majestix' on 2022-07-11
          program call               : /lustre/hpc/kemi/ree/PhD/git/ReactivityQM/dep/xtb-6.5.1/bin/xtb --gfn 1 /lustre/hpc/kemi/ree/PhD/git/ReactivityQM/calculations/RaltegravirCLI/reac01prodE06/conf05/RaltegravirCLI_reac01prodE06_conf05_gfn1.xyz --opt --vfukui --chrg -1 --uhf 0 --alpb DMSO

   ID    Z sym.   atoms
    1    6 C      1, 3, 5, 8, 9
    2    8 O      2, 10
    3   17 Cl     4
    4    7 N      6, 7
    5    1 H      11-16

      * Solvation model:               ALPB
        Solvent                        DMSO
        Solvent mass                       7.8130E+01 g/mol
          :  Hamiltonian                  GFN1-xTB          :
 * total energy  :   -34.1167221 Eh     change       -0.7318590E-12 Eh
 * total energy  :   -34.1227873 Eh     change       -0.6065110E-02 Eh
 * total energy  :   -34.1253007 Eh     change       -0.2513466E-02 Eh
 * total energy  :   -34.1258934 Eh     change       -0.5926560E-03 Eh
 * total energy  :   -34.1262900 Eh     change       -0.3965996E-03 Eh
 * total energy  :   -34.1264242 Eh     change       -0.1342218E-03 Eh
 * total energy  :   -34.1265481 Eh     change       -0.1238952E-03 Eh
 * total energy  :   -34.1267005 Eh     change       -0.1524362E-03 Eh
 * total energy  :   -34.1269896 Eh     change       -0.2890282E-03 Eh
 * total energy  :   -34.1274090 Eh     change       -0.4194184E-03 Eh
 * total energy  :   -34.1304162 Eh     change       -0.1828597E-03 Eh
 * total energy  :   -34.1305049 Eh     change       -0.8861962E-04 Eh
 * total energy  :   -34.1306139 Eh     change       -0.1090933E-03 Eh
 * total energy  :   -34.1306995 Eh     change       -0.8552372E-04 Eh
 * total energy  :   -34.1307361 Eh     change       -0.3658579E-04 Eh
 * total energy  :   -34.1307577 Eh     change       -0.2163872E-04 Eh
 * total energy  :   -34.1307665 Eh     change       -0.8825300E-05 Eh
 * total energy  :   -34.1307760 Eh     change       -0.9447775E-05 Eh
 * total energy  :   -34.1307806 Eh     change       -0.4669970E-05 Eh
   *** GEOMETRY OPTIMIZATION CONVERGED AFTER 24 ITERATIONS ***

 final structure:
================
16
 xtb: 6.5.1 (579679a)
C           -3.09211556036695       -0.18118555597319       -0.06177489255579
O           -2.47950631686238        0.35857167752554        1.11009432993762
C           -1.24043605911667        0.94518766375456        0.96875240686537
Cl          -1.35051497687690        2.60310590722651        0.18465688965543
C           -0.18415870970244        0.15817898269152        0.48547063282407
N           -0.06534071687050       -1.16432565351930        0.63285043875447
N            1.24833792435400       -1.47271917077066        0.32113254962813
C            1.83820067504906       -0.37269689115255        0.01606437006890
C            3.25530971507335       -0.18768873120332       -0.39304219136438
O            1.01196109127399        0.71099733365195        0.09599090460876
H           -3.28858320674636        0.60646483228949       -0.79944932715870
H           -4.03891599507273       -0.63096498584270        0.24334265268258
H           -2.45570856148877       -0.95040107918169       -0.51942979212344
H            3.73047099052986       -1.16095865187259       -0.49600738165398
H            3.79894405364153        0.39621412582193        0.35121195416623
H            3.31205565318214        0.34221919655473       -1.34392354433527

          :  Hamiltonian                  GFN1-xTB          :
         :: total energy             -34.130780637814 Eh    ::
         :: gradient norm              0.000868565085 Eh/a0 ::
         :: HOMO-LUMO gap              2.959964354482 eV    ::
         :: SCC energy               -34.378924737231 Eh    ::
         :: -> Gsolv                  -0.092614415820 Eh    ::
         :: repulsion energy           0.255285445199 Eh    ::

    * Orbital Energies and Occupations

         #    Occupation            Energy/Eh            Energy/eV
      -------------------------------------------------------------
         1        2.0000           -0.8453209             -23.0024
       ...           ...                  ...                  ...
        16        2.0000           -0.5142019             -13.9921
        17        2.0000           -0.5060510             -13.7703
        18        2.0000           -0.4962109             -13.5026
        19        2.0000           -0.4789553             -13.0330
        20        2.0000           -0.4685739             -12.7505
        21        2.0000           -0.4458067             -12.1310
        22        2.0000           -0.4335135             -11.7965
        23        2.0000           -0.4325347             -11.7699
        24        2.0000           -0.4243899             -11.5482
        25        2.0000           -0.4094774             -11.1424
        26        2.0000           -0.3966463             -10.7933
        27        2.0000           -0.3852205             -10.4824
        28        2.0000           -0.3093867              -8.4188 (HOMO)
        29                         -0.2006100              -5.4589 (LUMO)
        30                         -0.1815140              -4.9392
        31                         -0.1314380              -3.5766
        32                         -0.1207133              -3.2848
        33                         -0.1089533              -2.9648
        34                         -0.0539887              -1.4691
        35                         -0.0528939              -1.4393
        36                         -0.0485562              -1.3213
        37                         -0.0432838              -1.1778
        38                          0.0187998               0.5116
        39                          0.0225724               0.6142
       ...                                ...                  ...
        57                          0.6324874              17.2109
      -------------------------------------------------------------
                  HL-Gap            0.1087767 Eh            2.9600 eV

Wiberg/Mayer (AO) data.
largest (>0.10) Wiberg bond orders for each atom

     #   Z sym  total        # sym  WBO       # sym  WBO       # sym  WBO
 ---------------------------------------------------------------------------
     1   6 C    3.933 --    12 H    0.987    11 H    0.982    13 H    0.981
                             2 O    0.934
     2   8 O    2.053 --     3 C    1.001     1 C    0.934
     3   6 C    3.429 --     5 C    1.342     2 O    1.001     4 Cl   0.802
                             6 N    0.148
     4  17 Cl   0.914 --     3 C    0.802
     5   6 C    3.856 --     6 N    1.391     3 C    1.342    10 O    0.992
     6   7 N    2.871 --     5 C    1.391     7 N    1.141     3 C    0.148
     7   7 N    2.984 --     8 C    1.677     6 N    1.141
     8   6 C    3.890 --     7 N    1.677     9 C    1.020    10 O    1.019
     9   6 C    3.995 --     8 C    1.020    14 H    0.986    16 H    0.975
                            15 H    0.973
    10   8 O    2.220 --     8 C    1.019     5 C    0.992
    11   1 H    1.020 --     1 C    0.982
    12   1 H    1.021 --     1 C    0.987
    13   1 H    1.026 --     1 C    0.981
    14   1 H    1.006 --     9 C    0.986
    15   1 H    1.005 --     9 C    0.973
    16   1 H    1.005 --     9 C    0.975
 ---------------------------------------------------------------------------

           -------------------------------------------------
          | TOTAL ENERGY              -34.130780637814 Eh   |
          | GRADIENT NORM               0.000868565085 Eh/α |
          | HOMO-LUMO GAP               2.959964354482 eV   |
           -------------------------------------------------

 * finished run on 2023/06/20 at 14:54:05.155
