   * xtb version 6.5.1 (579679a) compiled by 'ehlert@majestix' on 2022-07-11
          program call               : /lustre/hpc/kemi/ree/PhD/git/ReactivityQM/dep/xtb-6.5.1/bin/xtb --gfn 1 /lustre/hpc/kemi/ree/PhD/git/ReactivityQM/calculations/R01/reac02prodE04/conf16/R01_reac02prodE04_conf16_gfn1.xyz --opt --vfukui --chrg -1 --uhf 0 --alpb DMSO

   ID    Z sym.   atoms
    1    6 C      1, 3, 5, 6, 8, 11-14, 17
    2    8 O      2, 4, 7, 9
    3    7 N      10, 15, 16
    4    1 H      18-33

      * Solvation model:               ALPB
        Solvent                        DMSO
        Solvent mass                       7.8130E+01 g/mol
          :  Hamiltonian                  GFN1-xTB          :
 * total energy  :   -58.4747236 Eh     change       -0.1193712E-09 Eh
 * total energy  :   -58.4897293 Eh     change       -0.1500571E-01 Eh
 * total energy  :   -58.4987941 Eh     change       -0.9064775E-02 Eh
 * total energy  :   -58.5007905 Eh     change       -0.1996405E-02 Eh
 * total energy  :   -58.5029537 Eh     change       -0.2163230E-02 Eh
 * total energy  :   -58.5038893 Eh     change       -0.9355273E-03 Eh
 * total energy  :   -58.5050021 Eh     change       -0.1112782E-02 Eh
 * total energy  :   -58.5059241 Eh     change       -0.9220261E-03 Eh
 * total energy  :   -58.5068112 Eh     change       -0.8870745E-03 Eh
 * total energy  :   -58.5075800 Eh     change       -0.7688583E-03 Eh
 * total energy  :   -58.5094110 Eh     change       -0.4062578E-04 Eh
 * total energy  :   -58.5094364 Eh     change       -0.2536582E-04 Eh
 * total energy  :   -58.5094564 Eh     change       -0.1999973E-04 Eh
 * total energy  :   -58.5094686 Eh     change       -0.1222581E-04 Eh
 * total energy  :   -58.5094757 Eh     change       -0.7104139E-05 Eh
 * total energy  :   -58.5094824 Eh     change       -0.6727063E-05 Eh
 * total energy  :   -58.5094868 Eh     change       -0.4413645E-05 Eh
 * total energy  :   -58.5094930 Eh     change       -0.6164315E-05 Eh
 * total energy  :   -58.5094954 Eh     change       -0.2370488E-05 Eh
   *** GEOMETRY OPTIMIZATION CONVERGED AFTER 26 ITERATIONS ***

 final structure:
================
33
 xtb: 6.5.1 (579679a)
C            4.90242837386216        0.20386556167264        0.15819961553036
O            3.69802499289188       -0.51735486172279       -0.00588089814413
C            2.53123150542230        0.29107094894467       -0.03971694648624
O            2.66346277898406        1.53485925738697        0.10344563593858
C            1.38167429837706       -0.43689780988957       -0.26294115242228
C            1.26553281117155       -1.90522651413861       -0.39796331878280
O            2.19786093251612       -2.57769259140785       -1.22623949573204
C            0.17915487085302       -2.54956296610252        0.08544587964240
O           -0.25293552021112       -3.73495735191962        0.05640940221106
N           -0.73968111308216       -1.57822683213370        0.79929344308009
C           -0.92330618292878       -0.33905554705598        0.32565317184746
C           -2.32787068389907        0.24875215536315        0.48611579658152
C           -3.08715499400706        0.13422530713945       -0.84318736345431
C           -2.33952670304794        1.69264302517880        1.01450305525928
N           -3.03460197679335       -0.59584150282374        1.45593562707044
N            0.11203189338413        0.25301696998319       -0.22914117790835
C            0.07477266951546        1.56969329493993       -0.85549241795261
H            5.06509839899097        0.90452667213987       -0.67096593626611
H            5.71807324947423       -0.52117409022016        0.17966019070146
H            4.90355900497989        0.77327972191635        1.09675621107880
H            3.07980425560988       -2.22593766810855       -1.02962195426573
H           -1.58719570708089       -2.02762232662660        1.13016829141127
H           -4.08597936527599        0.55162994471841       -0.72700563763785
H           -3.17652619920631       -0.91389281528164       -1.12867323210326
H           -2.57998184200029        0.67433205329012       -1.64009776508725
H           -1.60384895846403        1.81544372903687        1.80843569789394
H           -3.32660920613134        1.90371361831596        1.42339088952550
H           -2.14560988481456        2.42044138024666        0.23053269594273
H           -4.02637238760486       -0.43148137227242        1.36924429322619
H           -2.77176831738934       -0.32153933661436        2.39352404872947
H           -0.88778488801743        1.74689481600556       -1.32739579348812
H            0.84884637561703        1.61265920132134       -1.62085058130652
H            0.27519651830851        2.34541492872426       -0.11537527463280

          :  Hamiltonian                  GFN1-xTB          :
         :: total energy             -58.509495363415 Eh    ::
         :: gradient norm              0.000513014770 Eh/a0 ::
         :: HOMO-LUMO gap              1.034268507755 eV    ::
         :: SCC energy               -59.053543829404 Eh    ::
         :: -> Gsolv                  -0.126085943056 Eh    ::
         :: repulsion energy           0.563683408698 Eh    ::

    * Orbital Energies and Occupations

         #    Occupation            Energy/Eh            Energy/eV
      -------------------------------------------------------------
         1        2.0000           -0.7833171             -21.3151
       ...           ...                  ...                  ...
        36        2.0000           -0.4832219             -13.1491
        37        2.0000           -0.4744107             -12.9094
        38        2.0000           -0.4701792             -12.7942
        39        2.0000           -0.4637381             -12.6190
        40        2.0000           -0.4601722             -12.5219
        41        2.0000           -0.4346847             -11.8284
        42        2.0000           -0.4307436             -11.7211
        43        2.0000           -0.4133497             -11.2478
        44        2.0000           -0.4083111             -11.1107
        45        2.0000           -0.3952372             -10.7550
        46        2.0000           -0.3750248             -10.2049
        47        2.0000           -0.3515455              -9.5660
        48        2.0000           -0.2861268              -7.7859 (HOMO)
        49                         -0.2481182              -6.7516 (LUMO)
        50                         -0.1552059              -4.2234
        51                         -0.1311944              -3.5700
        52                         -0.1198218              -3.2605
        53                         -0.1120131              -3.0480
        54                         -0.1077369              -2.9317
        55                         -0.1038340              -2.8255
        56                         -0.0892824              -2.4295
        57                         -0.0721627              -1.9636
        58                         -0.0685802              -1.8662
        59                         -0.0540280              -1.4702
       ...                                ...                  ...
       100                          0.7732344              21.0408
      -------------------------------------------------------------
                  HL-Gap            0.0380087 Eh            1.0343 eV

Wiberg/Mayer (AO) data.
largest (>0.10) Wiberg bond orders for each atom

     #   Z sym  total        # sym  WBO       # sym  WBO       # sym  WBO
 ---------------------------------------------------------------------------
     1   6 C    3.917 --    19 H    0.987    18 H    0.981    20 H    0.981
                             2 O    0.948
     2   8 O    2.066 --     1 C    0.948     3 C    0.908
     3   6 C    3.880 --     5 C    1.442     4 O    1.383     2 O    0.908
     4   8 O    1.740 --     3 C    1.383     5 C    0.148
     5   6 C    3.754 --     3 C    1.442     6 C    1.027    16 N    0.930
                             4 O    0.148
     6   6 C    3.815 --     8 C    1.573     5 C    1.027     7 O    0.939
                             9 O    0.188
     7   8 O    1.905 --     6 C    0.939    21 H    0.863
     8   6 C    3.894 --     6 C    1.573     9 O    1.367    10 N    0.799
     9   8 O    1.704 --     8 C    1.367     6 C    0.188
    10   7 N    3.322 --    11 C    1.299    22 H    0.898     8 C    0.799
                            16 N    0.141
    11   6 C    3.934 --    16 N    1.430    10 N    1.299    12 C    0.969
    12   6 C    3.967 --    14 C    0.988    13 C    0.986    15 N    0.985
                            11 C    0.969
    13   6 C    3.993 --    12 C    0.986    24 H    0.985    23 H    0.984
                            25 H    0.980
    14   6 C    3.994 --    12 C    0.988    26 H    0.985    27 H    0.983
                            28 H    0.980
    15   7 N    2.986 --    12 C    0.985    30 H    0.945    29 H    0.943
    16   7 N    3.535 --    11 C    1.430    17 C    0.945     5 C    0.930
                            10 N    0.141
    17   6 C    3.949 --    32 H    0.981    31 H    0.978    33 H    0.975
                            16 N    0.945
    18   1 H    1.021 --     1 C    0.981
    19   1 H    1.019 --     1 C    0.987
    20   1 H    1.023 --     1 C    0.981
    21   1 H    0.914 --     7 O    0.863
    22   1 H    0.981 --    10 N    0.898
    23   1 H    1.000 --    13 C    0.984
    24   1 H    1.004 --    13 C    0.985
    25   1 H    1.006 --    13 C    0.980
    26   1 H    1.004 --    14 C    0.985
    27   1 H    1.004 --    14 C    0.983
    28   1 H    1.005 --    14 C    0.980
    29   1 H    0.958 --    15 N    0.943
    30   1 H    0.959 --    15 N    0.945
    31   1 H    1.011 --    17 C    0.978
    32   1 H    1.020 --    17 C    0.981
    33   1 H    1.027 --    17 C    0.975
 ---------------------------------------------------------------------------

           -------------------------------------------------
          | TOTAL ENERGY              -58.509495363415 Eh   |
          | GRADIENT NORM               0.000513014770 Eh/α |
          | HOMO-LUMO GAP               1.034268507755 eV   |
           -------------------------------------------------

 * finished run on 2023/06/20 at 14:59:06.826
