   * xtb version 6.5.1 (579679a) compiled by 'ehlert@majestix' on 2022-07-11
          program call               : /lustre/hpc/kemi/ree/PhD/git/ReactivityQM/dep/xtb-6.5.1/bin/xtb --gfn 1 /lustre/hpc/kemi/ree/PhD/git/ReactivityQM/calculations/R02deprot/reac01prodE13/conf15/R02deprot_reac01prodE13_conf15_gfn1.xyz --opt --vfukui --chrg -2 --uhf 0 --alpb DMSO

   ID    Z sym.   atoms
    1    6 C      1, 3, 5, 6, 8, 10, 12-15, 17, 19, 22, 23
    2    8 O      2, 4, 7, 9, 18, 24
    3    7 N      11, 16, 20, 21, 25
    4    1 H      26-42

      * Solvation model:               ALPB
        Solvent                        DMSO
        Solvent mass                       7.8130E+01 g/mol
          :  Hamiltonian                  GFN1-xTB          :
 * total energy  :   -83.5704223 Eh     change       -0.4472966E-08 Eh
 * total energy  :   -83.5842401 Eh     change       -0.1381783E-01 Eh
 * total energy  :   -83.5891922 Eh     change       -0.4952100E-02 Eh
 * total energy  :   -83.5899586 Eh     change       -0.7663616E-03 Eh
 * total energy  :   -83.5903531 Eh     change       -0.3945433E-03 Eh
 * total energy  :   -83.5904822 Eh     change       -0.1290524E-03 Eh
 * total energy  :   -83.5905901 Eh     change       -0.1078853E-03 Eh
 * total energy  :   -83.5906526 Eh     change       -0.6258498E-04 Eh
 * total energy  :   -83.5906937 Eh     change       -0.4105884E-04 Eh
 * total energy  :   -83.5907277 Eh     change       -0.3403812E-04 Eh
 * total energy  :   -83.5908459 Eh     change       -0.3952579E-04 Eh
 * total energy  :   -83.5908717 Eh     change       -0.2581793E-04 Eh
 * total energy  :   -83.5909095 Eh     change       -0.3780860E-04 Eh
 * total energy  :   -83.5909370 Eh     change       -0.2754795E-04 Eh
 * total energy  :   -83.5909499 Eh     change       -0.1292298E-04 Eh
 * total energy  :   -83.5909575 Eh     change       -0.7558927E-05 Eh
 * total energy  :   -83.5909652 Eh     change       -0.7674791E-05 Eh
 * total energy  :   -83.5909711 Eh     change       -0.5894999E-05 Eh
 * total energy  :   -83.5909739 Eh     change       -0.2783007E-05 Eh
   *** GEOMETRY OPTIMIZATION CONVERGED AFTER 22 ITERATIONS ***

 final structure:
================
42
 xtb: 6.5.1 (579679a)
C           -1.69573832667425       -3.91155983301393        1.77779213959496
O           -1.51873816323360       -2.62763907158888        1.22532406485132
C           -2.72146692583890       -1.88993969464284        1.06666896286890
O           -3.79482127048349       -2.42452623931728        1.43621843249454
C           -2.52242663326350       -0.62318639004969        0.49537286587598
C           -3.57463905964452        0.32323869858767        0.21794922797004
O           -4.89066246004066        0.02266798491014        0.52745079144863
C           -3.24784927116349        1.51990790477518       -0.35213484247946
O           -4.26809335870846        2.42663996194281       -0.61711162683179
C           -3.86167727024448        3.67789524556075       -1.13226836933089
N           -1.97478835982955        1.88168372199984       -0.67730806756561
C           -1.03806496236969        0.95570029010611       -0.37715982055629
C            0.38714196676039        1.36201631250366       -0.76044260310832
C            0.48939897871906        1.33132910513642       -2.29851114854744
C            0.66827119952118        2.78214813876097       -0.24370962754143
N            1.30935436008871        0.41891759645028       -0.15116336558307
C            2.67108738047996        0.41450845977069       -0.39111717188146
O            3.26687394613033        1.35368438639508       -0.97281557462048
C            3.30756232033143       -0.74642442384934        0.15116961186107
N            2.70531633406464       -1.76510199208224        0.77905176579207
N            3.69337331972813       -2.64284909093188        1.13032061913663
C            4.81523920545901       -2.14970421416201        0.72030143444739
C            6.16473572092243       -2.74758046174950        0.88174768823999
O            4.67637398831475       -0.95640542111495        0.08874539387489
N           -1.21957620179268       -0.21747215279355        0.15715905354857
H           -2.12365447752025       -3.86285848852610        2.78866304774093
H           -0.71474816685083       -4.38890534871352        1.83158774582463
H           -2.35847979325858       -4.53103358590320        1.15803504500421
H           -5.44700327855642        0.76877192958133        0.27596391234694
H           -4.76523013560561        4.26976186394426       -1.28563101532462
H           -3.19902184428635        4.20167767731194       -0.43103290206188
H           -3.33473277619697        3.56402344105687       -2.08818878702952
H           -0.28282095509866        1.97533409727658       -2.71898394866820
H            0.33760555626012        0.31543113726166       -2.66466426849633
H            1.46477950699560        1.68569248146923       -2.63033271681247
H           -0.10436508871172        3.45860963285046       -0.60842618160753
H            1.63962293691932        3.13403673140362       -0.58920382681911
H            0.65627799992047        2.79090090264081        0.84686790489646
H            0.88521142958050       -0.45687824733993        0.15333752857748
H            6.08293372243360       -3.68190011643399        1.43222714375177
H            6.61700394914458       -2.94348693221302       -0.09087417958375
H            6.82043795760368       -2.06712799726534        1.42567266429910

          :  Hamiltonian                  GFN1-xTB          :
         :: total energy             -83.590973861560 Eh    ::
         :: gradient norm              0.000372097366 Eh/a0 ::
         :: HOMO-LUMO gap              0.034733165379 eV    ::
         :: SCC energy               -84.315016610579 Eh    ::
         :: -> Gsolv                  -0.274993808033 Eh    ::
         :: repulsion energy           0.749069571350 Eh    ::

    * Orbital Energies and Occupations

         #    Occupation            Energy/Eh            Energy/eV
      -------------------------------------------------------------
         1        2.0000           -0.7939405             -21.6042
       ...           ...                  ...                  ...
        56        2.0000           -0.4376205             -11.9083
        57        2.0000           -0.4252046             -11.5704
        58        2.0000           -0.4234599             -11.5229
        59        2.0000           -0.3999553             -10.8833
        60        2.0000           -0.3964203             -10.7871
        61        2.0000           -0.3917442             -10.6599
        62        2.0000           -0.3880994             -10.5607
        63        2.0000           -0.3838844             -10.4460
        64        2.0000           -0.3835178             -10.4361
        65        2.0000           -0.3760085             -10.2317
        66        2.0000           -0.3625869              -9.8665
        67        2.0000           -0.3499598              -9.5229
        68        1.3238           -0.2583007              -7.0287 (HOMO)
        69        0.6762           -0.2570242              -6.9940 (LUMO)
        70                         -0.2045464              -5.5660
        71                         -0.1962078              -5.3391
        72                         -0.1550562              -4.2193
        73                         -0.1304279              -3.5491
        74                         -0.1229008              -3.3443
        75                         -0.1118666              -3.0440
        76                         -0.1058134              -2.8793
        77                         -0.0899478              -2.4476
        78                         -0.0854509              -2.3252
        79                         -0.0717383              -1.9521
       ...                                ...                  ...
       134                          0.7026955              19.1213
      -------------------------------------------------------------
                  HL-Gap            0.0012764 Eh            0.0347 eV

Wiberg/Mayer (AO) data.
largest (>0.10) Wiberg bond orders for each atom

     #   Z sym  total        # sym  WBO       # sym  WBO       # sym  WBO
 ---------------------------------------------------------------------------
     1   6 C    3.925 --    27 H    0.986    26 H    0.980    28 H    0.980
                             2 O    0.959
     2   8 O    2.035 --     1 C    0.959     3 C    0.914
     3   6 C    3.732 --     4 O    1.420     5 C    1.298     2 O    0.914
     4   8 O    1.653 --     3 C    1.420
     5   6 C    3.761 --     3 C    1.298     6 C    1.156    25 N    1.098
     6   6 C    3.806 --     8 C    1.483     5 C    1.156     7 O    0.992
     7   8 O    1.961 --     6 C    0.992    29 H    0.857
     8   6 C    3.801 --     6 C    1.483    11 N    1.195     9 O    0.955
     9   8 O    2.065 --     8 C    0.955    10 C    0.942
    10   6 C    3.912 --    30 H    0.986    31 H    0.980    32 H    0.980
                             9 O    0.942
    11   7 N    2.786 --    12 C    1.287     8 C    1.195
    12   6 C    3.954 --    25 N    1.541    11 N    1.287    13 C    0.967
    13   6 C    3.947 --    15 C    0.988    14 C    0.977    12 C    0.967
                            16 N    0.949
    14   6 C    3.992 --    34 H    0.987    33 H    0.987    35 H    0.983
                            13 C    0.977
    15   6 C    3.994 --    13 C    0.988    38 H    0.987    36 H    0.985
                            37 H    0.983
    16   7 N    3.182 --    17 C    1.127    13 C    0.949    39 H    0.897
                            18 O    0.120
    17   6 C    3.771 --    18 O    1.423    19 C    1.150    16 N    1.127
    18   8 O    1.674 --    17 C    1.423    16 N    0.120
    19   6 C    3.669 --    20 N    1.384    17 C    1.150    24 O    0.968
    20   7 N    2.735 --    19 C    1.384    21 N    1.187
    21   7 N    2.981 --    22 C    1.628    20 N    1.187
    22   6 C    3.815 --    21 N    1.628    24 O    1.045    23 C    1.023
    23   6 C    3.994 --    22 C    1.023    40 H    0.986    42 H    0.972
                            41 H    0.972
    24   8 O    2.168 --    22 C    1.045    19 C    0.968
    25   7 N    2.916 --    12 C    1.541     5 C    1.098
    26   1 H    1.022 --     1 C    0.980
    27   1 H    1.021 --     1 C    0.986
    28   1 H    1.022 --     1 C    0.980
    29   1 H    0.887 --     7 O    0.857
    30   1 H    1.018 --    10 C    0.986
    31   1 H    1.020 --    10 C    0.980
    32   1 H    1.023 --    10 C    0.980
    33   1 H    1.017 --    14 C    0.987
    34   1 H    1.010 --    14 C    0.987
    35   1 H    1.019 --    14 C    0.983
    36   1 H    1.025 --    15 C    0.985
    37   1 H    1.022 --    15 C    0.983
    38   1 H    1.011 --    15 C    0.987
    39   1 H    1.001 --    16 N    0.897
    40   1 H    1.005 --    23 C    0.986
    41   1 H    1.001 --    23 C    0.972
    42   1 H    1.002 --    23 C    0.972
 ---------------------------------------------------------------------------

           -------------------------------------------------
          | TOTAL ENERGY              -83.590973861560 Eh   |
          | GRADIENT NORM               0.000372097366 Eh/α |
          | HOMO-LUMO GAP               0.034733165379 eV   |
           -------------------------------------------------

 * finished run on 2023/06/20 at 18:00:48.752
