   * xtb version 6.5.1 (579679a) compiled by 'ehlert@majestix' on 2022-07-11
          program call               : /lustre/hpc/kemi/ree/PhD/git/ReactivityQM/dep/xtb-6.5.1/bin/xtb --gfn 1 /lustre/hpc/kemi/ree/PhD/git/ReactivityQM/calculations/R01/reac01prodN01/conf03/R01_reac01prodN01_conf03_gfn1.xyz --opt --vfukui --chrg 1 --uhf 0 --alpb DMSO

   ID    Z sym.   atoms
    1    6 C      1, 3, 5, 8, 9, 11
    2    8 O      2, 4, 10
    3    7 N      6, 7
    4    1 H      12-20

      * Solvation model:               ALPB
        Solvent                        DMSO
        Solvent mass                       7.8130E+01 g/mol
          :  Hamiltonian                  GFN1-xTB          :
 * total energy  :   -37.5506393 Eh     change       -0.1219291E-10 Eh
 * total energy  :   -37.5664709 Eh     change       -0.1583157E-01 Eh
 * total energy  :   -37.5737539 Eh     change       -0.7282975E-02 Eh
 * total energy  :   -37.5758494 Eh     change       -0.2095495E-02 Eh
 * total energy  :   -37.5772026 Eh     change       -0.1353213E-02 Eh
 * total energy  :   -37.5777350 Eh     change       -0.5324045E-03 Eh
 * total energy  :   -37.5780852 Eh     change       -0.3502189E-03 Eh
 * total energy  :   -37.5783283 Eh     change       -0.2431236E-03 Eh
 * total energy  :   -37.5784623 Eh     change       -0.1339478E-03 Eh
 * total energy  :   -37.5785506 Eh     change       -0.8832678E-04 Eh
 * total energy  :   -37.5793498 Eh     change        0.1406359E-04 Eh
 * total energy  :   -37.5794209 Eh     change       -0.7106948E-04 Eh
 * total energy  :   -37.5794379 Eh     change       -0.1702064E-04 Eh
 * total energy  :   -37.5794625 Eh     change       -0.2464067E-04 Eh
 * total energy  :   -37.5794702 Eh     change       -0.7668751E-05 Eh
 * total energy  :   -37.5794846 Eh     change       -0.1437437E-04 Eh
 * total energy  :   -37.5794918 Eh     change       -0.7176964E-05 Eh
 * total energy  :   -37.5794985 Eh     change       -0.6756365E-05 Eh
 * total energy  :   -37.5795019 Eh     change       -0.3398164E-05 Eh
   *** GEOMETRY OPTIMIZATION CONVERGED AFTER 40 ITERATIONS ***

 final structure:
================
20
 xtb: 6.5.1 (579679a)
C            3.87322453384060        0.40582624647548        0.48306672474466
O            2.53626741053092        0.07236518816097        0.90584546445326
C            1.58384851763855        0.19842773085334        0.01852641007651
O            1.70250705539758        0.56970766294867       -1.11900995097662
C            0.26423559583073       -0.19242179507604        0.61043306169095
N           -0.02357162594187       -0.58410808318209        1.79316638701739
N           -1.36355047805624       -0.82441671328222        1.86229382251237
C           -1.89313731645016       -0.57970637275599        0.72353659977089
C           -3.30069617085292       -0.68251063225042        0.31321487704851
O           -0.89876155610330       -0.15620510828470       -0.16375208146788
C           -1.00553214816202        0.21870044876382       -1.57702473552219
H            3.90760542182693        1.45291558453585        0.17925717148518
H            4.51425298860373        0.22817069649665        1.34319771929854
H            4.15763606200520       -0.23161221024245       -0.35502652053233
H           -3.88238855346166       -1.04917702189067        1.15760673258744
H           -3.67827972272181        0.29390289754205        0.00739096052117
H           -3.40691149730991       -1.36733212931150       -0.52854495176247
H           -0.37811771662966       -0.46776920639503       -2.14216325065682
H           -2.05228584681627        0.12310848404425       -1.84476512802610
H           -0.65634195316826        1.24487833285000       -1.66724631226233

          :  Hamiltonian                  GFN1-xTB          :
         :: total energy             -37.579501908443 Eh    ::
         :: gradient norm              0.000793111850 Eh/a0 ::
         :: HOMO-LUMO gap              3.706023765799 eV    ::
         :: SCC energy               -37.928984032073 Eh    ::
         :: -> Gsolv                  -0.089846396805 Eh    ::
         :: repulsion energy           0.358202278271 Eh    ::

    * Orbital Energies and Occupations

         #    Occupation            Energy/Eh            Energy/eV
      -------------------------------------------------------------
         1        2.0000           -0.9755489             -26.5460
       ...           ...                  ...                  ...
        18        2.0000           -0.6071381             -16.5211
        19        2.0000           -0.6031639             -16.4129
        20        2.0000           -0.5993936             -16.3103
        21        2.0000           -0.5934668             -16.1491
        22        2.0000           -0.5857283             -15.9385
        23        2.0000           -0.5723800             -15.5753
        24        2.0000           -0.5624785             -15.3058
        25        2.0000           -0.5501910             -14.9715
        26        2.0000           -0.5416857             -14.7400
        27        2.0000           -0.5293691             -14.4049
        28        2.0000           -0.5288989             -14.3921
        29        2.0000           -0.5195549             -14.1378
        30        2.0000           -0.5141596             -13.9910 (HOMO)
        31                         -0.3779657             -10.2850 (LUMO)
        32                         -0.3209789              -8.7343
        33                         -0.2591763              -7.0525
        34                         -0.1948183              -5.3013
        35                         -0.1789446              -4.8693
        36                         -0.1550502              -4.2191
        37                         -0.1279293              -3.4811
        38                         -0.1185688              -3.2264
        39                         -0.1178410              -3.2066
        40                         -0.1042239              -2.8361
        41                         -0.0900764              -2.4511
       ...                                ...                  ...
        62                          0.7182522              19.5446
      -------------------------------------------------------------
                  HL-Gap            0.1361939 Eh            3.7060 eV

Wiberg/Mayer (AO) data.
largest (>0.10) Wiberg bond orders for each atom

     #   Z sym  total        # sym  WBO       # sym  WBO       # sym  WBO
 ---------------------------------------------------------------------------
     1   6 C    3.833 --    13 H    0.984    14 H    0.976    12 H    0.976
                             2 O    0.862
     2   8 O    2.245 --     3 C    1.178     1 C    0.862     4 O    0.154
     3   6 C    3.879 --     4 O    1.670     2 O    1.178     5 C    0.962
     4   8 O    1.975 --     3 C    1.670     2 O    0.154
     5   6 C    3.810 --     6 N    1.708     3 C    0.962    10 O    0.884
     6   7 N    3.040 --     5 C    1.708     7 N    1.159
     7   7 N    3.024 --     8 C    1.684     6 N    1.159
     8   6 C    3.800 --     7 N    1.684     9 C    1.046    10 O    0.881
     9   6 C    3.967 --     8 C    1.046    15 H    0.969    17 H    0.949
                            16 H    0.947
    10   8 O    2.654 --     5 C    0.884     8 C    0.881    11 C    0.741
    11   6 C    3.717 --    19 H    0.973    18 H    0.967    20 H    0.967
                            10 O    0.741
    12   1 H    0.999 --     1 C    0.976
    13   1 H    1.005 --     1 C    0.984
    14   1 H    0.999 --     1 C    0.976
    15   1 H    0.988 --     9 C    0.969
    16   1 H    0.987 --     9 C    0.947
    17   1 H    0.987 --     9 C    0.949
    18   1 H    0.995 --    11 C    0.967
    19   1 H    0.989 --    11 C    0.973
    20   1 H    0.996 --    11 C    0.967
 ---------------------------------------------------------------------------

           -------------------------------------------------
          | TOTAL ENERGY              -37.579501908443 Eh   |
          | GRADIENT NORM               0.000793111850 Eh/α |
          | HOMO-LUMO GAP               3.706023765799 eV   |
           -------------------------------------------------

 * finished run on 2023/06/20 at 14:54:45.059
