   * xtb version 6.5.1 (579679a) compiled by 'ehlert@majestix' on 2022-07-11
          program call               : /lustre/hpc/kemi/ree/PhD/git/ReactivityQM/dep/xtb-6.5.1/bin/xtb --gfn 1 /lustre/hpc/kemi/ree/PhD/git/ReactivityQM/calculations/R03/reac02prodN08/conf07/R03_reac02prodN08_conf07_gfn1.xyz --opt --vfukui --chrg 1 --uhf 0 --alpb DMSO

   ID    Z sym.   atoms
    1    6 C      1, 3, 4, 6, 8-11, 13, 15, 18, 19, 22, 23, 25
    2    8 O      2, 5, 14, 20, 24, 26
    3    7 N      7, 12, 16, 17, 21
    4    1 H      27-46

      * Solvation model:               ALPB
        Solvent                        DMSO
        Solvent mass                       7.8130E+01 g/mol
          :  Hamiltonian                  GFN1-xTB          :
 * total energy  :   -86.1833798 Eh     change       -0.1470823E-10 Eh
 * total energy  :   -86.2010248 Eh     change       -0.1764503E-01 Eh
 * total energy  :   -86.2137913 Eh     change       -0.1276654E-01 Eh
 * total energy  :   -86.2201416 Eh     change       -0.6350211E-02 Eh
 * total energy  :   -86.2286191 Eh     change       -0.8477536E-02 Eh
 * total energy  :   -86.2364524 Eh     change       -0.7833342E-02 Eh
 * total energy  :   -86.2426090 Eh     change       -0.6156612E-02 Eh
 * total energy  :   -86.2469392 Eh     change       -0.4330185E-02 Eh
 * total energy  :   -86.2497129 Eh     change       -0.2773705E-02 Eh
 * total energy  :   -86.2516486 Eh     change       -0.1935641E-02 Eh
 * total energy  :   -86.2605017 Eh     change       -0.7902637E-05 Eh
 * total energy  :   -86.2605071 Eh     change       -0.5404607E-05 Eh
 * total energy  :   -86.2605143 Eh     change       -0.7200324E-05 Eh
 * total energy  :   -86.2605265 Eh     change       -0.1214670E-04 Eh
 * total energy  :   -86.2605422 Eh     change       -0.1576520E-04 Eh
 * total energy  :   -86.2605534 Eh     change       -0.1112777E-04 Eh
 * total energy  :   -86.2605620 Eh     change       -0.8609321E-05 Eh
 * total energy  :   -86.2605737 Eh     change       -0.1169599E-04 Eh
 * total energy  :   -86.2605777 Eh     change       -0.4057490E-05 Eh
   *** GEOMETRY OPTIMIZATION CONVERGED AFTER 129 ITERATIONS ***

 final structure:
================
46
 xtb: 6.5.1 (579679a)
C           -4.49081462387550        1.86150609401027        2.64249714297769
O           -4.67577438855169        2.84764130873079        1.62097415224500
C           -3.95602212409522        2.73642282559672        0.51025722851994
C           -4.26870030534146        3.83564123952734       -0.46704323829816
O           -3.15984558947847        1.84655027369003        0.31063198233287
C           -2.61242798206636       -1.11874989438454       -1.52113221106934
N           -1.84495647211255       -0.64276724856571       -0.66450481540135
C           -0.68394081186493       -1.20477105345258       -0.42049565086862
C            0.20429870112601       -0.63625321828547        0.66148378007448
C           -0.32524295298266        0.73991237715424        1.07922192299924
C            0.18692049833031       -1.60518356461673        1.85557972619746
N            1.54908126855559       -0.49313819659849        0.10130045676331
C            2.60888048775918       -0.08321959562329        0.86196499347729
O            2.61189924665089        0.00276625282341        2.07078619490652
C            3.77208235137543        0.21901095350250        0.00001469952567
N            3.79094986268926        0.18833741053434       -1.30010519849483
N            5.04200138962916        0.55655542590768       -1.68231517801980
C            5.70982782142775        0.79250550165107       -0.59067935090247
C            7.11943190699674        1.22355213055732       -0.46899959292934
O            4.95973071835634        0.59764971640509        0.50243213876133
N           -0.44832919551784       -2.31664541790261       -1.17685016991089
C            0.76388931495071       -3.14525225656615       -1.04843706231504
C           -1.32234235263389       -2.82326794055906       -2.11849868144867
O           -1.11560659616743       -3.80397635480842       -2.78881488866895
C           -2.65759941492318       -2.11459637274349       -2.36065666110950
O           -3.49548228048237       -2.57607691761336       -3.24406272369524
H           -5.35333298385877        1.92824842459593        3.30388872043620
H           -4.42711549757632        0.86606283271190        2.19844538756089
H           -3.57350906537782        2.07236607825572        3.19667797646419
H           -5.27512366818485        3.68118336379714       -0.85399111451497
H           -4.24171665469906        4.79812810978591        0.03971833454279
H           -3.55651213600178        3.81646699612442       -1.28686725784990
H           -1.33368414671554        0.64356079431087        1.47802366826151
H            0.32533380283198        1.15580111081900        1.84635897903475
H           -0.34885610338648        1.41110312295635        0.22248080454869
H           -0.84526944656794       -1.82101190377457        2.12532336371169
H            0.68615664173005       -1.14414300242304        2.70547116544703
H            0.69287953168518       -2.53512346998770        1.61022446551610
H            1.61546728468475       -0.32007874225847       -0.89085683290400
H            7.68415102400586        0.48606410302461        0.10169591624883
H            7.55570832763317        1.33181895195250       -1.45898777431276
H            7.17338633282332        2.17401770346083        0.06222663536815
H            0.48613891685156       -4.08009765383536       -0.56401738902220
H            1.13223962484748       -3.34852636462974       -2.05280569939239
H            1.51075848032002       -2.61625059923103       -0.46876049602736
H           -3.16900674208087       -3.38374533358908       -3.67879884841470

          :  Hamiltonian                  GFN1-xTB          :
         :: total energy             -86.260577714601 Eh    ::
         :: gradient norm              0.000786767703 Eh/a0 ::
         :: HOMO-LUMO gap              1.107888373034 eV    ::
         :: SCC energy               -87.141214358751 Eh    ::
         :: -> Gsolv                  -0.110968169083 Eh    ::
         :: repulsion energy           0.907499333348 Eh    ::

    * Orbital Energies and Occupations

         #    Occupation            Energy/Eh            Energy/eV
      -------------------------------------------------------------
         1        2.0000           -0.8974300             -24.4203
       ...           ...                  ...                  ...
        58        2.0000           -0.5315946             -14.4654
        59        2.0000           -0.5252048             -14.2916
        60        2.0000           -0.5208328             -14.1726
        61        2.0000           -0.5194211             -14.1342
        62        2.0000           -0.5154145             -14.0251
        63        2.0000           -0.5045595             -13.7298
        64        2.0000           -0.4933272             -13.4241
        65        2.0000           -0.4885657             -13.2945
        66        2.0000           -0.4822915             -13.1238
        67        2.0000           -0.4810125             -13.0890
        68        2.0000           -0.4751592             -12.9297
        69        2.0000           -0.4627197             -12.5912
        70        2.0000           -0.4608070             -12.5392 (HOMO)
        71                         -0.4200928             -11.4313 (LUMO)
        72                         -0.3638168              -9.9000
        73                         -0.3374380              -9.1822
        74                         -0.3261228              -8.8743
        75                         -0.2694356              -7.3317
        76                         -0.2648579              -7.2072
        77                         -0.2288049              -6.2261
        78                         -0.2131282              -5.7995
        79                         -0.1666289              -4.5342
        80                         -0.1523355              -4.1453
        81                         -0.1452822              -3.9533
       ...                                ...                  ...
       144                          0.8038432              21.8737
      -------------------------------------------------------------
                  HL-Gap            0.0407141 Eh            1.1079 eV

Wiberg/Mayer (AO) data.
largest (>0.10) Wiberg bond orders for each atom

     #   Z sym  total        # sym  WBO       # sym  WBO       # sym  WBO
 ---------------------------------------------------------------------------
     1   6 C    3.870 --    27 H    0.985    28 H    0.981    29 H    0.980
                             2 O    0.892
     2   8 O    2.207 --     3 C    1.128     1 C    0.892     5 O    0.132
     3   6 C    3.827 --     5 O    1.660     2 O    1.128     4 C    0.991
     4   6 C    3.990 --     3 C    0.991    32 H    0.984    31 H    0.969
                            30 H    0.959
     5   8 O    1.926 --     3 C    1.660     2 O    0.132
     6   6 C    3.840 --     7 N    1.712    25 C    1.649    24 O    0.124
                            26 O    0.105
     7   7 N    3.362 --     6 C    1.712     8 C    1.340
     8   6 C    3.875 --     7 N    1.340    21 N    1.219     9 C    0.977
                            25 C    0.115
     9   6 C    3.925 --    10 C    0.984     8 C    0.977    11 C    0.964
                            12 N    0.931
    10   6 C    3.981 --     9 C    0.984    35 H    0.982    34 H    0.979
                            33 H    0.978
    11   6 C    3.978 --    36 H    0.984    38 H    0.981    37 H    0.970
                             9 C    0.964
    12   7 N    3.298 --    13 C    1.188     9 C    0.931    39 H    0.892
                            14 O    0.161
    13   6 C    3.908 --    14 O    1.631    12 N    1.188    15 C    0.999
    14   8 O    1.941 --    13 C    1.631    12 N    0.161
    15   6 C    3.879 --    16 N    1.599    20 O    1.066    13 C    0.999
    16   7 N    3.022 --    15 C    1.599    17 N    1.211
    17   7 N    2.981 --    18 C    1.592    16 N    1.211
    18   6 C    3.867 --    17 N    1.592    20 O    1.087    19 C    1.033
    19   6 C    3.985 --    18 C    1.033    41 H    0.982    42 H    0.962
                            40 H    0.961
    20   8 O    2.336 --    18 C    1.087    15 C    1.066
    21   7 N    3.528 --     8 C    1.219    23 C    1.155    22 C    0.883
                            24 O    0.128
    22   6 C    3.874 --    45 H    0.974    44 H    0.970    43 H    0.970
                            21 N    0.883
    23   6 C    3.917 --    24 O    1.632    21 N    1.155    25 C    0.860
    24   8 O    2.063 --    23 C    1.632    21 N    0.128     6 C    0.124
    25   6 C    3.928 --     6 C    1.649    26 O    1.166    23 C    0.860
                             8 C    0.115
    26   8 O    2.137 --    25 C    1.166    46 H    0.764     6 C    0.105
    27   1 H    1.009 --     1 C    0.985
    28   1 H    1.009 --     1 C    0.981
    29   1 H    1.006 --     1 C    0.980
    30   1 H    0.997 --     4 C    0.959
    31   1 H    0.998 --     4 C    0.969
    32   1 H    1.001 --     4 C    0.984
    33   1 H    1.014 --    10 C    0.978
    34   1 H    1.001 --    10 C    0.979
    35   1 H    1.004 --    10 C    0.982
    36   1 H    0.998 --    11 C    0.984
    37   1 H    1.006 --    11 C    0.970
    38   1 H    0.998 --    11 C    0.981
    39   1 H    0.947 --    12 N    0.892
    40   1 H    0.995 --    19 C    0.961
    41   1 H    0.998 --    19 C    0.982
    42   1 H    0.996 --    19 C    0.962
    43   1 H    0.992 --    22 C    0.970
    44   1 H    0.994 --    22 C    0.970
    45   1 H    1.005 --    22 C    0.974
    46   1 H    0.799 --    26 O    0.764
 ---------------------------------------------------------------------------

           -------------------------------------------------
          | TOTAL ENERGY              -86.260577714601 Eh   |
          | GRADIENT NORM               0.000786767703 Eh/α |
          | HOMO-LUMO GAP               1.107888373034 eV   |
           -------------------------------------------------

 * finished run on 2023/06/20 at 15:43:17.309
