   * xtb version 6.5.1 (579679a) compiled by 'ehlert@majestix' on 2022-07-11
          program call               : /lustre/hpc/kemi/ree/PhD/git/ReactivityQM/dep/xtb-6.5.1/bin/xtb --gfn 1 /lustre/hpc/kemi/ree/PhD/git/ReactivityQM/calculations/R02deprot/reac01prodN01/conf15/R02deprot_reac01prodN01_conf15_gfn1.xyz --opt --vfukui --chrg 0 --uhf 0 --alpb DMSO

   ID    Z sym.   atoms
    1    6 C      1, 3, 5, 7-10, 12, 14, 17, 18, 20, 22, 24
    2    8 O      2, 4, 13, 19, 23, 25
    3    7 N      6, 11, 15, 16, 21
    4    1 H      26-42

      * Solvation model:               ALPB
        Solvent                        DMSO
        Solvent mass                       7.8130E+01 g/mol
          :  Hamiltonian                  GFN1-xTB          :
 * total energy  :   -82.8754129 Eh     change       -0.1797673E-10 Eh
 * total energy  :   -82.8928060 Eh     change       -0.1739310E-01 Eh
 * total energy  :   -82.9008421 Eh     change       -0.8036104E-02 Eh
 * total energy  :   -82.9032991 Eh     change       -0.2457007E-02 Eh
 * total energy  :   -82.9051113 Eh     change       -0.1812281E-02 Eh
 * total energy  :   -82.9060066 Eh     change       -0.8952017E-03 Eh
 * total energy  :   -82.9067442 Eh     change       -0.7376384E-03 Eh
 * total energy  :   -82.9073482 Eh     change       -0.6040491E-03 Eh
 * total energy  :   -82.9078062 Eh     change       -0.4579296E-03 Eh
 * total energy  :   -82.9081852 Eh     change       -0.3790295E-03 Eh
 * total energy  :   -82.9123462 Eh     change       -0.3253707E-04 Eh
 * total energy  :   -82.9123640 Eh     change       -0.1788310E-04 Eh
 * total energy  :   -82.9123934 Eh     change       -0.2931944E-04 Eh
 * total energy  :   -82.9124109 Eh     change       -0.1757251E-04 Eh
 * total energy  :   -82.9124186 Eh     change       -0.7666180E-05 Eh
 * total energy  :   -82.9124241 Eh     change       -0.5498867E-05 Eh
 * total energy  :   -82.9124333 Eh     change       -0.9175465E-05 Eh
 * total energy  :   -82.9124394 Eh     change       -0.6156367E-05 Eh
 * total energy  :   -82.9124442 Eh     change       -0.4758069E-05 Eh
   *** GEOMETRY OPTIMIZATION CONVERGED AFTER 58 ITERATIONS ***

 final structure:
================
42
 xtb: 6.5.1 (579679a)
C            6.55317319601797        0.07319967674157        1.50580213704420
O            5.22264744065206       -0.02326621664110        0.99929848661155
C            5.09977465527363       -0.16898188666496       -0.32451769455445
O            6.07478699498833       -0.22415649229945       -1.06132590653441
C            3.70819218785457       -0.24217629225110       -0.79341401571868
N            2.72022995794065       -0.19627687467582        0.15467867826938
C            1.48665381899400       -0.23758157947618       -0.29029963515724
C            0.39786914607930       -0.19523012373522        0.77631357672486
C            0.58274227329654        1.03811053657758        1.66520319819854
C            0.44140451814041       -1.48315523009998        1.60694985063835
N           -0.87307898999242       -0.11401382030444        0.05202679832303
C           -2.06722604353327        0.01493313926350        0.60036574103935
O           -2.34761104615105        0.06930781878607        1.78913079513660
C           -3.13555551284588        0.10185452964524       -0.45214179042455
N           -3.03277107189369        0.02833934930669       -1.72394824894376
N           -4.27605641307777        0.17484170617967       -2.27846567598874
C           -5.13077228169280        0.33841218110349       -1.34488669567867
C           -6.58460638637323        0.54251063215411       -1.43767769579616
O           -4.47434831397993        0.30395396295639       -0.10805298348528
C           -5.01415771529229        0.44266903446775        1.24334389892369
N            1.07975801754220       -0.31695867630107       -1.55188794037693
C            1.99671499000006       -0.37216790006733       -2.56466483695614
O            1.65997697422361       -0.44603259585654       -3.75417822270705
C            3.40486936739045       -0.33678707910856       -2.13359799834319
O            4.34120403301535       -0.38964681762633       -3.10401304661441
H            6.47007827861140        0.19515365290914        2.58427435596635
H            7.11519858249897       -0.83467078659815        1.27090564105567
H            7.06337887983182        0.93498504499678        1.06700153866988
H           -0.12642570715744        1.03010512601623        2.49044852277391
H            0.43872062676055        1.94584533749294        1.08079908718568
H            1.59743058714170        1.02861435558022        2.06246643563074
H            0.26326704362511       -2.34691506418863        0.96742570944191
H            1.42792757781260       -1.57378860894464        2.06016788350468
H           -0.31406225838264       -1.45802603190792        2.39005416048859
H           -0.75731784455683       -0.15535537433487       -0.96770457361673
H           -7.11651596984152       -0.23973064177343       -0.89626424475159
H           -6.86331725935850        1.50501394507291       -1.00820697836627
H           -6.87178051947955        0.51764545062929       -2.48738272714230
H           -4.78190863287152       -0.47303259904090        1.78300445925560
H           -4.53141837364068        1.30409023630944        1.70019768144253
H           -6.08423698805004        0.58871056163836        1.13994817383918
H            5.23716718047982       -0.35034158593235       -2.70717889899889

          :  Hamiltonian                  GFN1-xTB          :
         :: total energy             -82.912444193693 Eh    ::
         :: gradient norm              0.000565623229 Eh/a0 ::
         :: HOMO-LUMO gap              0.650539350527 eV    ::
         :: SCC energy               -83.687248573970 Eh    ::
         :: -> Gsolv                  -0.100528014955 Eh    ::
         :: repulsion energy           0.800384851375 Eh    ::

    * Orbital Energies and Occupations

         #    Occupation            Energy/Eh            Energy/eV
      -------------------------------------------------------------
         1        2.0000           -0.9617900             -26.1716
       ...           ...                  ...                  ...
        55        2.0000           -0.5017545             -13.6534
        56        2.0000           -0.4967742             -13.5179
        57        2.0000           -0.4900466             -13.3348
        58        2.0000           -0.4858557             -13.2208
        59        2.0000           -0.4818130             -13.1108
        60        2.0000           -0.4734909             -12.8843
        61        2.0000           -0.4583168             -12.4714
        62        2.0000           -0.4576140             -12.4523
        63        2.0000           -0.4436785             -12.0731
        64        2.0000           -0.4282800             -11.6541
        65        2.0000           -0.4100213             -11.1572
        66        2.0000           -0.3821638             -10.3992
        67        2.0000           -0.3777138             -10.2781 (HOMO)
        68        0.0000           -0.3538069              -9.6276 (LUMO)
        69                         -0.3071515              -8.3580
        70                         -0.2863956              -7.7932
        71                         -0.2362236              -6.4280
        72                         -0.2304119              -6.2698
        73                         -0.1983901              -5.3985
        74                         -0.1861920              -5.0665
        75                         -0.1728981              -4.7048
        76                         -0.1296573              -3.5282
        77                         -0.1186895              -3.2297
        78                         -0.1184873              -3.2242
       ...                                ...                  ...
       134                          0.7264529              19.7678
      -------------------------------------------------------------
                  HL-Gap            0.0239069 Eh            0.6505 eV

Wiberg/Mayer (AO) data.
largest (>0.10) Wiberg bond orders for each atom

     #   Z sym  total        # sym  WBO       # sym  WBO       # sym  WBO
 ---------------------------------------------------------------------------
     1   6 C    3.881 --    26 H    0.987    28 H    0.980    27 H    0.980
                             2 O    0.906
     2   8 O    2.195 --     3 C    1.103     1 C    0.906     4 O    0.120
     3   6 C    3.837 --     4 O    1.589     2 O    1.103     5 C    1.046
     4   8 O    1.922 --     3 C    1.589     2 O    0.120
     5   6 C    3.962 --    24 C    1.464     6 N    1.197     3 C    1.046
     6   7 N    2.994 --     7 C    1.467     5 C    1.197
     7   6 C    3.960 --     6 N    1.467    21 N    1.371     8 C    0.967
     8   6 C    3.912 --     9 C    0.986    10 C    0.981     7 C    0.967
                            11 N    0.906
     9   6 C    3.992 --    30 H    0.986     8 C    0.986    29 H    0.983
                            31 H    0.982
    10   6 C    3.992 --    32 H    0.986    34 H    0.984    33 H    0.984
                             8 C    0.981
    11   7 N    3.430 --    12 C    1.353     8 C    0.906    35 H    0.851
                            13 O    0.204
    12   6 C    3.933 --    13 O    1.546    11 N    1.353    14 C    0.960
    13   8 O    1.912 --    12 C    1.546    11 N    0.204
    14   6 C    3.791 --    15 N    1.709    12 C    0.960    19 O    0.880
    15   7 N    3.039 --    14 C    1.709    16 N    1.141
    16   7 N    3.024 --    17 C    1.704    15 N    1.141
    17   6 C    3.805 --    16 N    1.704    18 C    1.042    19 O    0.875
    18   6 C    3.971 --    17 C    1.042    38 H    0.970    36 H    0.953
                            37 H    0.952
    19   8 O    2.653 --    14 C    0.880    17 C    0.875    20 C    0.751
    20   6 C    3.729 --    41 H    0.975    40 H    0.968    39 H    0.968
                            19 O    0.751
    21   7 N    3.024 --     7 C    1.371    22 C    1.213    23 O    0.126
    22   6 C    3.927 --    23 O    1.514    21 N    1.213    24 C    1.066
    23   8 O    1.802 --    22 C    1.514    21 N    0.126
    24   6 C    3.906 --     5 C    1.464    25 O    1.084    22 C    1.066
    25   8 O    2.058 --    24 C    1.084    42 H    0.800
    26   1 H    1.013 --     1 C    0.987
    27   1 H    1.009 --     1 C    0.980
    28   1 H    1.009 --     1 C    0.980
    29   1 H    1.009 --     9 C    0.983
    30   1 H    1.003 --     9 C    0.986
    31   1 H    1.015 --     9 C    0.982
    32   1 H    1.004 --    10 C    0.986
    33   1 H    1.010 --    10 C    0.984
    34   1 H    1.006 --    10 C    0.984
    35   1 H    0.972 --    11 N    0.851
    36   1 H    0.989 --    18 C    0.953
    37   1 H    0.989 --    18 C    0.952
    38   1 H    0.990 --    18 C    0.970
    39   1 H    1.002 --    20 C    0.968
    40   1 H    1.001 --    20 C    0.968
    41   1 H    0.991 --    20 C    0.975
    42   1 H    0.872 --    25 O    0.800
 ---------------------------------------------------------------------------

           -------------------------------------------------
          | TOTAL ENERGY              -82.912444193693 Eh   |
          | GRADIENT NORM               0.000565623229 Eh/α |
          | HOMO-LUMO GAP               0.650539350527 eV   |
           -------------------------------------------------

 * finished run on 2023/06/20 at 18:04:27.800
