   * xtb version 6.5.1 (579679a) compiled by 'ehlert@majestix' on 2022-07-11
          program call               : /lustre/hpc/kemi/ree/PhD/git/ReactivityQM/dep/xtb-6.5.1/bin/xtb --gfn 1 /lustre/hpc/kemi/ree/PhD/git/ReactivityQM/calculations/R02deprot/reac01prodE11/conf02/R02deprot_reac01prodE11_conf02_gfn1.xyz --opt --vfukui --chrg -2 --uhf 0 --alpb DMSO

   ID    Z sym.   atoms
    1    6 C      1, 3, 5, 7-10, 12, 14, 17-19, 22, 24
    2    8 O      2, 4, 13, 20, 23, 25
    3    7 N      6, 11, 15, 16, 21
    4    1 H      26-42

      * Solvation model:               ALPB
        Solvent                        DMSO
        Solvent mass                       7.8130E+01 g/mol
          :  Hamiltonian                  GFN1-xTB          :
 * total energy  :   -83.6387002 Eh     change       -0.2582112E-10 Eh
 * total energy  :   -83.6497377 Eh     change       -0.1103745E-01 Eh
 * total energy  :   -83.6527861 Eh     change       -0.3048470E-02 Eh
 * total energy  :   -83.6533492 Eh     change       -0.5631105E-03 Eh
 * total energy  :   -83.6538736 Eh     change       -0.5243055E-03 Eh
 * total energy  :   -83.6541442 Eh     change       -0.2706600E-03 Eh
 * total energy  :   -83.6544146 Eh     change       -0.2703682E-03 Eh
 * total energy  :   -83.6546073 Eh     change       -0.1927275E-03 Eh
 * total energy  :   -83.6547393 Eh     change       -0.1319865E-03 Eh
 * total energy  :   -83.6548730 Eh     change       -0.1336761E-03 Eh
 * total energy  :   -83.6560804 Eh     change       -0.1577465E-04 Eh
 * total energy  :   -83.6560945 Eh     change       -0.1418534E-04 Eh
 * total energy  :   -83.6561093 Eh     change       -0.1479338E-04 Eh
 * total energy  :   -83.6561227 Eh     change       -0.1337950E-04 Eh
 * total energy  :   -83.6561345 Eh     change       -0.1176705E-04 Eh
 * total energy  :   -83.6561459 Eh     change       -0.1141851E-04 Eh
 * total energy  :   -83.6561561 Eh     change       -0.1017458E-04 Eh
 * total energy  :   -83.6561648 Eh     change       -0.8688723E-05 Eh
 * total energy  :   -83.6561691 Eh     change       -0.4304719E-05 Eh
   *** GEOMETRY OPTIMIZATION CONVERGED AFTER 44 ITERATIONS ***

 final structure:
================
42
 xtb: 6.5.1 (579679a)
C            4.04738092918715        3.75484903576709       -0.12497072935626
O            3.94863211137353        2.35691786792683       -0.37141190780254
C            2.80420929149038        1.76289943093937        0.01989099503950
O            1.90862206306515        2.39543222032027        0.54547198454180
C            2.77047168557018        0.30809613630229       -0.24558284083336
N            1.57628486039693       -0.30106339774072        0.03828595940409
C            1.49026199344190       -1.59867004380975       -0.14649503418484
C            0.17374368214310       -2.29804672525652        0.18476597586443
C            0.42974654873224       -3.21086897301585        1.39739977574353
C           -0.25316195331075       -3.13767068240421       -1.03427027893136
N           -0.82943624450889       -1.29574150688461        0.51144381341249
C           -2.16194364119593       -1.63005966212594        0.71410413139465
O           -2.51864887692162       -2.80401367565212        0.96995964956066
C           -3.06619489135658       -0.53809686115094        0.66225079391587
N           -4.37482876494872       -0.58951254489035        0.85025379567644
N           -4.92307189957641        0.58329803078241        0.69647476310003
C           -3.84805718711817        1.53142179107476        0.36052917765618
C           -3.78187754446477        2.63594684332459        1.43041026280936
C           -4.11235194091277        2.14027103121669       -1.02850372586491
O           -2.64612453744361        0.77463765164458        0.35084462317408
N            2.45725682472982       -2.41661681587019       -0.58067563913865
C            3.65946490625485       -1.88997216420596       -0.89052355990861
O            4.63592599276738       -2.54947380036886       -1.31105653103510
C            3.81710868242460       -0.44445875490369       -0.71115356312652
O            5.04678392394507        0.03164744538509       -1.02283654970642
H            3.23656918943841        4.29235252065676       -0.62512773630396
H            5.00763928491589        4.07937089399340       -0.52135055103986
H            3.99965540966573        3.95894406577028        0.94860396470980
H           -0.45214115743436       -3.80744689018524        1.62654311160141
H            1.26234125433875       -3.87875492234388        1.17639241186130
H            0.68343416216518       -2.60550353355544        2.26821311833756
H           -1.12829026789829       -3.74201724468642       -0.79921355978548
H           -0.48770113537852       -2.48313856992544       -1.87403776312378
H            0.56623759573493       -3.79658876915787       -1.32095479897871
H           -0.64961233229484       -0.37658842539936        0.12051587838079
H           -3.56372305514712        2.18858635053286        2.39911543318884
H           -3.00504569708686        3.35912385910743        1.18796170138785
H           -4.74190101573064        3.14529055837299        1.48416946530119
H           -4.14009683787095        1.34530673284644       -1.77229533293727
H           -3.32762997001314        2.84743214112585       -1.29213995661409
H           -5.07176632171621        2.65342811189637       -1.02364740367376
H            5.56183388055119       -0.75094675543767       -1.31581632371640

          :  Hamiltonian                  GFN1-xTB          :
         :: total energy             -83.656169072087 Eh    ::
         :: gradient norm              0.000344734893 Eh/a0 ::
         :: HOMO-LUMO gap              0.962338868629 eV    ::
         :: SCC energy               -84.387067996552 Eh    ::
         :: -> Gsolv                  -0.259451429159 Eh    ::
         :: repulsion energy           0.756198948284 Eh    ::

    * Orbital Energies and Occupations

         #    Occupation            Energy/Eh            Energy/eV
      -------------------------------------------------------------
         1        2.0000           -0.8090226             -22.0146
       ...           ...                  ...                  ...
        56        2.0000           -0.4418646             -12.0237
        57        2.0000           -0.4389229             -11.9437
        58        2.0000           -0.4250524             -11.5663
        59        2.0000           -0.4230441             -11.5116
        60        2.0000           -0.4081892             -11.1074
        61        2.0000           -0.4021873             -10.9441
        62        2.0000           -0.3935505             -10.7091
        63        2.0000           -0.3876494             -10.5485
        64        2.0000           -0.3785519             -10.3009
        65        2.0000           -0.3625889              -9.8665
        66        2.0000           -0.3619725              -9.8498
        67        2.0000           -0.3596386              -9.7863
        68        2.0000           -0.3041178              -8.2755 (HOMO)
        69                         -0.2687525              -7.3131 (LUMO)
        70                         -0.2257263              -6.1423
        71                         -0.2161253              -5.8811
        72                         -0.1817905              -4.9468
        73                         -0.1245627              -3.3895
        74                         -0.1147245              -3.1218
        75                         -0.0997389              -2.7140
        76                         -0.0961958              -2.6176
        77                         -0.0936867              -2.5493
        78                         -0.0897455              -2.4421
        79                         -0.0871995              -2.3728
       ...                                ...                  ...
       134                          0.7476528              20.3447
      -------------------------------------------------------------
                  HL-Gap            0.0353653 Eh            0.9623 eV

Wiberg/Mayer (AO) data.
largest (>0.10) Wiberg bond orders for each atom

     #   Z sym  total        # sym  WBO       # sym  WBO       # sym  WBO
 ---------------------------------------------------------------------------
     1   6 C    3.891 --    27 H    0.987    28 H    0.980    26 H    0.980
                             2 O    0.916
     2   8 O    2.178 --     3 C    1.075     1 C    0.916     4 O    0.122
     3   6 C    3.835 --     4 O    1.634     2 O    1.075     5 C    1.030
     4   8 O    1.896 --     3 C    1.634     2 O    0.122
     5   6 C    3.963 --    24 C    1.478     6 N    1.200     3 C    1.030
     6   7 N    3.006 --     7 C    1.476     5 C    1.200
     7   6 C    3.953 --     6 N    1.476    21 N    1.343     8 C    0.974
     8   6 C    3.955 --     9 C    0.982    10 C    0.981     7 C    0.974
                            11 N    0.954
     9   6 C    3.994 --    31 H    0.987    30 H    0.987     8 C    0.982
                            29 H    0.982
    10   6 C    3.994 --    33 H    0.987    34 H    0.985    32 H    0.983
                             8 C    0.981
    11   7 N    3.232 --    12 C    1.117     8 C    0.954    35 H    0.907
                            13 O    0.110
    12   6 C    3.926 --    13 O    1.435    14 C    1.205    11 N    1.117
    13   8 O    1.770 --    12 C    1.435    11 N    0.110
    14   6 C    3.843 --    15 N    1.418    12 C    1.205    20 O    0.921
                            16 N    0.167
    15   7 N    3.022 --    16 N    1.444    14 C    1.418
    16   7 N    2.858 --    15 N    1.444    17 C    0.983    14 C    0.167
    17   6 C    3.901 --    16 N    0.983    18 C    0.977    19 C    0.977
                            20 O    0.926
    18   6 C    3.994 --    38 H    0.988    37 H    0.987    36 H    0.986
                            17 C    0.977
    19   6 C    3.994 --    41 H    0.988    40 H    0.987    39 H    0.986
                            17 C    0.977
    20   8 O    2.052 --    17 C    0.926    14 C    0.921
    21   7 N    2.985 --     7 C    1.343    22 C    1.269    23 O    0.127
    22   6 C    3.932 --    23 O    1.452    21 N    1.269    24 C    1.076
    23   8 O    1.791 --    22 C    1.452    21 N    0.127
    24   6 C    3.904 --     5 C    1.478    22 C    1.076    25 O    1.064
    25   8 O    2.041 --    24 C    1.064    42 H    0.816
    26   1 H    1.012 --     1 C    0.980
    27   1 H    1.014 --     1 C    0.987
    28   1 H    1.011 --     1 C    0.980
    29   1 H    1.025 --     9 C    0.982
    30   1 H    1.017 --     9 C    0.987
    31   1 H    1.011 --     9 C    0.987
    32   1 H    1.019 --    10 C    0.983
    33   1 H    1.008 --    10 C    0.987
    34   1 H    1.022 --    10 C    0.985
    35   1 H    0.985 --    11 N    0.907
    36   1 H    1.016 --    18 C    0.986
    37   1 H    1.008 --    18 C    0.987
    38   1 H    1.012 --    18 C    0.988
    39   1 H    1.016 --    19 C    0.986
    40   1 H    1.009 --    19 C    0.987
    41   1 H    1.012 --    19 C    0.988
    42   1 H    0.880 --    25 O    0.816
 ---------------------------------------------------------------------------

           -------------------------------------------------
          | TOTAL ENERGY              -83.656169072087 Eh   |
          | GRADIENT NORM               0.000344734893 Eh/α |
          | HOMO-LUMO GAP               0.962338868629 eV   |
           -------------------------------------------------

 * finished run on 2023/06/20 at 17:55:05.527
