   * xtb version 6.5.1 (579679a) compiled by 'ehlert@majestix' on 2022-07-11
          program call               : /lustre/hpc/kemi/ree/PhD/git/ReactivityQM/dep/xtb-6.5.1/bin/xtb --gfn 1 /lustre/hpc/kemi/ree/PhD/git/ReactivityQM/calculations/R02/reac01prodN09/conf10/R02_reac01prodN09_conf10_gfn1.xyz --opt --vfukui --chrg 1 --uhf 0 --alpb DMSO

   ID    Z sym.   atoms
    1    6 C      1, 3, 5, 6, 8-11, 13, 15, 18, 19, 22, 24
    2    8 O      2, 4, 14, 20, 23, 25
    3    7 N      7, 12, 16, 17, 21
    4    1 H      26-43

      * Solvation model:               ALPB
        Solvent                        DMSO
        Solvent mass                       7.8130E+01 g/mol
          :  Hamiltonian                  GFN1-xTB          :
 * total energy  :   -83.1001447 Eh     change       -0.8242296E-12 Eh
 * total energy  :   -83.1192315 Eh     change       -0.1908675E-01 Eh
 * total energy  :   -83.1274648 Eh     change       -0.8233301E-02 Eh
 * total energy  :   -83.1291463 Eh     change       -0.1681506E-02 Eh
 * total energy  :   -83.1301613 Eh     change       -0.1015006E-02 Eh
 * total energy  :   -83.1305470 Eh     change       -0.3856558E-03 Eh
 * total energy  :   -83.1309346 Eh     change       -0.3876258E-03 Eh
 * total energy  :   -83.1311885 Eh     change       -0.2539251E-03 Eh
 * total energy  :   -83.1313791 Eh     change       -0.1905387E-03 Eh
 * total energy  :   -83.1315672 Eh     change       -0.1881291E-03 Eh
 * total energy  :   -83.1333480 Eh     change       -0.1681065E-04 Eh
 * total energy  :   -83.1333610 Eh     change       -0.1299133E-04 Eh
 * total energy  :   -83.1333716 Eh     change       -0.1054560E-04 Eh
 * total energy  :   -83.1333856 Eh     change       -0.1398905E-04 Eh
 * total energy  :   -83.1333970 Eh     change       -0.1147322E-04 Eh
 * total energy  :   -83.1334079 Eh     change       -0.1089602E-04 Eh
 * total energy  :   -83.1334173 Eh     change       -0.9381700E-05 Eh
 * total energy  :   -83.1334237 Eh     change       -0.6376047E-05 Eh
 * total energy  :   -83.1334281 Eh     change       -0.4380885E-05 Eh
   *** GEOMETRY OPTIMIZATION CONVERGED AFTER 43 ITERATIONS ***

 final structure:
================
43
 xtb: 6.5.1 (579679a)
C           -2.56866260941738        2.24232995633670       -2.04861933262342
O           -2.28562721072893        1.31638903372571       -0.96873969393351
C           -2.25306311123709        1.77390183199191        0.23562193900012
O           -2.46690991166402        2.86361927788261        0.65083242020766
C           -1.84985591868463        0.57954517511383        1.28143929202787
C           -1.45186735866643        1.25681228325131        2.59382676060452
N           -0.75086682203126       -0.08530139491354        0.67120703917677
C           -0.90230641814128       -1.15546399180813       -0.00966406701440
C            0.28599841706432       -1.81732029589920       -0.67241252444253
C            0.49328558318037       -3.21803997395505       -0.07547039383951
C            0.05943222466991       -1.87785318488859       -2.19129520076416
N            1.44689085657711       -0.98401504506466       -0.38759404189318
C            2.68808831748318       -1.26004908875755       -0.84285452320732
O            2.99705946020383       -2.24249678791237       -1.49531054167370
C            3.67444089603344       -0.21824345515175       -0.46793109582627
N            4.94240815988318       -0.19900468083744       -0.73423204658424
N            5.43601490547214        0.95970546934806       -0.21502531398533
C            4.43881106148925        1.57815776160363        0.33533310956759
C            4.45413227073235        2.88305420075319        1.03091837736439
O            3.29272873363002        0.88593357273038        0.21204055708088
N           -2.12775816702932       -1.78059706432629       -0.17493628049008
C           -3.26888922748157       -1.37791385346178        0.43856313581411
O           -4.34557222562776       -1.92230372691612        0.36154091809853
C           -3.08798710958293       -0.17114985751926        1.30102653911914
O           -4.08884413724507        0.20662561568398        1.99452176154668
H           -2.92291775226308        1.63146300864166       -2.87508411990831
H           -1.64728110770514        2.75884719129587       -2.31703496160889
H           -3.32799941769509        2.95544484092090       -1.72770183190424
H           -1.18135454810252        0.49054333287764        3.31669838302420
H           -0.59772450005501        1.90496930241099        2.41432403957060
H           -2.28666264510172        1.84254579044386        2.97258554852630
H           -0.38852842495435       -3.83084831438617       -0.24544049331411
H            1.34969444912520       -3.69150230236916       -0.55328548005495
H            0.67448181693291       -3.14063920477644        0.99496878569762
H           -0.82357688870805       -2.47044234634359       -2.41812274318799
H           -0.07418915523727       -0.87125462966309       -2.58320221621534
H            0.92380689728716       -2.33900435718608       -2.66687296594576
H            1.28347270962201       -0.14231951930445        0.14527344492773
H            3.79260915327201        3.58265570265848        0.52065142870414
H            4.09360083393795        2.76304276495416        2.05189940548012
H            5.46670841251218        3.28082050412407        1.04404970829530
H           -2.20641549229965       -2.60910781316093       -0.75177402821678
H           -4.88880399942132       -0.35153372814918        1.85528130279711

          :  Hamiltonian                  GFN1-xTB          :
         :: total energy             -83.133428079745 Eh    ::
         :: gradient norm              0.000882656023 Eh/a0 ::
         :: HOMO-LUMO gap              0.788082208112 eV    ::
         :: SCC energy               -83.935267462428 Eh    ::
         :: -> Gsolv                  -0.122529850480 Eh    ::
         :: repulsion energy           0.829383721067 Eh    ::

    * Orbital Energies and Occupations

         #    Occupation            Energy/Eh            Energy/eV
      -------------------------------------------------------------
         1        2.0000           -0.9189060             -25.0047
       ...           ...                  ...                  ...
        55        2.0000           -0.5351300             -14.5616
        56        2.0000           -0.5298888             -14.4190
        57        2.0000           -0.5254620             -14.2985
        58        2.0000           -0.5184114             -14.1067
        59        2.0000           -0.5113326             -13.9141
        60        2.0000           -0.5098938             -13.8749
        61        2.0000           -0.4992747             -13.5860
        62        2.0000           -0.4955084             -13.4835
        63        2.0000           -0.4849232             -13.1954
        64        2.0000           -0.4721509             -12.8479
        65        2.0000           -0.4673928             -12.7184
        66        2.0000           -0.4572091             -12.4413
        67        2.0000           -0.4556750             -12.3995 (HOMO)
        68        0.0000           -0.4267135             -11.6115 (LUMO)
        69                         -0.3380870              -9.1998
        70                         -0.3169180              -8.6238
        71                         -0.3100467              -8.4368
        72                         -0.2703183              -7.3557
        73                         -0.2611865              -7.1072
        74                         -0.2043784              -5.5614
        75                         -0.1661996              -4.5225
        76                         -0.1606256              -4.3708
        77                         -0.1549806              -4.2172
        78                         -0.1506790              -4.1002
       ...                                ...                  ...
       136                          0.7531796              20.4951
      -------------------------------------------------------------
                  HL-Gap            0.0289615 Eh            0.7881 eV

Wiberg/Mayer (AO) data.
largest (>0.10) Wiberg bond orders for each atom

     #   Z sym  total        # sym  WBO       # sym  WBO       # sym  WBO
 ---------------------------------------------------------------------------
     1   6 C    3.814 --    26 H    0.980    28 H    0.980    27 H    0.976
                             2 O    0.834
     2   8 O    2.256 --     3 C    1.224     1 C    0.834     4 O    0.149
     3   6 C    3.857 --     4 O    1.754     2 O    1.224     5 C    0.694
     4   8 O    2.100 --     3 C    1.754     2 O    0.149
     5   6 C    3.954 --    24 C    1.111     7 N    1.021     6 C    0.952
                             3 C    0.694
     6   6 C    3.965 --    30 H    0.980    31 H    0.980    29 H    0.976
                             5 C    0.952
     7   7 N    3.047 --     8 C    1.686     5 C    1.021
     8   6 C    3.911 --     7 N    1.686    21 N    1.099     9 C    0.985
     9   6 C    3.938 --     8 C    0.985    11 C    0.972    10 C    0.971
                            12 N    0.944
    10   6 C    3.982 --    34 H    0.984    32 H    0.983    33 H    0.975
                             9 C    0.971
    11   6 C    3.983 --    36 H    0.985    35 H    0.982    37 H    0.975
                             9 C    0.972
    12   7 N    3.342 --    13 C    1.248     9 C    0.944    38 H    0.878
                            14 O    0.175
    13   6 C    3.915 --    14 O    1.589    12 N    1.248    15 C    0.995
    14   8 O    1.908 --    13 C    1.589    12 N    0.175
    15   6 C    3.874 --    16 N    1.623    20 O    1.046    13 C    0.995
    16   7 N    3.002 --    15 C    1.623    17 N    1.199
    17   7 N    2.983 --    18 C    1.612    16 N    1.199
    18   6 C    3.868 --    17 N    1.612    20 O    1.070    19 C    1.032
    19   6 C    3.986 --    18 C    1.032    41 H    0.982    40 H    0.963
                            39 H    0.962
    20   8 O    2.313 --    18 C    1.070    15 C    1.046
    21   7 N    3.479 --    22 C    1.196     8 C    1.099    42 H    0.864
                            23 O    0.166
    22   6 C    3.921 --    23 O    1.643    21 N    1.196    24 C    0.972
    23   8 O    1.981 --    22 C    1.643    21 N    0.166
    24   6 C    3.806 --    25 O    1.365     5 C    1.111    22 C    0.972
    25   8 O    2.284 --    24 C    1.365    43 H    0.741
    26   1 H    1.002 --     1 C    0.980
    27   1 H    0.997 --     1 C    0.976
    28   1 H    0.997 --     1 C    0.980
    29   1 H    0.993 --     6 C    0.976
    30   1 H    0.997 --     6 C    0.980
    31   1 H    0.998 --     6 C    0.980
    32   1 H    0.997 --    10 C    0.983
    33   1 H    1.005 --    10 C    0.975
    34   1 H    0.999 --    10 C    0.984
    35   1 H    0.997 --    11 C    0.982
    36   1 H    0.999 --    11 C    0.985
    37   1 H    1.004 --    11 C    0.975
    38   1 H    0.949 --    12 N    0.878
    39   1 H    0.997 --    19 C    0.962
    40   1 H    0.997 --    19 C    0.963
    41   1 H    0.998 --    19 C    0.982
    42   1 H    0.910 --    21 N    0.864
    43   1 H    0.785 --    25 O    0.741
 ---------------------------------------------------------------------------

           -------------------------------------------------
          | TOTAL ENERGY              -83.133428079745 Eh   |
          | GRADIENT NORM               0.000882656023 Eh/α |
          | HOMO-LUMO GAP               0.788082208112 eV   |
           -------------------------------------------------

 * finished run on 2023/06/20 at 15:29:39.539
