   * xtb version 6.5.1 (579679a) compiled by 'ehlert@majestix' on 2022-07-11
          program call               : /lustre/hpc/kemi/ree/PhD/git/ReactivityQM/dep/xtb-6.5.1/bin/xtb --gfn 1 /lustre/hpc/kemi/ree/PhD/git/ReactivityQM/calculations/R02methylcation/reac01prodE04/conf07/R02methylcation_reac01prodE04_conf07_gfn1.xyz --opt --vfukui --chrg -2 --uhf 0 --alpb DMSO

   ID    Z sym.   atoms
    1    6 C      1, 3, 5, 6, 8-11, 13, 15, 18, 19, 22, 24
    2    8 O      2, 4, 14, 20, 23, 25
    3    7 N      7, 12, 16, 17, 21
    4    1 H      26-42

      * Solvation model:               ALPB
        Solvent                        DMSO
        Solvent mass                       7.8130E+01 g/mol
          :  Hamiltonian                  GFN1-xTB          :
 * total energy  :   -83.5781262 Eh     change       -0.1785452E-09 Eh
 * total energy  :   -83.5986677 Eh     change       -0.2054147E-01 Eh
 * total energy  :   -83.6052779 Eh     change       -0.6610164E-02 Eh
 * total energy  :   -83.6065043 Eh     change       -0.1226429E-02 Eh
 * total energy  :   -83.6076299 Eh     change       -0.1125647E-02 Eh
 * total energy  :   -83.6081451 Eh     change       -0.5152025E-03 Eh
 * total energy  :   -83.6085535 Eh     change       -0.4083162E-03 Eh
 * total energy  :   -83.6089033 Eh     change       -0.3498045E-03 Eh
 * total energy  :   -83.6091925 Eh     change       -0.2892385E-03 Eh
 * total energy  :   -83.6094180 Eh     change       -0.2255135E-03 Eh
 * total energy  :   -83.6132131 Eh     change       -0.1863384E-04 Eh
 * total energy  :   -83.6132290 Eh     change       -0.1589013E-04 Eh
 * total energy  :   -83.6132455 Eh     change       -0.1653727E-04 Eh
 * total energy  :   -83.6132548 Eh     change       -0.9327163E-05 Eh
 * total energy  :   -83.6132667 Eh     change       -0.1183836E-04 Eh
 * total energy  :   -83.6132748 Eh     change       -0.8130543E-05 Eh
 * total energy  :   -83.6132836 Eh     change       -0.8802419E-05 Eh
 * total energy  :   -83.6132898 Eh     change       -0.6229335E-05 Eh
 * total energy  :   -83.6132931 Eh     change       -0.3256760E-05 Eh
   *** GEOMETRY OPTIMIZATION CONVERGED AFTER 51 ITERATIONS ***

 final structure:
================
42
 xtb: 6.5.1 (579679a)
C           -2.41219989822632        2.95926981577948       -0.98852090167764
O           -2.27362147829144        1.61332600694851       -0.55341113253023
C           -3.43241595367196        0.97258377583272       -0.25204672217031
O           -4.51368780486635        1.53475352466235       -0.36350867242333
C           -3.25516212506033       -0.49797963106384        0.08478302550957
C           -4.42939450088940       -0.96935192893391        0.94921994113688
N           -2.00829281974985       -0.74773913291982        0.78856404680616
C           -0.94395366414984       -0.94270760837326        0.09293871860375
C            0.37662853638142       -1.14501783044179        0.84184546298112
C            0.17279160865535       -0.76748073629022        2.31304889450662
C            0.78966809679689       -2.62408829678131        0.75647536398982
N            1.41729016405733       -0.24977124342278        0.32200856780407
C            2.26572580725668       -0.57477865048709       -0.73968765577950
O            1.95886894642572       -1.39335274346158       -1.63798895710970
C            3.48151971916429        0.17300772976099       -0.75185985152248
N            4.45466678204884        0.13837513886952       -1.66846650654008
N            5.42282704811167        1.00318876469348       -1.23874696912938
C            5.02342422435491        1.51357978919723       -0.12122086551938
C            5.74134056928529        2.50173487349124        0.72150287523096
O            3.80723885700852        1.05353683153232        0.26825135086956
N           -0.92938900611984       -1.00608246973804       -1.25854958422868
C           -2.10600341461085       -1.27960622496300       -2.02424118507031
O           -1.93145529964307       -1.69872543067013       -3.20547933617798
C           -3.33454152393649       -1.11433755489825       -1.34047628688140
O           -4.48635695123266       -1.41084279009386       -1.80819791351056
H           -1.41187738466537        3.34015880447220       -1.18969774497743
H           -2.88589632488492        3.56644341080050       -0.21148630039874
H           -3.02088575358247        3.01676562036335       -1.89678634388223
H           -4.34642988501091       -2.04062701414640        1.12886028173669
H           -5.37108359310880       -0.76655902353298        0.43909960190807
H           -4.42260321651810       -0.45193719050647        1.90787364871572
H            1.09288033777445       -0.92347610067631        2.87364319858366
H           -0.61397914121897       -1.38216959726159        2.74861750351931
H           -0.12349362118361        0.27773018345566        2.39727597992885
H            0.04346400223754       -3.23252982954411        1.26641240432901
H            0.86451895077140       -2.95694333542247       -0.27759228416798
H            1.75252482535208       -2.76917291191614        1.24430573909482
H            1.87829491881851        0.27632721283944        1.04874041611020
H            5.16520891807398        3.42391508635094        0.80424874034856
H            6.70881064459557        2.72245359507812        0.27669024362626
H            5.88834974658854        2.10676945573003        1.72675619363060
H           -0.05331634314413       -1.24864434431283       -1.71280898527469

          :  Hamiltonian                  GFN1-xTB          :
         :: total energy             -83.613293077896 Eh    ::
         :: gradient norm              0.000480966263 Eh/a0 ::
         :: HOMO-LUMO gap              0.033640370772 eV    ::
         :: SCC energy               -84.338134143802 Eh    ::
         :: -> Gsolv                  -0.282878327606 Eh    ::
         :: repulsion energy           0.751834959865 Eh    ::

    * Orbital Energies and Occupations

         #    Occupation            Energy/Eh            Energy/eV
      -------------------------------------------------------------
         1        2.0000           -0.8020068             -21.8237
       ...           ...                  ...                  ...
        56        2.0000           -0.4485459             -12.2056
        57        2.0000           -0.4437069             -12.0739
        58        2.0000           -0.4271323             -11.6229
        59        2.0000           -0.4240513             -11.5390
        60        2.0000           -0.4080936             -11.1048
        61        2.0000           -0.4045468             -11.0083
        62        2.0000           -0.4034533             -10.9785
        63        2.0000           -0.3976531             -10.8207
        64        2.0000           -0.3903782             -10.6227
        65        2.0000           -0.3761009             -10.2342
        66        2.0000           -0.3707934             -10.0898
        67        2.0000           -0.3440264              -9.3614
        68        1.3143           -0.2678816              -7.2894 (HOMO)
        69        0.6857           -0.2666453              -7.2558 (LUMO)
        70                         -0.2224305              -6.0526
        71                         -0.2094436              -5.6993
        72                         -0.1995477              -5.4300
        73                         -0.1404036              -3.8206
        74                         -0.1235324              -3.3615
        75                         -0.1223370              -3.3290
        76                         -0.1139065              -3.0996
        77                         -0.1015846              -2.7643
        78                         -0.0971944              -2.6448
        79                         -0.0874684              -2.3801
       ...                                ...                  ...
       134                          0.7124589              19.3870
      -------------------------------------------------------------
                  HL-Gap            0.0012363 Eh            0.0336 eV

Wiberg/Mayer (AO) data.
largest (>0.10) Wiberg bond orders for each atom

     #   Z sym  total        # sym  WBO       # sym  WBO       # sym  WBO
 ---------------------------------------------------------------------------
     1   6 C    3.898 --    26 H    0.987    27 H    0.981    28 H    0.981
                             2 O    0.922
     2   8 O    2.148 --     3 C    1.049     1 C    0.922     4 O    0.108
     3   6 C    3.775 --     4 O    1.596     2 O    1.049     5 C    0.946
     4   8 O    1.861 --     3 C    1.596     2 O    0.108
     5   6 C    3.960 --     6 C    0.990     7 N    0.981     3 C    0.946
                            24 C    0.878
     6   6 C    3.989 --     5 C    0.990    31 H    0.988    29 H    0.988
                            30 H    0.984
     7   7 N    2.931 --     8 C    1.638     5 C    0.981    21 N    0.150
     8   6 C    3.930 --     7 N    1.638    21 N    1.197     9 C    0.961
     9   6 C    3.950 --    10 C    1.001    11 C    0.983     8 C    0.961
                            12 N    0.939
    10   6 C    3.996 --     9 C    1.001    32 H    0.987    34 H    0.985
                            33 H    0.983
    11   6 C    3.991 --    35 H    0.987    37 H    0.986     9 C    0.983
                            36 H    0.979
    12   7 N    3.143 --    13 C    1.093     9 C    0.939    38 H    0.919
                            14 O    0.110
    13   6 C    3.748 --    14 O    1.425    15 C    1.160    12 N    1.093
    14   8 O    1.701 --    13 C    1.425    12 N    0.110
    15   6 C    3.692 --    16 N    1.397    13 C    1.160    20 O    0.965
    16   7 N    2.722 --    15 C    1.397    17 N    1.189
    17   7 N    2.982 --    18 C    1.629    16 N    1.189
    18   6 C    3.811 --    17 N    1.629    20 O    1.039    19 C    1.024
    19   6 C    3.994 --    18 C    1.024    40 H    0.986    41 H    0.972
                            39 H    0.970
    20   8 O    2.176 --    18 C    1.039    15 C    0.965
    21   7 N    3.342 --     8 C    1.197    22 C    0.974    42 H    0.885
                             7 N    0.150
    22   6 C    3.748 --    23 O    1.391    24 C    1.235    21 N    0.974
    23   8 O    1.600 --    22 C    1.391
    24   6 C    3.722 --    25 O    1.375    22 C    1.235     5 C    0.878
    25   8 O    1.573 --    24 C    1.375
    26   1 H    1.016 --     1 C    0.987
    27   1 H    1.014 --     1 C    0.981
    28   1 H    1.014 --     1 C    0.981
    29   1 H    1.012 --     6 C    0.988
    30   1 H    1.026 --     6 C    0.984
    31   1 H    1.011 --     6 C    0.988
    32   1 H    1.003 --    10 C    0.987
    33   1 H    1.021 --    10 C    0.983
    34   1 H    1.012 --    10 C    0.985
    35   1 H    1.007 --    11 C    0.987
    36   1 H    1.020 --    11 C    0.979
    37   1 H    1.005 --    11 C    0.986
    38   1 H    0.964 --    12 N    0.919
    39   1 H    1.000 --    19 C    0.970
    40   1 H    1.004 --    19 C    0.986
    41   1 H    1.000 --    19 C    0.972
    42   1 H    0.971 --    21 N    0.885
 ---------------------------------------------------------------------------

           -------------------------------------------------
          | TOTAL ENERGY              -83.613293077896 Eh   |
          | GRADIENT NORM               0.000480966263 Eh/α |
          | HOMO-LUMO GAP               0.033640370772 eV   |
           -------------------------------------------------

 * finished run on 2023/06/21 at 17:10:27.851
