   * xtb version 6.5.1 (579679a) compiled by 'ehlert@majestix' on 2022-07-11
          program call               : /lustre/hpc/kemi/ree/PhD/git/ReactivityQM/dep/xtb-6.5.1/bin/xtb --gfn 1 /lustre/hpc/kemi/ree/PhD/git/ReactivityQM/calculations/RaltegravirCLI/reac02prodN14/conf02/RaltegravirCLI_reac02prodN14_conf02_gfn1.xyz --opt --vfukui --chrg 1 --uhf 0 --alpb DMSO

   ID    Z sym.   atoms
    1    6 C      1-3, 5, 7, 8, 11-15, 17-19, 21, 24, 25
    2    7 N      4, 6, 10, 23
    3    8 O      9, 20, 22
    4    9 F      16
    5    1 H      26-47

      * Solvation model:               ALPB
        Solvent                        DMSO
        Solvent mass                       7.8130E+01 g/mol
          :  Hamiltonian                  GFN1-xTB          :
 * total energy  :   -79.4562129 Eh     change       -0.9383427E-10 Eh
 * total energy  :   -79.4703021 Eh     change       -0.1408919E-01 Eh
 * total energy  :   -79.4754344 Eh     change       -0.5132286E-02 Eh
 * total energy  :   -79.4765111 Eh     change       -0.1076692E-02 Eh
 * total energy  :   -79.4770374 Eh     change       -0.5263701E-03 Eh
 * total energy  :   -79.4772823 Eh     change       -0.2448754E-03 Eh
 * total energy  :   -79.4774506 Eh     change       -0.1683245E-03 Eh
 * total energy  :   -79.4775628 Eh     change       -0.1121391E-03 Eh
 * total energy  :   -79.4776363 Eh     change       -0.7349898E-04 Eh
 * total energy  :   -79.4776946 Eh     change       -0.5834316E-04 Eh
 * total energy  :   -79.4783262 Eh     change       -0.2854421E-04 Eh
 * total energy  :   -79.4783450 Eh     change       -0.1877670E-04 Eh
 * total energy  :   -79.4783595 Eh     change       -0.1450383E-04 Eh
 * total energy  :   -79.4783867 Eh     change       -0.2718094E-04 Eh
 * total energy  :   -79.4784091 Eh     change       -0.2241635E-04 Eh
 * total energy  :   -79.4784178 Eh     change       -0.8654827E-05 Eh
 * total energy  :   -79.4784235 Eh     change       -0.5743063E-05 Eh
 * total energy  :   -79.4784303 Eh     change       -0.6774558E-05 Eh
 * total energy  :   -79.4784337 Eh     change       -0.3364783E-05 Eh
   *** GEOMETRY OPTIMIZATION CONVERGED AFTER 47 ITERATIONS ***

 final structure:
================
47
 xtb: 6.5.1 (579679a)
C           -2.23477814556152       -2.59836739677089        0.88935071214549
C           -3.09165937795639       -1.43339067606467        0.36411879670284
C           -4.16538152280838       -1.08814714542201        1.40494600148636
N           -3.74482134913394       -1.81258202610202       -0.88228613221237
C           -2.17111778834703       -0.25373138460314        0.10296019054557
N           -0.96554223758018       -0.32642999115642        0.46357181112180
C            0.01501976748692        0.61866840268502        0.22911038751879
C            1.31841020159767        0.29588120864260        0.91757219265927
O            1.45272757625072       -0.75118380502096        1.53031171731314
N            2.27267758921195        1.23271886600110        0.82211405293796
C            3.58875915621180        1.01052159996528        1.42321797226877
C            4.45794629190343        0.20289625255004        0.48325123840970
C            4.46106861488427       -1.18809533334689        0.56020868434206
C            5.23412854998630       -1.94020353521702       -0.31261612915478
C            5.99454468102874       -1.27310234305654       -1.25638050372889
F            6.74583212733947       -1.99314333842132       -2.10359274778080
C            6.01067007955963        0.10599032009646       -1.36324149573396
C            5.23012801140446        0.84287659592549       -0.48310965537519
C           -0.24357897049545        1.62181098191165       -0.65262640880805
O            0.68434596742396        2.47649745272352       -1.10019697366179
C           -1.57513621436932        1.80201147204613       -1.20867713744728
O           -1.86723926896637        2.58727225629625       -2.06070948086522
N           -2.67279050021550        1.02075032637465       -0.52566408701806
C           -3.80260979104529        0.86609001082756       -1.48402368607324
C           -3.07999282409589        1.94726855050816        0.58561480238291
H           -1.77545649119279       -2.33311732656882        1.84070841537468
H           -2.87306088891660       -3.46892632480529        1.02832839806922
H           -1.45121145610946       -2.84322443556594        0.17403076798726
H           -4.68020340367947       -2.00318158846319        1.69583651429104
H           -4.90147901481189       -0.40060176506083        0.99473651577559
H           -3.70996512632632       -0.64661934107913        2.28980636338151
H           -3.08938081889966       -2.29632107023843       -1.48248457105299
H           -4.51360836666836       -2.43695608917798       -0.68100339071219
H            2.13382458592287        2.07288351874280        0.28990660134999
H            3.44391268177685        0.47639198840980        2.36699043431053
H            4.02874674286634        1.98948477721809        1.62074752894704
H            3.85037580688277       -1.68616678252401        1.30430935121786
H            5.24633333057210       -3.02144764244351       -0.26502302228815
H            6.61679913097598        0.59026288997001       -2.11763704259364
H            5.22376795285796        1.92407384028352       -0.55010438386184
H            0.31132722928029        3.12800470827305       -1.71726126648768
H           -4.06148247180051        1.85565043991136       -1.85367561829296
H           -3.47748372537868        0.22325033457229       -2.29591167335618
H           -4.64400151056474        0.42212399683927       -0.96626602310271
H           -3.96839946037120        1.54328087852530        1.05881908230872
H           -3.29766223940099        2.91916150917340        0.14896722932164
H           -2.26330411072700        2.01911416263633        1.29923966743835

          :  Hamiltonian                  GFN1-xTB          :
         :: total energy             -79.478433660218 Eh    ::
         :: gradient norm              0.000646046701 Eh/a0 ::
         :: HOMO-LUMO gap              1.182280582129 eV    ::
         :: SCC energy               -80.378888442359 Eh    ::
         :: -> Gsolv                  -0.115306116661 Eh    ::
         :: repulsion energy           0.931984720360 Eh    ::

    * Orbital Energies and Occupations

         #    Occupation            Energy/Eh            Energy/eV
      -------------------------------------------------------------
         1        2.0000           -0.8937843             -24.3211
       ...           ...                  ...                  ...
        55        2.0000           -0.5164803             -14.0541
        56        2.0000           -0.5138758             -13.9833
        57        2.0000           -0.5125750             -13.9479
        58        2.0000           -0.5089207             -13.8484
        59        2.0000           -0.5063378             -13.7782
        60        2.0000           -0.4909900             -13.3605
        61        2.0000           -0.4784839             -13.0202
        62        2.0000           -0.4750423             -12.9266
        63        2.0000           -0.4706146             -12.8061
        64        2.0000           -0.4561631             -12.4128
        65        2.0000           -0.4543059             -12.3623
        66        2.0000           -0.4424975             -12.0410
        67        2.0000           -0.4352862             -11.8447 (HOMO)
        68                         -0.3918382             -10.6625 (LUMO)
        69                         -0.3205131              -8.7216
        70                         -0.2803381              -7.6284
        71                         -0.2779796              -7.5642
        72                         -0.2718080              -7.3963
        73                         -0.2023992              -5.5076
        74                         -0.1705585              -4.6411
        75                         -0.1551321              -4.2214
        76                         -0.1511277              -4.1124
        77                         -0.1471217              -4.0034
        78                         -0.1312196              -3.5707
       ...                                ...                  ...
       144                          0.7146185              19.4458
      -------------------------------------------------------------
                  HL-Gap            0.0434480 Eh            1.1823 eV

Wiberg/Mayer (AO) data.
largest (>0.10) Wiberg bond orders for each atom

     #   Z sym  total        # sym  WBO       # sym  WBO       # sym  WBO
 ---------------------------------------------------------------------------
     1   6 C    3.990 --     2 C    0.984    28 H    0.984    27 H    0.983
                            26 H    0.983
     2   6 C    3.957 --     1 C    0.984     4 N    0.983     5 C    0.978
                             3 C    0.976
     3   6 C    3.988 --    31 H    0.984    29 H    0.977    30 H    0.977
                             2 C    0.976
     4   7 N    2.980 --     2 C    0.983    32 H    0.934    33 H    0.928
     5   6 C    3.883 --     6 N    1.796     2 C    0.978    23 N    0.857
     6   7 N    3.100 --     5 C    1.796     7 C    1.109
     7   6 C    3.952 --    19 C    1.538     6 N    1.109     8 C    0.976
     8   6 C    3.919 --     9 O    1.583    10 N    1.286     7 C    0.976
     9   8 O    1.899 --     8 C    1.583    10 N    0.187
    10   7 N    3.379 --     8 C    1.286    11 C    0.930    34 H    0.885
                             9 O    0.187
    11   6 C    3.937 --    12 C    0.991    36 H    0.976    35 H    0.971
                            10 N    0.930
    12   6 C    3.986 --    18 C    1.420    13 C    1.418    11 C    0.991
    13   6 C    3.992 --    14 C    1.444    12 C    1.418    37 H    0.969
                            17 C    0.111
    14   6 C    3.992 --    13 C    1.444    15 C    1.400    38 H    0.969
                            18 C    0.110
    15   6 C    3.861 --    17 C    1.401    14 C    1.400    16 F    0.927
    16   9 F    1.056 --    15 C    0.927
    17   6 C    3.991 --    18 C    1.443    15 C    1.401    39 H    0.969
                            13 C    0.111
    18   6 C    3.994 --    17 C    1.443    12 C    1.420    40 H    0.971
                            14 C    0.110
    19   6 C    3.924 --     7 C    1.538    20 O    1.097    21 C    1.064
    20   8 O    2.091 --    19 C    1.097    41 H    0.790
    21   6 C    3.866 --    22 O    1.770    19 C    1.064    23 N    0.857
    22   8 O    2.058 --    21 C    1.770
    23   7 N    3.617 --    24 C    0.888    25 C    0.869    21 C    0.857
                             5 C    0.857
    24   6 C    3.877 --    43 H    0.979    44 H    0.977    42 H    0.976
                            23 N    0.888
    25   6 C    3.883 --    47 H    0.981    46 H    0.977    45 H    0.974
                            23 N    0.869
    26   1 H    1.005 --     1 C    0.983
    27   1 H    1.001 --     1 C    0.983
    28   1 H    1.005 --     1 C    0.984
    29   1 H    0.996 --     3 C    0.977
    30   1 H    1.001 --     3 C    0.977
    31   1 H    0.999 --     3 C    0.984
    32   1 H    0.949 --     4 N    0.934
    33   1 H    0.943 --     4 N    0.928
    34   1 H    0.937 --    10 N    0.885
    35   1 H    1.005 --    11 C    0.971
    36   1 H    1.001 --    11 C    0.976
    37   1 H    1.010 --    13 C    0.969
    38   1 H    0.998 --    14 C    0.969
    39   1 H    0.997 --    17 C    0.969
    40   1 H    0.998 --    18 C    0.971
    41   1 H    0.817 --    20 O    0.790
    42   1 H    0.998 --    24 C    0.976
    43   1 H    1.011 --    24 C    0.979
    44   1 H    1.016 --    24 C    0.977
    45   1 H    0.997 --    25 C    0.974
    46   1 H    0.990 --    25 C    0.977
    47   1 H    0.994 --    25 C    0.981
 ---------------------------------------------------------------------------

           -------------------------------------------------
          | TOTAL ENERGY              -79.478433660218 Eh   |
          | GRADIENT NORM               0.000646046701 Eh/α |
          | HOMO-LUMO GAP               1.182280582129 eV   |
           -------------------------------------------------

 * finished run on 2023/06/20 at 15:35:58.163
