   * xtb version 6.5.1 (579679a) compiled by 'ehlert@majestix' on 2022-07-11
          program call               : /lustre/hpc/kemi/ree/PhD/git/ReactivityQM/dep/xtb-6.5.1/bin/xtb --gfn 1 /lustre/hpc/kemi/ree/PhD/git/ReactivityQM/calculations/R02methylcation/reac01/conf07/R02methylcation_reac01_conf07_gfn1.xyz --opt --vfukui --chrg -1 --uhf 0 --alpb DMSO

   ID    Z sym.   atoms
    1    6 C      1, 3, 5, 7-10, 12, 14, 17, 18, 21, 23
    2    8 O      2, 4, 13, 19, 22, 24
    3    7 N      6, 11, 15, 16, 20
    4    1 H      25-38

      * Solvation model:               ALPB
        Solvent                        DMSO
        Solvent mass                       7.8130E+01 g/mol
          :  Hamiltonian                  GFN1-xTB          :
 * total energy  :   -79.6000164 Eh     change       -0.3403500E-10 Eh
 * total energy  :   -79.6133176 Eh     change       -0.1330125E-01 Eh
 * total energy  :   -79.6187798 Eh     change       -0.5462225E-02 Eh
 * total energy  :   -79.6197760 Eh     change       -0.9961351E-03 Eh
 * total energy  :   -79.6202651 Eh     change       -0.4891584E-03 Eh
 * total energy  :   -79.6204233 Eh     change       -0.1581210E-03 Eh
 * total energy  :   -79.6205252 Eh     change       -0.1019491E-03 Eh
 * total energy  :   -79.6206083 Eh     change       -0.8311680E-04 Eh
 * total energy  :   -79.6207000 Eh     change       -0.9171838E-04 Eh
 * total energy  :   -79.6208025 Eh     change       -0.1024226E-03 Eh
 * total energy  :   -79.6215384 Eh     change       -0.1539233E-04 Eh
 * total energy  :   -79.6215507 Eh     change       -0.1230485E-04 Eh
 * total energy  :   -79.6215607 Eh     change       -0.9901975E-05 Eh
 * total energy  :   -79.6215699 Eh     change       -0.9206829E-05 Eh
 * total energy  :   -79.6215855 Eh     change       -0.1564706E-04 Eh
 * total energy  :   -79.6215941 Eh     change       -0.8552167E-05 Eh
 * total energy  :   -79.6216046 Eh     change       -0.1056234E-04 Eh
 * total energy  :   -79.6216097 Eh     change       -0.5113827E-05 Eh
 * total energy  :   -79.6216123 Eh     change       -0.2579065E-05 Eh
   *** GEOMETRY OPTIMIZATION CONVERGED AFTER 33 ITERATIONS ***

 final structure:
================
38
 xtb: 6.5.1 (579679a)
C            6.19370287981147        0.43843825284365        2.01205272870645
O            5.14109315178721       -0.30195951870982        1.41209174835259
C            4.09038002887526        0.42782427204260        0.95700921004520
O            4.08279516265194        1.64833474041024        1.07559697210653
C            3.02823804928130       -0.35304898704906        0.34248046424029
N            1.98950736976134        0.43256654678397       -0.12299625320128
C            0.97691945898234       -0.09244404675814       -0.70670283008302
C           -0.13844794377582        0.80328830569666       -1.22360613911380
C            0.22666232134772        2.26296923965755       -0.94439549511115
C           -0.36097028141693        0.60491832324826       -2.72734950034733
N           -1.38380932956109        0.53451226214631       -0.47929613181830
C           -2.19771534469474       -0.52087104576445       -0.64395994160891
O           -2.01387481298048       -1.47001911258713       -1.39026733600095
C           -3.39042902468940       -0.41195030170658        0.23992050938291
N           -3.60145589252898        0.50474399541272        1.13570340576152
N           -4.79898895862751        0.21486982156629        1.72017707755570
C           -5.24143445360148       -0.85961830103073        1.14137994556803
C           -6.51003987288244       -1.57152026635519        1.41095484568044
O           -4.39578693652926       -1.30573286038649        0.20110487098247
N            0.87344384615486       -1.45300911678254       -0.89770099008392
C            1.81669136386030       -2.35191835872578       -0.47572536500954
O            1.65103145793429       -3.55375412233400       -0.67468210784633
C            3.02797937189696       -1.76689597469318        0.21856241034989
O            3.91463859237034       -2.54298750963499        0.62088738640577
H            6.60762987640828        1.16554418617982        1.30640210473271
H            6.96449379035922       -0.27571850614266        2.29920432602930
H            5.83607097147586        0.97304097739430        2.89776377969684
H           -0.56943819338599        2.92024218991951       -1.28796078535916
H            1.14745790090783        2.51467073564071       -1.46846269823522
H            0.38547797120082        2.41535581650420        0.12262103512922
H            0.54657404769308        0.88390350191802       -3.26041277208267
H           -0.60083545039643       -0.42890605415319       -2.96345242465788
H           -1.17799184113730        1.23958027792350       -3.06528116323609
H           -1.68987465146619        1.25345447084867        0.15912414135574
H           -7.15936311525347       -1.51695796068457        0.53763440500936
H           -6.31366120875848       -2.62231762245033        1.61927258219711
H           -7.01100919558619       -1.11596010876641        2.26083045478270
H            0.05433789450763       -1.82762114142139       -1.35852147027832

          :  Hamiltonian                  GFN1-xTB          :
         :: total energy             -79.621612311341 Eh    ::
         :: gradient norm              0.000929422100 Eh/a0 ::
         :: HOMO-LUMO gap              1.589715084794 eV    ::
         :: SCC energy               -80.347623301449 Eh    ::
         :: -> Gsolv                  -0.124822876325 Eh    ::
         :: repulsion energy           0.748892858182 Eh    ::

    * Orbital Energies and Occupations

         #    Occupation            Energy/Eh            Energy/eV
      -------------------------------------------------------------
         1        2.0000           -0.8606604             -23.4198
       ...           ...                  ...                  ...
        52        2.0000           -0.4861738             -13.2295
        53        2.0000           -0.4793420             -13.0436
        54        2.0000           -0.4642353             -12.6325
        55        2.0000           -0.4607140             -12.5367
        56        2.0000           -0.4571454             -12.4396
        57        2.0000           -0.4530651             -12.3285
        58        2.0000           -0.4483545             -12.2003
        59        2.0000           -0.4431688             -12.0592
        60        2.0000           -0.4359793             -11.8636
        61        2.0000           -0.4349321             -11.8351
        62        2.0000           -0.4131423             -11.2422
        63        2.0000           -0.3764740             -10.2444
        64        2.0000           -0.3642846              -9.9127 (HOMO)
        65                         -0.3058637              -8.3230 (LUMO)
        66                         -0.2677421              -7.2856
        67                         -0.2543515              -6.9213
        68                         -0.2378282              -6.4716
        69                         -0.1951142              -5.3093
        70                         -0.1944289              -5.2907
        71                         -0.1410795              -3.8390
        72                         -0.1213673              -3.3026
        73                         -0.1196326              -3.2554
        74                         -0.1170341              -3.1847
        75                         -0.1068615              -2.9078
       ...                                ...                  ...
       124                          0.7567515              20.5923
      -------------------------------------------------------------
                  HL-Gap            0.0584210 Eh            1.5897 eV

Wiberg/Mayer (AO) data.
largest (>0.10) Wiberg bond orders for each atom

     #   Z sym  total        # sym  WBO       # sym  WBO       # sym  WBO
 ---------------------------------------------------------------------------
     1   6 C    3.899 --    26 H    0.987    27 H    0.981    25 H    0.980
                             2 O    0.926
     2   8 O    2.159 --     3 C    1.046     1 C    0.926     4 O    0.109
     3   6 C    3.850 --     4 O    1.574     5 C    1.116     2 O    1.046
     4   8 O    1.849 --     3 C    1.574     2 O    0.109
     5   6 C    3.914 --    23 C    1.271     6 N    1.153     3 C    1.116
                            24 O    0.129
     6   7 N    3.031 --     7 C    1.631     5 C    1.153
     7   6 C    3.934 --     6 N    1.631    20 N    1.103     8 C    0.968
     8   6 C    3.929 --     9 C    1.002    10 C    0.989     7 C    0.968
                            11 N    0.905
     9   6 C    3.993 --     8 C    1.002    28 H    0.986    29 H    0.983
                            30 H    0.983
    10   6 C    3.990 --     8 C    0.989    31 H    0.985    33 H    0.985
                            32 H    0.978
    11   7 N    3.359 --    12 C    1.279     8 C    0.905    34 H    0.897
                            13 O    0.181
    12   6 C    3.919 --    13 O    1.571    11 N    1.279    14 C    0.985
    13   8 O    1.912 --    12 C    1.571    11 N    0.181
    14   6 C    3.873 --    15 N    1.613    19 O    1.064    12 C    0.985
    15   7 N    3.014 --    14 C    1.613    16 N    1.196
    16   7 N    2.980 --    17 C    1.608    15 N    1.196
    17   6 C    3.872 --    16 N    1.608    19 O    1.083    18 C    1.031
    18   6 C    3.987 --    17 C    1.031    37 H    0.983    36 H    0.966
                            35 H    0.962
    19   8 O    2.330 --    17 C    1.083    14 C    1.064
    20   7 N    3.435 --    21 C    1.169     7 C    1.103    38 H    0.879
                            22 O    0.136
    21   6 C    3.881 --    22 O    1.574    20 N    1.169    23 C    0.968
    22   8 O    1.854 --    21 C    1.574    20 N    0.136
    23   6 C    3.942 --    24 O    1.519     5 C    1.271    21 C    0.968
    24   8 O    1.824 --    23 C    1.519     5 C    0.129
    25   1 H    1.014 --     1 C    0.980
    26   1 H    1.016 --     1 C    0.987
    27   1 H    1.014 --     1 C    0.981
    28   1 H    1.001 --     9 C    0.986
    29   1 H    1.011 --     9 C    0.983
    30   1 H    1.011 --     9 C    0.983
    31   1 H    1.003 --    10 C    0.985
    32   1 H    1.011 --    10 C    0.978
    33   1 H    1.001 --    10 C    0.985
    34   1 H    0.954 --    11 N    0.897
    35   1 H    0.997 --    18 C    0.962
    36   1 H    0.997 --    18 C    0.966
    37   1 H    0.999 --    18 C    0.983
    38   1 H    0.953 --    20 N    0.879
 ---------------------------------------------------------------------------

           -------------------------------------------------
          | TOTAL ENERGY              -79.621612311341 Eh   |
          | GRADIENT NORM               0.000929422100 Eh/α |
          | HOMO-LUMO GAP               1.589715084794 eV   |
           -------------------------------------------------

 * finished run on 2023/06/21 at 17:03:55.602
