   * xtb version 6.5.1 (579679a) compiled by 'ehlert@majestix' on 2022-07-11
          program call               : /lustre/hpc/kemi/ree/PhD/git/ReactivityQM/dep/xtb-6.5.1/bin/xtb --gfn 1 /lustre/hpc/kemi/ree/PhD/git/ReactivityQM/calculations/RaltegravirCLI/reac02prodN15/conf13/RaltegravirCLI_reac02prodN15_conf13_gfn1.xyz --opt --vfukui --chrg 1 --uhf 0 --alpb DMSO

   ID    Z sym.   atoms
    1    6 C      1, 3-6, 9, 10, 13-18, 20-22, 24
    2    7 N      2, 7, 8, 12
    3    8 O      11, 23, 25
    4    9 F      19
    5    1 H      26-47

      * Solvation model:               ALPB
        Solvent                        DMSO
        Solvent mass                       7.8130E+01 g/mol
          :  Hamiltonian                  GFN1-xTB          :
 * total energy  :   -79.5040503 Eh     change       -0.4931167E-11 Eh
 * total energy  :   -79.5133862 Eh     change       -0.9335839E-02 Eh
 * total energy  :   -79.5159602 Eh     change       -0.2574066E-02 Eh
 * total energy  :   -79.5164165 Eh     change       -0.4562287E-03 Eh
 * total energy  :   -79.5166690 Eh     change       -0.2524852E-03 Eh
 * total energy  :   -79.5167426 Eh     change       -0.7365294E-04 Eh
 * total energy  :   -79.5168032 Eh     change       -0.6062902E-04 Eh
 * total energy  :   -79.5168606 Eh     change       -0.5733566E-04 Eh
 * total energy  :   -79.5169108 Eh     change       -0.5024087E-04 Eh
 * total energy  :   -79.5169484 Eh     change       -0.3759180E-04 Eh
 * total energy  :   -79.5169727 Eh     change       -0.2433898E-04 Eh
 * total energy  :   -79.5169887 Eh     change       -0.1598765E-04 Eh
 * total energy  :   -79.5169960 Eh     change       -0.7267932E-05 Eh
 * total energy  :   -79.5170037 Eh     change       -0.7729382E-05 Eh
 * total energy  :   -79.5170074 Eh     change       -0.3703056E-05 Eh
   *** GEOMETRY OPTIMIZATION CONVERGED AFTER 15 ITERATIONS ***

 final structure:
================
47
 xtb: 6.5.1 (579679a)
C           -4.08507953305693        1.15343372448529        1.85277774063022
N           -2.89313063185227        0.77988542858288        1.08192443541414
C           -2.91894379026263       -0.07689696518884        0.00809444881475
C           -4.20263494520716       -0.73016033864782       -0.48504326613901
C           -4.95247933716645        0.26352781557830       -1.38549563385839
C           -3.84347556356146       -1.98422954344339       -1.30103229837740
N           -5.04536944338092       -1.09965266304056        0.64485917263226
N           -1.84995617944773       -0.35759021207931       -0.67082144824986
C           -0.62698583764841        0.15339524244526       -0.32880780849961
C            0.45018966238115       -0.28898324172393       -1.20076993472170
O            0.36483325248629       -0.93650662969888       -2.19675929727524
N            1.84658985126873        0.13853353611715       -0.77250864969837
C            2.18180188491637        1.39078301377615       -1.49498675666578
C            2.81937474112917       -0.96794919548211       -1.05257587850918
C            4.17114004773031       -0.62046399935118       -0.48952794515119
C            4.36969267711395       -0.63755493694244        0.89108642725237
C            5.61332057981147       -0.33760792436033        1.42556076503088
C            6.64482749836395       -0.02789788455140        0.55537820359714
F            7.84899992033075        0.25289244995586        1.06264253969357
C            6.47907904263145        0.00174381129228       -0.81825953298176
C            5.22750067018229       -0.29523604865994       -1.33837583591959
C           -0.52442576408328        0.97943487968745        0.75947026010346
O            0.61601135951523        1.52816251165194        1.18492953841749
C           -1.71219285519466        1.32740707159966        1.53146831293965
O           -1.62897482157188        2.06567619885458        2.50380380461295
H           -4.30290610967720        0.37328569929898        2.57942001680061
H           -3.87253558513203        2.08953157620927        2.36735693061819
H           -4.93380952436340        1.27676821507642        1.18992863650418
H           -5.83481718206140       -0.22114996783838       -1.80097475231839
H           -5.26896720200887        1.14094969967917       -0.82470835673778
H           -4.30638026909570        0.58264820811624       -2.20227162157652
H           -3.28551276012521       -1.71074821575224       -2.19513119431433
H           -3.23494940222362       -2.65841568622500       -0.70129236696097
H           -4.75819649329674       -2.49655898218514       -1.59328969639361
H           -4.62847979128373       -1.88074457944880        1.13368708608379
H           -5.94901168452574       -1.39634349643183        0.30160498734503
H            1.85328297435340        0.34267454074983        0.23002482938324
H            1.47405435293104        2.15600504638796       -1.18749005421602
H            2.11551560974362        1.20712255018747       -2.56461163949819
H            3.19225950314202        1.67672391870994       -1.21423868019300
H            2.40914766359065       -1.86113378735880       -0.57672862327239
H            2.84566696451168       -1.11048988148554       -2.13377434249518
H            3.54744913929737       -0.88849711053548        1.54981078656022
H            5.78095400642564       -0.34581197402289        2.49469669863860
H            7.30945905553344        0.25271804192928       -1.46543808006731
H            5.07323022722918       -0.27802907188665       -2.41047965744285
H            0.42483602161212        2.07535015598985        1.97770073045249

          :  Hamiltonian                  GFN1-xTB          :
         :: total energy             -79.517007432093 Eh    ::
         :: gradient norm              0.000975082671 Eh/a0 ::
         :: HOMO-LUMO gap              1.404108318572 eV    ::
         :: SCC energy               -80.414975525548 Eh    ::
         :: -> Gsolv                  -0.105379846723 Eh    ::
         :: repulsion energy           0.928955714821 Eh    ::

    * Orbital Energies and Occupations

         #    Occupation            Energy/Eh            Energy/eV
      -------------------------------------------------------------
         1        2.0000           -0.8863823             -24.1197
       ...           ...                  ...                  ...
        55        2.0000           -0.5208507             -14.1731
        56        2.0000           -0.5133513             -13.9690
        57        2.0000           -0.5102313             -13.8841
        58        2.0000           -0.5062906             -13.7769
        59        2.0000           -0.5022970             -13.6682
        60        2.0000           -0.4913221             -13.3696
        61        2.0000           -0.4878679             -13.2756
        62        2.0000           -0.4801126             -13.0645
        63        2.0000           -0.4702012             -12.7948
        64        2.0000           -0.4676315             -12.7249
        65        2.0000           -0.4582250             -12.4689
        66        2.0000           -0.4517040             -12.2915
        67        2.0000           -0.4221095             -11.4862 (HOMO)
        68                         -0.3705094             -10.0821 (LUMO)
        69                         -0.3038579              -8.2684
        70                         -0.2923264              -7.9546
        71                         -0.2902798              -7.8989
        72                         -0.2802138              -7.6250
        73                         -0.1873495              -5.0980
        74                         -0.1698100              -4.6208
        75                         -0.1660204              -4.5176
        76                         -0.1501017              -4.0845
        77                         -0.1416540              -3.8546
        78                         -0.1405233              -3.8238
       ...                                ...                  ...
       144                          0.7213517              19.6290
      -------------------------------------------------------------
                  HL-Gap            0.0516000 Eh            1.4041 eV

Wiberg/Mayer (AO) data.
largest (>0.10) Wiberg bond orders for each atom

     #   Z sym  total        # sym  WBO       # sym  WBO       # sym  WBO
 ---------------------------------------------------------------------------
     1   6 C    3.908 --    28 H    0.976    27 H    0.975    26 H    0.972
                             2 N    0.918
     2   7 N    3.530 --     3 C    1.171    24 C    1.152     1 C    0.918
                            25 O    0.143
     3   6 C    3.912 --     8 N    1.563     2 N    1.171     4 C    0.977
     4   6 C    3.964 --     7 N    0.988     6 C    0.987     5 C    0.978
                             3 C    0.977
     5   6 C    3.992 --    31 H    0.985    29 H    0.982    30 H    0.979
                             4 C    0.978
     6   6 C    3.993 --     4 C    0.987    34 H    0.985    33 H    0.985
                            32 H    0.983
     7   7 N    2.976 --     4 C    0.988    35 H    0.939    36 H    0.935
     8   7 N    3.026 --     3 C    1.563     9 C    1.175
     9   6 C    3.966 --    22 C    1.452     8 N    1.175    10 C    1.085
    10   6 C    3.852 --    11 O    1.796     9 C    1.085    12 N    0.838
    11   8 O    2.050 --    10 C    1.796
    12   7 N    3.608 --    13 C    0.903    14 C    0.884    37 H    0.870
                            10 C    0.838
    13   6 C    3.894 --    39 H    0.984    38 H    0.981    40 H    0.978
                            12 N    0.903
    14   6 C    3.899 --    15 C    1.006    42 H    0.973    41 H    0.968
                            12 N    0.884
    15   6 C    3.984 --    21 C    1.414    16 C    1.409    14 C    1.006
    16   6 C    3.994 --    17 C    1.451    15 C    1.409    43 H    0.969
                            20 C    0.110
    17   6 C    3.991 --    16 C    1.451    18 C    1.393    44 H    0.967
                            21 C    0.108
    18   6 C    3.865 --    20 C    1.398    17 C    1.393    19 F    0.940
    19   9 F    1.073 --    18 C    0.940
    20   6 C    3.991 --    21 C    1.444    18 C    1.398    45 H    0.967
                            16 C    0.110
    21   6 C    3.993 --    20 C    1.444    15 C    1.414    46 H    0.969
                            17 C    0.108
    22   6 C    3.912 --     9 C    1.452    23 O    1.111    24 C    1.061
    23   8 O    2.110 --    22 C    1.111    47 H    0.773
    24   6 C    3.922 --    25 O    1.567     2 N    1.152    22 C    1.061
    25   8 O    1.916 --    24 C    1.567     2 N    0.143
    26   1 H    1.013 --     1 C    0.972
    27   1 H    1.005 --     1 C    0.975
    28   1 H    1.021 --     1 C    0.976
    29   1 H    0.998 --     5 C    0.982
    30   1 H    1.003 --     5 C    0.979
    31   1 H    1.002 --     5 C    0.985
    32   1 H    1.012 --     6 C    0.983
    33   1 H    1.006 --     6 C    0.985
    34   1 H    1.002 --     6 C    0.985
    35   1 H    0.954 --     7 N    0.939
    36   1 H    0.950 --     7 N    0.935
    37   1 H    0.941 --    12 N    0.870
    38   1 H    0.996 --    13 C    0.981
    39   1 H    0.993 --    13 C    0.984
    40   1 H    0.999 --    13 C    0.978
    41   1 H    0.996 --    14 C    0.968
    42   1 H    1.001 --    14 C    0.973
    43   1 H    0.995 --    16 C    0.969
    44   1 H    0.995 --    17 C    0.967
    45   1 H    0.995 --    20 C    0.967
    46   1 H    0.997 --    21 C    0.969
    47   1 H    0.820 --    23 O    0.773
 ---------------------------------------------------------------------------

           -------------------------------------------------
          | TOTAL ENERGY              -79.517007432093 Eh   |
          | GRADIENT NORM               0.000975082671 Eh/α |
          | HOMO-LUMO GAP               1.404108318572 eV   |
           -------------------------------------------------

 * finished run on 2023/06/20 at 15:37:46.322
