   * xtb version 6.5.1 (579679a) compiled by 'ehlert@majestix' on 2022-07-11
          program call               : /lustre/hpc/kemi/ree/PhD/git/ReactivityQM/dep/xtb-6.5.1/bin/xtb --gfn 1 /lustre/hpc/kemi/ree/PhD/git/ReactivityQM/calculations/R01/reac02prodE05/conf08/R01_reac02prodE05_conf08_gfn1.xyz --opt --vfukui --chrg -1 --uhf 0 --alpb DMSO

   ID    Z sym.   atoms
    1    6 C      1, 3, 5, 6, 8, 11-15
    2    8 O      2, 4, 7, 9
    3    7 N      10, 16, 17
    4    1 H      18-33

      * Solvation model:               ALPB
        Solvent                        DMSO
        Solvent mass                       7.8130E+01 g/mol
          :  Hamiltonian                  GFN1-xTB          :
 * total energy  :   -58.5470364 Eh     change       -0.6245671E-11 Eh
 * total energy  :   -58.5546028 Eh     change       -0.7566427E-02 Eh
 * total energy  :   -58.5566261 Eh     change       -0.2023322E-02 Eh
 * total energy  :   -58.5569555 Eh     change       -0.3294134E-03 Eh
 * total energy  :   -58.5571984 Eh     change       -0.2428640E-03 Eh
 * total energy  :   -58.5572878 Eh     change       -0.8945430E-04 Eh
 * total energy  :   -58.5573562 Eh     change       -0.6834866E-04 Eh
 * total energy  :   -58.5573917 Eh     change       -0.3553469E-04 Eh
 * total energy  :   -58.5574143 Eh     change       -0.2262178E-04 Eh
 * total energy  :   -58.5574333 Eh     change       -0.1892497E-04 Eh
 * total energy  :   -58.5575102 Eh     change       -0.1622409E-04 Eh
 * total energy  :   -58.5575288 Eh     change       -0.1859096E-04 Eh
 * total energy  :   -58.5575260 Eh     change        0.2774250E-05 Eh
 * total energy  :   -58.5575516 Eh     change       -0.2560713E-04 Eh
 * total energy  :   -58.5575642 Eh     change       -0.1263590E-04 Eh
 * total energy  :   -58.5575803 Eh     change       -0.1603051E-04 Eh
 * total energy  :   -58.5575883 Eh     change       -0.8049848E-05 Eh
 * total energy  :   -58.5575986 Eh     change       -0.1032051E-04 Eh
 * total energy  :   -58.5576036 Eh     change       -0.4948511E-05 Eh
   *** GEOMETRY OPTIMIZATION CONVERGED AFTER 22 ITERATIONS ***

 final structure:
================
33
 xtb: 6.5.1 (579679a)
C            4.95482650916873        0.82544258549288        0.22143977674738
O            3.75792918609122        0.06103332068435        0.30684444906545
C            2.63165932428732        0.66274035286759       -0.11711343320469
O            2.64974617369849        1.80408686677235       -0.53999100803364
C            1.40300134508320       -0.17489109993605        0.00190124878121
C            1.43564435369542       -1.55879701181522        0.18400008770452
O            2.61264288613939       -2.31505633188937        0.12855047178647
C            0.24188739240394       -2.26610487572958        0.47659749842896
O            0.18976500086465       -3.49108867451757        0.70839693772356
N           -0.89797950341005       -1.47447393985753        0.60899545902109
C           -0.97064919288996       -0.20425093375546       -0.11696712434554
C           -1.31552046010222       -0.48546280531800       -1.60101826052495
C           -2.04083461921723        0.69257899628709        0.59067839698654
C           -2.08508728324641        2.08674684962800       -0.04805104982890
C           -3.44721902900349        0.08430681913680        0.58243369171884
N           -1.63224005449240        0.85263018093901        1.98948003279457
N            0.27969364346038        0.52826411550143       -0.06891967948964
H            5.74465800154897        0.23443656123270        0.68259775732548
H            4.84313139260135        1.77572363346362        0.75199510716839
H            5.20563014979617        1.03053012847157       -0.82354136946166
H            2.34623063717319       -3.23116454491638        0.30859397618954
H           -1.75125487577352       -2.01340370940455        0.57849245535706
H           -2.27354653932680       -0.99361167725364       -1.68825769044776
H           -0.54478299386354       -1.12415125577603       -2.03261390833191
H           -1.34930772834897        0.44665320628969       -2.16203075082537
H           -1.07374353607344        2.48218162797974       -0.15755541065895
H           -2.66078146011482        2.76088889054834        0.58718812821423
H           -2.55710060941807        2.05051057535498       -1.02949181343076
H           -3.83441970588189        0.00240218764514       -0.43225884811862
H           -3.45333686831343       -0.90448703517831        1.03960797339648
H           -4.11822970049174        0.72528925003893        1.15615605107451
H           -0.67383410917343        1.19850693685364        1.99389760782154
H           -1.61657372687039       -0.06801018983992        2.41804623939649

          :  Hamiltonian                  GFN1-xTB          :
         :: total energy             -58.557603571669 Eh    ::
         :: gradient norm              0.000347070374 Eh/a0 ::
         :: HOMO-LUMO gap              1.399101317840 eV    ::
         :: SCC energy               -59.091688517102 Eh    ::
         :: -> Gsolv                  -0.096428856051 Eh    ::
         :: repulsion energy           0.554049081335 Eh    ::

    * Orbital Energies and Occupations

         #    Occupation            Energy/Eh            Energy/eV
      -------------------------------------------------------------
         1        2.0000           -0.8078334             -21.9823
       ...           ...                  ...                  ...
        36        2.0000           -0.4813340             -13.0978
        37        2.0000           -0.4739451             -12.8967
        38        2.0000           -0.4728084             -12.8658
        39        2.0000           -0.4652212             -12.6593
        40        2.0000           -0.4532791             -12.3344
        41        2.0000           -0.4508171             -12.2674
        42        2.0000           -0.4380818             -11.9208
        43        2.0000           -0.4231304             -11.5140
        44        2.0000           -0.3999749             -10.8839
        45        2.0000           -0.3915749             -10.6553
        46        2.0000           -0.3798606             -10.3365
        47        2.0000           -0.3705713             -10.0838
        48        2.0000           -0.3148958              -8.5688 (HOMO)
        49                         -0.2634798              -7.1696 (LUMO)
        50                         -0.1875904              -5.1046
        51                         -0.1261270              -3.4321
        52                         -0.1143425              -3.1114
        53                         -0.1081220              -2.9421
        54                         -0.1024925              -2.7890
        55                         -0.0969874              -2.6392
        56                         -0.0676326              -1.8404
        57                         -0.0639617              -1.7405
        58                         -0.0623451              -1.6965
        59                         -0.0599892              -1.6324
       ...                                ...                  ...
       100                          0.7380468              20.0833
      -------------------------------------------------------------
                  HL-Gap            0.0514160 Eh            1.3991 eV

Wiberg/Mayer (AO) data.
largest (>0.10) Wiberg bond orders for each atom

     #   Z sym  total        # sym  WBO       # sym  WBO       # sym  WBO
 ---------------------------------------------------------------------------
     1   6 C    3.894 --    18 H    0.987    20 H    0.980    19 H    0.980
                             2 O    0.918
     2   8 O    2.185 --     3 C    1.082     1 C    0.918     4 O    0.123
     3   6 C    3.817 --     4 O    1.639     2 O    1.082     5 C    1.002
     4   8 O    1.890 --     3 C    1.639     2 O    0.123
     5   6 C    3.971 --    17 N    1.425     6 C    1.329     3 C    1.002
     6   6 C    3.865 --     5 C    1.329     8 C    1.208     7 O    0.971
                            17 N    0.175
     7   8 O    1.942 --     6 C    0.971    21 H    0.851
     8   6 C    3.919 --     9 O    1.462     6 C    1.208    10 N    1.090
     9   8 O    1.793 --     8 C    1.462
    10   7 N    3.204 --     8 C    1.090    11 C    0.935    22 H    0.920
    11   6 C    3.940 --    17 N    0.999    12 C    0.971    13 C    0.945
                            10 N    0.935
    12   6 C    3.995 --    24 H    0.985    23 H    0.984    25 H    0.984
                            11 C    0.971
    13   6 C    3.964 --    15 C    1.002    14 C    1.001    16 N    0.983
                            11 C    0.945
    14   6 C    3.996 --    13 C    1.001    27 H    0.987    28 H    0.985
                            26 H    0.981
    15   6 C    3.996 --    13 C    1.002    31 H    0.985    29 H    0.984
                            30 H    0.982
    16   7 N    2.954 --    13 C    0.983    33 H    0.949    32 H    0.946
    17   7 N    2.936 --     5 C    1.425    11 C    0.999     6 C    0.175
    18   1 H    1.015 --     1 C    0.987
    19   1 H    1.013 --     1 C    0.980
    20   1 H    1.011 --     1 C    0.980
    21   1 H    0.891 --     7 O    0.851
    22   1 H    0.968 --    10 N    0.920
    23   1 H    1.007 --    12 C    0.984
    24   1 H    1.008 --    12 C    0.985
    25   1 H    1.012 --    12 C    0.984
    26   1 H    1.027 --    14 C    0.981
    27   1 H    1.011 --    14 C    0.987
    28   1 H    1.007 --    14 C    0.985
    29   1 H    1.007 --    15 C    0.984
    30   1 H    1.004 --    15 C    0.982
    31   1 H    1.009 --    15 C    0.985
    32   1 H    0.985 --    16 N    0.946
    33   1 H    0.982 --    16 N    0.949
 ---------------------------------------------------------------------------

           -------------------------------------------------
          | TOTAL ENERGY              -58.557603571669 Eh   |
          | GRADIENT NORM               0.000347070374 Eh/α |
          | HOMO-LUMO GAP               1.399101317840 eV   |
           -------------------------------------------------

 * finished run on 2023/06/20 at 15:00:30.294
