   * xtb version 6.5.1 (579679a) compiled by 'ehlert@majestix' on 2022-07-11
          program call               : /lustre/hpc/kemi/ree/PhD/git/ReactivityQM/dep/xtb-6.5.1/bin/xtb --gfn 1 /lustre/hpc/kemi/ree/PhD/git/ReactivityQM/calculations/R02oxygendeprot/reac01prodN05/conf01/R02oxygendeprot_reac01prodN05_conf01_gfn1.xyz --opt --vfukui --chrg 0 --uhf 0 --alpb DMSO

   ID    Z sym.   atoms
    1    6 C      1, 3, 5, 6, 8, 11-14, 16, 18, 21, 22, 25
    2    8 O      2, 4, 7, 9, 17, 23
    3    7 N      10, 15, 19, 20, 24
    4    1 H      26-42

      * Solvation model:               ALPB
        Solvent                        DMSO
        Solvent mass                       7.8130E+01 g/mol
          :  Hamiltonian                  GFN1-xTB          :
 * total energy  :   -82.9680383 Eh     change       -0.5034906E-10 Eh
 * total energy  :   -82.9803395 Eh     change       -0.1230121E-01 Eh
 * total energy  :   -82.9851196 Eh     change       -0.4780175E-02 Eh
 * total energy  :   -82.9859357 Eh     change       -0.8160807E-03 Eh
 * total energy  :   -82.9862643 Eh     change       -0.3286163E-03 Eh
 * total energy  :   -82.9864603 Eh     change       -0.1959576E-03 Eh
 * total energy  :   -82.9866525 Eh     change       -0.1921859E-03 Eh
 * total energy  :   -82.9868470 Eh     change       -0.1944760E-03 Eh
 * total energy  :   -82.9870586 Eh     change       -0.2116089E-03 Eh
 * total energy  :   -82.9872989 Eh     change       -0.2402843E-03 Eh
 * total energy  :   -82.9885517 Eh     change       -0.2390751E-04 Eh
 * total energy  :   -82.9885739 Eh     change       -0.2219418E-04 Eh
 * total energy  :   -82.9885921 Eh     change       -0.1818218E-04 Eh
 * total energy  :   -82.9886101 Eh     change       -0.1800458E-04 Eh
 * total energy  :   -82.9886260 Eh     change       -0.1596908E-04 Eh
 * total energy  :   -82.9886359 Eh     change       -0.9910609E-05 Eh
 * total energy  :   -82.9886426 Eh     change       -0.6660159E-05 Eh
 * total energy  :   -82.9886480 Eh     change       -0.5383010E-05 Eh
 * total energy  :   -82.9886524 Eh     change       -0.4403739E-05 Eh
   *** GEOMETRY OPTIMIZATION CONVERGED AFTER 39 ITERATIONS ***

 final structure:
================
42
 xtb: 6.5.1 (579679a)
C           -2.96818405303794        3.76490659991908        0.41367842786212
O           -2.57097674244805        2.39696209230376        0.27578663571449
C           -3.56522631346207        1.48531877615350        0.36433385912704
O           -4.71635688425094        1.82000435116175        0.53193747676078
C           -3.12101378880940        0.09592671145148        0.15579240121740
C           -4.04059928716819       -0.80205841611839       -0.45481578288993
O           -5.22378662858831       -0.56478974350627       -0.69703362997187
C           -3.46412285493993       -2.12967115043096       -0.87489518343091
O           -4.08118024903672       -3.03434278178854       -1.39694251185107
N           -2.09879275039022       -2.27158093843984       -0.66286039551476
C           -1.28643256621204       -1.42096527163876        0.00483348409752
C            0.14594260634966       -1.89516643757495        0.23008283337259
C            0.23315429614379       -2.59736110495123        1.59494151869862
C            0.59465792026357       -2.86912771910486       -0.87253067699810
N            1.02342803360473       -0.72592027348344        0.13706549799653
C            2.31227665788176       -0.71871364131463        0.57763043016114
O            2.81833672444780       -1.53775208528572        1.31578896193007
C            3.02443278343102        0.47223904401095        0.05545045436092
N            2.53050987103350        1.37451846146226       -0.73915683862436
N            3.52660963011006        2.26877314955979       -0.98415199884154
C            4.56775670870713        1.85343148280332       -0.32563525017679
C            5.91073376201479        2.47049583654865       -0.26766360787180
O            4.31157619696542        0.72411848182841        0.34982553400612
N           -1.80238286084050       -0.28969307524235        0.44193764903214
C           -1.04820729988133        0.55626038800004        1.37726508605624
H           -3.40810225345346        3.93133163489907        1.40008307266995
H           -3.69748590567893        4.02676055729768       -0.35755380827303
H           -2.06620838013761        4.36212914944333        0.29868869352948
H           -1.72295006232529       -3.14998291983133       -0.98486186617156
H           -0.62485092401919       -3.25876700586856        1.70563975577822
H            1.14223280427658       -3.19210394574341        1.64844217874417
H            0.23905795787229       -1.88299909915348        2.41468210955381
H            0.10268734975014       -3.83423695057486       -0.77038630733071
H            1.66731433622550       -3.02626386981681       -0.77046066863723
H            0.39416279118123       -2.45544504642722       -1.85886323475617
H            0.81862977035423       -0.09048381826777       -0.62244882259171
H            6.65507526555853        1.77321326131120       -0.65275836228830
H            6.16913338793361        2.70142648090573        0.76568498970843
H            5.92345472813329        3.38147780049898       -0.86077067311983
H           -1.74873016309620        1.02807142101390        2.06122199031431
H           -0.36082862875399       -0.05536582453428        1.94916257016864
H           -0.49474498570080        1.31542643853480        0.82966000847698

          :  Hamiltonian                  GFN1-xTB          :
         :: total energy             -82.988652385243 Eh    ::
         :: gradient norm              0.000356056196 Eh/a0 ::
         :: HOMO-LUMO gap              2.484932226354 eV    ::
         :: SCC energy               -83.770449190824 Eh    ::
         :: -> Gsolv                  -0.073658799280 Eh    ::
         :: repulsion energy           0.808969575232 Eh    ::

    * Orbital Energies and Occupations

         #    Occupation            Energy/Eh            Energy/eV
      -------------------------------------------------------------
         1        2.0000           -0.8685260             -23.6338
       ...           ...                  ...                  ...
        55        2.0000           -0.5125097             -13.9461
        56        2.0000           -0.5109909             -13.9048
        57        2.0000           -0.4947461             -13.4627
        58        2.0000           -0.4936189             -13.4321
        59        2.0000           -0.4917137             -13.3802
        60        2.0000           -0.4880160             -13.2796
        61        2.0000           -0.4777985             -13.0016
        62        2.0000           -0.4745543             -12.9133
        63        2.0000           -0.4678902             -12.7319
        64        2.0000           -0.4582482             -12.4696
        65        2.0000           -0.4552377             -12.3876
        66        2.0000           -0.4252258             -11.5710
        67        2.0000           -0.4147263             -11.2853 (HOMO)
        68                         -0.3234067              -8.8003 (LUMO)
        69                         -0.3195590              -8.6956
        70                         -0.3045936              -8.2884
        71                         -0.2611676              -7.1067
        72                         -0.2415625              -6.5732
        73                         -0.2072570              -5.6397
        74                         -0.1704265              -4.6375
        75                         -0.1500801              -4.0839
        76                         -0.1436337              -3.9085
        77                         -0.1425028              -3.8777
        78                         -0.1368529              -3.7240
       ...                                ...                  ...
       134                          0.7563331              20.5809
      -------------------------------------------------------------
                  HL-Gap            0.0913196 Eh            2.4849 eV

Wiberg/Mayer (AO) data.
largest (>0.10) Wiberg bond orders for each atom

     #   Z sym  total        # sym  WBO       # sym  WBO       # sym  WBO
 ---------------------------------------------------------------------------
     1   6 C    3.872 --    28 H    0.986    26 H    0.980    27 H    0.980
                             2 O    0.898
     2   8 O    2.170 --     3 C    1.060     1 C    0.898     4 O    0.121
     3   6 C    3.862 --     4 O    1.646     5 C    1.064     2 O    1.060
     4   8 O    1.922 --     3 C    1.646     2 O    0.121
     5   6 C    3.853 --     6 C    1.257     3 C    1.064    24 N    1.064
                             7 O    0.142
     6   6 C    3.945 --     7 O    1.573     5 C    1.257     8 C    0.955
     7   8 O    1.883 --     6 C    1.573     5 C    0.142
     8   6 C    3.866 --     9 O    1.660    10 N    1.086     6 C    0.955
     9   8 O    1.936 --     8 C    1.660    10 N    0.117
    10   7 N    3.453 --    11 C    1.208     8 C    1.086    29 H    0.877
                             9 O    0.117
    11   6 C    3.914 --    24 N    1.425    10 N    1.208    12 C    0.978
    12   6 C    3.934 --    14 C    0.985    11 C    0.978    13 C    0.976
                            15 N    0.933
    13   6 C    3.981 --    30 H    0.984    12 C    0.976    32 H    0.976
                            31 H    0.975
    14   6 C    3.986 --    12 C    0.985    35 H    0.984    34 H    0.978
                            33 H    0.978
    15   7 N    3.309 --    16 C    1.207    12 C    0.933    36 H    0.895
                            17 O    0.166
    16   6 C    3.911 --    17 O    1.623    15 N    1.207    18 C    0.994
    17   8 O    1.933 --    16 C    1.623    15 N    0.166
    18   6 C    3.878 --    19 N    1.604    23 O    1.066    16 C    0.994
    19   7 N    3.021 --    18 C    1.604    20 N    1.205
    20   7 N    2.981 --    21 C    1.598    19 N    1.205
    21   6 C    3.869 --    20 N    1.598    23 O    1.085    22 C    1.032
    22   6 C    3.985 --    21 C    1.032    39 H    0.982    38 H    0.963
                            37 H    0.962
    23   8 O    2.334 --    21 C    1.085    18 C    1.066
    24   7 N    3.588 --    11 C    1.425     5 C    1.064    25 C    0.919
    25   6 C    3.914 --    40 H    0.978    41 H    0.975    42 H    0.972
                            24 N    0.919
    26   1 H    1.008 --     1 C    0.980
    27   1 H    1.009 --     1 C    0.980
    28   1 H    1.011 --     1 C    0.986
    29   1 H    0.932 --    10 N    0.877
    30   1 H    1.000 --    13 C    0.984
    31   1 H    1.009 --    13 C    0.975
    32   1 H    1.002 --    13 C    0.976
    33   1 H    0.996 --    14 C    0.978
    34   1 H    0.998 --    14 C    0.978
    35   1 H    0.997 --    14 C    0.984
    36   1 H    0.952 --    15 N    0.895
    37   1 H    0.996 --    22 C    0.962
    38   1 H    0.996 --    22 C    0.963
    39   1 H    0.998 --    22 C    0.982
    40   1 H    1.003 --    25 C    0.978
    41   1 H    1.009 --    25 C    0.975
    42   1 H    1.012 --    25 C    0.972
 ---------------------------------------------------------------------------

           -------------------------------------------------
          | TOTAL ENERGY              -82.988652385243 Eh   |
          | GRADIENT NORM               0.000356056196 Eh/α |
          | HOMO-LUMO GAP               2.484932226354 eV   |
           -------------------------------------------------

 * finished run on 2023/06/21 at 17:20:59.737
