   * xtb version 6.5.1 (579679a) compiled by 'ehlert@majestix' on 2022-07-11
          program call               : /lustre/hpc/kemi/ree/PhD/git/ReactivityQM/dep/xtb-6.5.1/bin/xtb --gfn 1 /lustre/hpc/kemi/ree/PhD/git/ReactivityQM/calculations/RaltegravirCLI/reac02prodN07/conf11/RaltegravirCLI_reac02prodN07_conf11_gfn1.xyz --opt --vfukui --chrg 1 --uhf 0 --alpb DMSO

   ID    Z sym.   atoms
    1    6 C      1, 3-6, 9-11, 14-18, 20-22, 24
    2    7 N      2, 7, 8, 13
    3    8 O      12, 23, 25
    4    9 F      19
    5    1 H      26-47

      * Solvation model:               ALPB
        Solvent                        DMSO
        Solvent mass                       7.8130E+01 g/mol
          :  Hamiltonian                  GFN1-xTB          :
 * total energy  :   -79.3802854 Eh     change       -0.2972115E-08 Eh
 * total energy  :   -79.3913831 Eh     change       -0.1109770E-01 Eh
 * total energy  :   -79.3960482 Eh     change       -0.4665140E-02 Eh
 * total energy  :   -79.3975271 Eh     change       -0.1478836E-02 Eh
 * total energy  :   -79.3988720 Eh     change       -0.1344945E-02 Eh
 * total energy  :   -79.3997076 Eh     change       -0.8356254E-03 Eh
 * total energy  :   -79.4006734 Eh     change       -0.9657390E-03 Eh
 * total energy  :   -79.4023027 Eh     change       -0.1629290E-02 Eh
 * total energy  :   -79.4054920 Eh     change       -0.3189318E-02 Eh
 * total energy  :   -79.4184538 Eh     change       -0.1296185E-01 Eh
 * total energy  :   -79.4573647 Eh     change       -0.3254926E-04 Eh
 * total energy  :   -79.4573989 Eh     change       -0.3421358E-04 Eh
 * total energy  :   -79.4574156 Eh     change       -0.1677317E-04 Eh
 * total energy  :   -79.4574327 Eh     change       -0.1708440E-04 Eh
 * total energy  :   -79.4574426 Eh     change       -0.9886977E-05 Eh
 * total energy  :   -79.4574512 Eh     change       -0.8594586E-05 Eh
 * total energy  :   -79.4574611 Eh     change       -0.9859686E-05 Eh
 * total energy  :   -79.4574690 Eh     change       -0.7934064E-05 Eh
 * total energy  :   -79.4574731 Eh     change       -0.4101886E-05 Eh
   *** GEOMETRY OPTIMIZATION CONVERGED AFTER 33 ITERATIONS ***

 final structure:
================
47
 xtb: 6.5.1 (579679a)
C           -3.97478073746878       -1.59820553197488        1.37596395533339
N           -2.70768309264130       -1.52819098667651        0.63635701595613
C           -2.14834618455964       -0.37626795543566        0.16727205118959
C           -2.79672377591903        0.98935807917190        0.35176331826408
C           -2.05558027644615        2.02916967748303       -0.50352004965919
C           -2.71663519210645        1.39993265528603        1.82924245543654
N           -4.19513856666218        0.93364188246796       -0.06473975850819
N           -0.99389930785886       -0.37900103902118       -0.44501854102738
C           -0.32741543803222       -1.54474266284846       -0.65894303702111
C            0.95328332313152       -1.46621733279974       -1.43822818125246
C            0.91248737417869       -1.99339514312957       -2.84876473167853
O            2.15590034548039       -1.63265125576228       -0.75190213483381
N            1.83409876191880       -0.35477327685360       -1.17989372255277
C            1.65715035572781        0.63347795713287       -0.09087415963193
C            3.00469827535586        1.13897274397355        0.36235068310542
C            3.37514052616256        2.45877680736739        0.11536917237669
C            4.60488949537255        2.93217533815459        0.54965613711334
C            5.44468411201860        2.06131575197213        1.22171479280419
F            6.63001819536238        2.51113395237815        1.64269026036100
C            5.10730206508492        0.74204335923801        1.47406909564554
C            3.87285682963833        0.28394457271354        1.04074679769258
C           -0.83972658168055       -2.73626058683037       -0.25265973980663
O           -0.22450173905191       -3.91042856871381       -0.47849165020291
C           -2.09496148628758       -2.76408978408450        0.47060291183221
O           -2.58459352189318       -3.80126250863408        0.89927037437769
H           -4.57913603758403       -0.72246390931531        1.16057294794371
H           -4.50053348735954       -2.49913428298229        1.05875125266496
H           -3.75871529508605       -1.66523563321137        2.44237544520068
H           -2.02811814082325        1.71153928464950       -1.54413384476027
H           -1.03434500882662        2.15839421892073       -0.14956200159820
H           -2.57440931625182        2.98405087775715       -0.43740798542706
H           -3.31819563981282        0.74179793993647        2.45290563836645
H           -1.68229022113364        1.36172875726156        2.16858688119310
H           -3.08573568979280        2.41849341140661        1.94071803301764
H           -4.23599776033202        0.77648457689849       -1.06277906086138
H           -4.62321428745141        1.83020942846697        0.12422954420015
H            0.62249282425364       -3.04385654007689       -2.80958896736410
H            1.88903454973496       -1.90666899364696       -3.31986768156863
H            0.17171561374496       -1.44244772122222       -3.42473779685258
H            2.47023936814603       -0.08091742607366       -1.92465847781074
H            1.11735119365338        0.12877664751058        0.71090969717966
H            1.03435826965121        1.42789540414552       -0.50248474593846
H            2.69989787198433        3.11943606971282       -0.41379746620142
H            4.90671031073359        3.95551963881541        0.36847200974883
H            5.79465510999042        0.09157394717444        1.99962869071787
H            3.57963233240786       -0.74198651252103        1.22748713200766
H           -0.75792131867287       -4.63164632818583       -0.09509955916361

          :  Hamiltonian                  GFN1-xTB          :
         :: total energy             -79.457473108386 Eh    ::
         :: gradient norm              0.000447874894 Eh/a0 ::
         :: HOMO-LUMO gap              2.839769305234 eV    ::
         :: SCC energy               -80.332651807534 Eh    ::
         :: -> Gsolv                  -0.107210599538 Eh    ::
         :: repulsion energy           0.906424939411 Eh    ::

    * Orbital Energies and Occupations

         #    Occupation            Energy/Eh            Energy/eV
      -------------------------------------------------------------
         1        2.0000           -0.9481796             -25.8013
       ...           ...                  ...                  ...
        55        2.0000           -0.5215574             -14.1923
        56        2.0000           -0.5182655             -14.1027
        57        2.0000           -0.5101620             -13.8822
        58        2.0000           -0.5059700             -13.7681
        59        2.0000           -0.4980786             -13.5534
        60        2.0000           -0.4928387             -13.4108
        61        2.0000           -0.4833254             -13.1520
        62        2.0000           -0.4723378             -12.8530
        63        2.0000           -0.4717082             -12.8358
        64        2.0000           -0.4661439             -12.6844
        65        2.0000           -0.4604887             -12.5305
        66        2.0000           -0.4394666             -11.9585
        67        2.0000           -0.4226440             -11.5007 (HOMO)
        68                         -0.3182844              -8.6610 (LUMO)
        69                         -0.2938142              -7.9951
        70                         -0.2932213              -7.9790
        71                         -0.2924089              -7.9569
        72                         -0.2483543              -6.7581
        73                         -0.1895958              -5.1592
        74                         -0.1778675              -4.8400
        75                         -0.1677230              -4.5640
        76                         -0.1606497              -4.3715
        77                         -0.1538775              -4.1872
        78                         -0.1419619              -3.8630
       ...                                ...                  ...
       144                          0.6851743              18.6445
      -------------------------------------------------------------
                  HL-Gap            0.1043596 Eh            2.8398 eV

Wiberg/Mayer (AO) data.
largest (>0.10) Wiberg bond orders for each atom

     #   Z sym  total        # sym  WBO       # sym  WBO       # sym  WBO
 ---------------------------------------------------------------------------
     1   6 C    3.910 --    27 H    0.975    28 H    0.975    26 H    0.966
                             2 N    0.920
     2   7 N    3.526 --     3 C    1.212    24 C    1.117     1 C    0.920
                            25 O    0.131
     3   6 C    3.916 --     8 N    1.509     2 N    1.212     4 C    0.976
     4   6 C    3.965 --     5 C    0.991     7 N    0.983     6 C    0.981
                             3 C    0.976
     5   6 C    3.994 --     4 C    0.991    29 H    0.984    31 H    0.983
                            30 H    0.979
     6   6 C    3.992 --    33 H    0.986    32 H    0.982    34 H    0.982
                             4 C    0.981
     7   7 N    2.994 --     4 C    0.983    35 H    0.939    36 H    0.936
     8   7 N    3.021 --     3 C    1.509     9 C    1.212
     9   6 C    3.959 --    22 C    1.521     8 N    1.212    10 C    0.971
    10   6 C    3.763 --    11 C    0.996     9 C    0.971    12 O    0.874
                            13 N    0.844
    11   6 C    3.972 --    10 C    0.996    38 H    0.978    39 H    0.973
                            37 H    0.964
    12   8 O    1.953 --    13 N    0.946    10 C    0.874
    13   7 N    3.572 --    12 O    0.946    40 H    0.867    14 C    0.866
                            10 C    0.844
    14   6 C    3.878 --    15 C    0.996    41 H    0.964    42 H    0.963
                            13 N    0.866
    15   6 C    3.979 --    16 C    1.418    21 C    1.410    14 C    0.996
    16   6 C    3.992 --    17 C    1.444    15 C    1.418    43 H    0.969
                            20 C    0.108
    17   6 C    3.990 --    16 C    1.444    18 C    1.398    44 H    0.967
                            21 C    0.110
    18   6 C    3.865 --    17 C    1.398    20 C    1.393    19 F    0.941
    19   9 F    1.074 --    18 C    0.941
    20   6 C    3.991 --    21 C    1.451    18 C    1.393    45 H    0.967
                            16 C    0.108
    21   6 C    3.992 --    20 C    1.451    15 C    1.410    46 H    0.969
                            17 C    0.110
    22   6 C    3.924 --     9 C    1.521    24 C    1.086    23 O    1.082
    23   8 O    2.056 --    22 C    1.082    47 H    0.804
    24   6 C    3.918 --    25 O    1.565     2 N    1.117    22 C    1.086
    25   8 O    1.904 --    24 C    1.565     2 N    0.131
    26   1 H    1.026 --     1 C    0.966
    27   1 H    1.006 --     1 C    0.975
    28   1 H    1.001 --     1 C    0.975
    29   1 H    1.008 --     5 C    0.984
    30   1 H    1.011 --     5 C    0.979
    31   1 H    1.001 --     5 C    0.983
    32   1 H    1.002 --     6 C    0.982
    33   1 H    1.002 --     6 C    0.986
    34   1 H    0.998 --     6 C    0.982
    35   1 H    0.953 --     7 N    0.939
    36   1 H    0.950 --     7 N    0.936
    37   1 H    0.996 --    11 C    0.964
    38   1 H    0.991 --    11 C    0.978
    39   1 H    0.993 --    11 C    0.973
    40   1 H    0.923 --    13 N    0.867
    41   1 H    1.008 --    14 C    0.964
    42   1 H    1.012 --    14 C    0.963
    43   1 H    0.996 --    16 C    0.969
    44   1 H    0.995 --    17 C    0.967
    45   1 H    0.995 --    20 C    0.967
    46   1 H    1.001 --    21 C    0.969
    47   1 H    0.839 --    23 O    0.804
 ---------------------------------------------------------------------------

           -------------------------------------------------
          | TOTAL ENERGY              -79.457473108386 Eh   |
          | GRADIENT NORM               0.000447874894 Eh/α |
          | HOMO-LUMO GAP               2.839769305234 eV   |
           -------------------------------------------------

 * finished run on 2023/06/20 at 15:25:48.597
