   * xtb version 6.5.1 (579679a) compiled by 'ehlert@majestix' on 2022-07-11
          program call               : /lustre/hpc/kemi/ree/PhD/git/ReactivityQM/dep/xtb-6.5.1/bin/xtb --gfn 1 /lustre/hpc/kemi/ree/PhD/git/ReactivityQM/calculations/R01/reac02/conf05/R01_reac02_conf05_gfn1.xyz --opt --vfukui --chrg 0 --uhf 0 --alpb DMSO

   ID    Z sym.   atoms
    1    6 C      1, 3, 5, 7-10, 13, 15
    2    8 O      2, 4, 14, 16
    3    7 N      6, 11, 12
    4    1 H      17-29

      * Solvation model:               ALPB
        Solvent                        DMSO
        Solvent mass                       7.8130E+01 g/mol
          :  Hamiltonian                  GFN1-xTB          :
 * total energy  :   -54.4995067 Eh     change       -0.5314860E-11 Eh
 * total energy  :   -54.5064936 Eh     change       -0.6986897E-02 Eh
 * total energy  :   -54.5085201 Eh     change       -0.2026474E-02 Eh
 * total energy  :   -54.5087634 Eh     change       -0.2433134E-03 Eh
 * total energy  :   -54.5089187 Eh     change       -0.1552729E-03 Eh
 * total energy  :   -54.5089614 Eh     change       -0.4271570E-04 Eh
 * total energy  :   -54.5089858 Eh     change       -0.2438910E-04 Eh
 * total energy  :   -54.5089980 Eh     change       -0.1223592E-04 Eh
 * total energy  :   -54.5090039 Eh     change       -0.5931266E-05 Eh
 * total energy  :   -54.5090089 Eh     change       -0.4988239E-05 Eh
   *** GEOMETRY OPTIMIZATION CONVERGED AFTER 10 ITERATIONS ***

 final structure:
================
29
 xtb: 6.5.1 (579679a)
C            4.79454996399001        0.63440180485993       -0.82948086982485
O            3.63442300740732       -0.02774162532451       -0.30443260192091
C            2.45277049998894        0.52779611694373       -0.61487286914543
O            2.36055996826151        1.51977251748256       -1.29729625528897
C            1.28962902753254       -0.19214552939168       -0.02529397054790
N            0.08824962342266        0.40424479552795       -0.32100861099934
C           -1.01048553219854       -0.09329744501675        0.13922288746260
C           -2.31831958206963        0.61898054258120       -0.17454217064791
C           -3.51319598795588       -0.33591642790027       -0.19864159835041
C           -2.52160130563043        1.71627459305887        0.88286266211888
N           -2.20766384428016        1.25428613366350       -1.48073602645818
N           -1.01397160700252       -1.20567804283523        0.92800377454145
C            0.11815836938978       -1.91270334258547        1.27948120903408
O            0.04186527949661       -2.91304138333576        1.97323753368142
C            1.35260293605170       -1.32710375334493        0.74419508342094
O            2.46577242561698       -1.98979122208462        1.08287140461364
H            4.82584808536068        1.66604621156952       -0.47190497965897
H            5.65943436698693        0.08159142227465       -0.47064098688869
H            4.76319573216595        0.62688382924592       -1.92112193240437
H           -3.30861584546198       -1.18780582175617       -0.84565471489209
H           -4.38259382014745        0.19478191463396       -0.58483827221090
H           -3.74743183290427       -0.69661987428352        0.80166770475268
H           -2.62678889885170        1.27445590597062        1.87243113498003
H           -3.42078468411305        2.28331571848858        0.64575795424171
H           -1.66671139300664        2.39179333641060        0.88546588001604
H           -1.33735461088212        1.77747951106452       -1.51361523417892
H           -2.15820383617856        0.53749963082185       -2.19310705648029
H           -1.88277079865701       -1.56965754686793        1.28940412718251
H            3.26943429366690       -1.57631696987174        0.72258479385162

          :  Hamiltonian                  GFN1-xTB          :
         :: total energy             -54.509008915770 Eh    ::
         :: gradient norm              0.000784619739 Eh/a0 ::
         :: HOMO-LUMO gap              2.468535868185 eV    ::
         :: SCC energy               -55.034227364470 Eh    ::
         :: -> Gsolv                  -0.040533126777 Eh    ::
         :: repulsion energy           0.541276621783 Eh    ::

    * Orbital Energies and Occupations

         #    Occupation            Energy/Eh            Energy/eV
      -------------------------------------------------------------
         1        2.0000           -0.8429394             -22.9375
       ...           ...                  ...                  ...
        32        2.0000           -0.5148827             -14.0107
        33        2.0000           -0.5145864             -14.0026
        34        2.0000           -0.5102173             -13.8837
        35        2.0000           -0.5019629             -13.6591
        36        2.0000           -0.4985804             -13.5671
        37        2.0000           -0.4925998             -13.4043
        38        2.0000           -0.4858732             -13.2213
        39        2.0000           -0.4837145             -13.1625
        40        2.0000           -0.4822745             -13.1234
        41        2.0000           -0.4580337             -12.4637
        42        2.0000           -0.4438311             -12.0773
        43        2.0000           -0.4262651             -11.5993
        44        2.0000           -0.4123221             -11.2199 (HOMO)
        45                         -0.3216050              -8.7513 (LUMO)
        46                         -0.2769474              -7.5361
        47                         -0.2386952              -6.4952
        48                         -0.1557007              -4.2368
        49                         -0.1372381              -3.7344
        50                         -0.1365147              -3.7148
        51                         -0.1241038              -3.3770
        52                         -0.1049035              -2.8546
        53                         -0.0942985              -2.5660
        54                         -0.0876666              -2.3855
        55                         -0.0725809              -1.9750
       ...                                ...                  ...
        90                          0.7338314              19.9686
      -------------------------------------------------------------
                  HL-Gap            0.0907170 Eh            2.4685 eV

Wiberg/Mayer (AO) data.
largest (>0.10) Wiberg bond orders for each atom

     #   Z sym  total        # sym  WBO       # sym  WBO       # sym  WBO
 ---------------------------------------------------------------------------
     1   6 C    3.862 --    18 H    0.986    17 H    0.980    19 H    0.980
                             2 O    0.885
     2   8 O    2.202 --     3 C    1.085     1 C    0.885     4 O    0.129
     3   6 C    3.845 --     4 O    1.672     2 O    1.085     5 C    1.007
     4   8 O    1.933 --     3 C    1.672     2 O    0.129
     5   6 C    3.965 --    15 C    1.499     6 N    1.179     3 C    1.007
     6   7 N    3.032 --     7 C    1.582     5 C    1.179
     7   6 C    3.917 --     6 N    1.582    12 N    1.169     8 C    0.968
     8   6 C    3.970 --     9 C    0.998    11 N    0.992    10 C    0.977
                             7 C    0.968
     9   6 C    3.994 --     8 C    0.998    20 H    0.985    21 H    0.983
                            22 H    0.982
    10   6 C    3.993 --    23 H    0.987    25 H    0.985    24 H    0.984
                             8 C    0.977
    11   7 N    2.955 --     8 C    0.992    27 H    0.944    26 H    0.938
    12   7 N    3.461 --     7 C    1.169    13 C    1.125    28 H    0.885
                            14 O    0.134
    13   6 C    3.910 --    14 O    1.593    12 N    1.125    15 C    1.060
    14   8 O    1.890 --    13 C    1.593    12 N    0.134
    15   6 C    3.919 --     5 C    1.499    16 O    1.105    13 C    1.060
    16   8 O    2.084 --    15 C    1.105    29 H    0.801
    17   1 H    1.007 --     1 C    0.980
    18   1 H    1.009 --     1 C    0.986
    19   1 H    1.006 --     1 C    0.980
    20   1 H    1.000 --     9 C    0.985
    21   1 H    1.004 --     9 C    0.983
    22   1 H    1.000 --     9 C    0.982
    23   1 H    1.002 --    10 C    0.987
    24   1 H    1.005 --    10 C    0.984
    25   1 H    1.003 --    10 C    0.985
    26   1 H    0.973 --    11 N    0.938
    27   1 H    0.960 --    11 N    0.944
    28   1 H    0.934 --    12 N    0.885
    29   1 H    0.854 --    16 O    0.801
 ---------------------------------------------------------------------------

           -------------------------------------------------
          | TOTAL ENERGY              -54.509008915770 Eh   |
          | GRADIENT NORM               0.000784619739 Eh/α |
          | HOMO-LUMO GAP               2.468535868185 eV   |
           -------------------------------------------------

 * finished run on 2023/06/20 at 14:51:56.416
