                         Program Version 5.0.1 -  RELEASE  -
|  1> # ORCA input file
|  2> ! SP r2SCAN-3c CPCM
|  3>
|  4> %maxcore 1875.0
|  5> %pal nprocs 4 end
|  6> %cpcm smd true SMDsolvent "DMSO" end
|  7>
|  8> *xyz -1 1
|  9> C      -6.061589   -1.851508    1.163653
| 10> O      -4.822925   -1.215410    0.844200
| 11> C      -4.755822   -0.614418   -0.341109
| 12> O      -5.687549   -0.614920   -1.132127
| 13> C      -3.469930    0.061671   -0.601955
| 14> N      -2.496568   -0.047132    0.358841
| 15> C      -1.366301    0.548358    0.161086
| 16> C      -0.272993    0.515771    1.206501
| 17> C      -0.374047    1.801815    2.038862
| 18> C      -0.434992   -0.715375    2.107905
| 19> N       1.005738    0.528935    0.512565
| 20> C       1.263034   -0.549846   -0.371819
| 21> O       0.316940   -1.228126   -0.824202
| 22> C       2.618379   -0.699887   -0.711630
| 23> N       3.144196   -1.575231   -1.562446
| 24> N       4.426100   -1.426202   -1.651876
| 25> C       4.815585   -0.320575   -0.763115
| 26> C       5.442154    0.813419   -1.590124
| 27> C       5.795111   -0.830604    0.304016
| 28> O       3.610675    0.126120   -0.154165
| 29> N      -1.132170    1.316799   -0.939611
| 30> C      -2.015959    1.487233   -1.980081
| 31> O      -1.731651    2.179602   -2.948281
| 32> C      -3.277461    0.777229   -1.762776
| 33> O      -4.195628    0.893155   -2.732949
| 34> H      -6.256073   -2.670671    0.467342
| 35> H      -5.965403   -2.232346    2.178180
| 36> H      -6.879536   -1.129762    1.106058
| 37> H       0.390837    1.801720    2.813080
| 38> H      -1.353252    1.865946    2.510743
| 39> H      -0.228513    2.672696    1.401811
| 40> H      -0.410423   -1.625697    1.509456
| 41> H      -1.390866   -0.662587    2.627199
| 42> H       0.368268   -0.744393    2.841392
| 43> H       1.788173    0.780726    1.100201
| 44> H       5.688086    1.654341   -0.944622
| 45> H       4.731940    1.142534   -2.347213
| 46> H       6.346110    0.456926   -2.080023
| 47> H       6.073831   -0.020589    0.975092
| 48> H       5.319620   -1.622264    0.880480
| 49> H       6.688389   -1.225391   -0.176047
| 50> H      -0.236038    1.783178   -1.009593
| 51> H      -5.017472    0.414764   -2.482898
| 52> **                         ****END OF INPUT****

CARTESIAN COORDINATES (ANGSTROEM)
---------------------------------
  C     -6.061589   -1.851508    1.163653
  O     -4.822925   -1.215410    0.844200
  C     -4.755822   -0.614418   -0.341109
  O     -5.687549   -0.614920   -1.132127
  C     -3.469930    0.061671   -0.601955
  N     -2.496568   -0.047132    0.358841
  C     -1.366301    0.548358    0.161086
  C     -0.272993    0.515771    1.206501
  C     -0.374047    1.801815    2.038862
  C     -0.434992   -0.715375    2.107905
  N      1.005738    0.528935    0.512565
  C      1.263034   -0.549846   -0.371819
  O      0.316940   -1.228126   -0.824202
  C      2.618379   -0.699887   -0.711630
  N      3.144196   -1.575231   -1.562446
  N      4.426100   -1.426202   -1.651876
  C      4.815585   -0.320575   -0.763115
  C      5.442154    0.813419   -1.590124
  C      5.795111   -0.830604    0.304016
  O      3.610675    0.126120   -0.154165
  N     -1.132170    1.316799   -0.939611
  C     -2.015959    1.487233   -1.980081
  O     -1.731651    2.179602   -2.948281
  C     -3.277461    0.777229   -1.762776
  O     -4.195628    0.893155   -2.732949
  H     -6.256073   -2.670671    0.467342
  H     -5.965403   -2.232346    2.178180
  H     -6.879536   -1.129762    1.106058
  H      0.390837    1.801720    2.813080
  H     -1.353252    1.865946    2.510743
  H     -0.228513    2.672696    1.401811
  H     -0.410423   -1.625697    1.509456
  H     -1.390866   -0.662587    2.627199
  H      0.368268   -0.744393    2.841392
  H      1.788173    0.780726    1.100201
  H      5.688086    1.654341   -0.944622
  H      4.731940    1.142534   -2.347213
  H      6.346110    0.456926   -2.080023
  H      6.073831   -0.020589    0.975092
  H      5.319620   -1.622264    0.880480
  H      6.688389   -1.225391   -0.176047
  H     -0.236038    1.783178   -1.009593
  H     -5.017472    0.414764   -2.482898

 Total Charge           Charge          ....   -1
 Multiplicity           Mult            ....    1
 Number of Electrons    NEL             ....  186
 Basis Dimension        Dim             ....  620

ORBITAL ENERGIES
----------------

  NO   OCC          E(Eh)            E(eV)
   0   2.0000     -19.006625      -517.1966
   1   2.0000     -18.989462      -516.7295
   2   2.0000     -18.954162      -515.7690
   3   2.0000     -18.953203      -515.7429
   4   2.0000     -18.923061      -514.9227
   5   2.0000     -18.890009      -514.0233
   6   2.0000     -14.213587      -386.7714
   7   2.0000     -14.167652      -385.5214
   8   2.0000     -14.160549      -385.3281
   9   2.0000     -14.153875      -385.1465
  10   2.0000     -14.131819      -384.5463
  11   2.0000     -10.170381      -276.7501
  12   2.0000     -10.142161      -275.9822
  13   2.0000     -10.116853      -275.2936
  14   2.0000     -10.114956      -275.2419
  15   2.0000     -10.101913      -274.8870
  16   2.0000     -10.091230      -274.5963
  17   2.0000     -10.086642      -274.4715
  18   2.0000     -10.083230      -274.3786
  19   2.0000     -10.077466      -274.2218
  20   2.0000     -10.059877      -273.7432
  21   2.0000     -10.019852      -272.6540
  22   2.0000     -10.008359      -272.3413
  23   2.0000     -10.004420      -272.2341
  24   2.0000     -10.004166      -272.2272
  25   2.0000      -1.084713       -29.5165
  26   2.0000      -1.043446       -28.3936
  27   2.0000      -1.036739       -28.2111
  28   2.0000      -1.010810       -27.5056
  29   2.0000      -0.992443       -27.0057
  30   2.0000      -0.971188       -26.4274
  31   2.0000      -0.952388       -25.9158
  32   2.0000      -0.915327       -24.9073
  33   2.0000      -0.875018       -23.8105
  34   2.0000      -0.867582       -23.6081
  35   2.0000      -0.775630       -21.1060
  36   2.0000      -0.761315       -20.7164
  37   2.0000      -0.727818       -19.8049
  38   2.0000      -0.708916       -19.2906
  39   2.0000      -0.671299       -18.2670
  40   2.0000      -0.656583       -17.8665
  41   2.0000      -0.647686       -17.6244
  42   2.0000      -0.645775       -17.5724
  43   2.0000      -0.634720       -17.2716
  44   2.0000      -0.599919       -16.3246
  45   2.0000      -0.557004       -15.1568
  46   2.0000      -0.551047       -14.9948
  47   2.0000      -0.542778       -14.7697
  48   2.0000      -0.537908       -14.6372
  49   2.0000      -0.522920       -14.2294
  50   2.0000      -0.514000       -13.9866
  51   2.0000      -0.493521       -13.4294
  52   2.0000      -0.478241       -13.0136
  53   2.0000      -0.463023       -12.5995
  54   2.0000      -0.458820       -12.4851
  55   2.0000      -0.450213       -12.2509
  56   2.0000      -0.434715       -11.8292
  57   2.0000      -0.424268       -11.5449
  58   2.0000      -0.421579       -11.4718
  59   2.0000      -0.413425       -11.2499
  60   2.0000      -0.407900       -11.0995
  61   2.0000      -0.402403       -10.9499
  62   2.0000      -0.391290       -10.6476
  63   2.0000      -0.384763       -10.4699
  64   2.0000      -0.380726       -10.3601
  65   2.0000      -0.376531       -10.2459
  66   2.0000      -0.371574       -10.1110
  67   2.0000      -0.361939        -9.8489
  68   2.0000      -0.359479        -9.7819
  69   2.0000      -0.350232        -9.5303
  70   2.0000      -0.349940        -9.5223
  71   2.0000      -0.346514        -9.4291
  72   2.0000      -0.341963        -9.3053
  73   2.0000      -0.338423        -9.2090
  74   2.0000      -0.333521        -9.0756
  75   2.0000      -0.331103        -9.0098
  76   2.0000      -0.328237        -8.9318
  77   2.0000      -0.325139        -8.8475
  78   2.0000      -0.316975        -8.6253
  79   2.0000      -0.312050        -8.4913
  80   2.0000      -0.297185        -8.0868
  81   2.0000      -0.284127        -7.7315
  82   2.0000      -0.272967        -7.4278
  83   2.0000      -0.272224        -7.4076
  84   2.0000      -0.271069        -7.3762
  85   2.0000      -0.265301        -7.2192
  86   2.0000      -0.241532        -6.5724
  87   2.0000      -0.235948        -6.4205
  88   2.0000      -0.224041        -6.0965
  89   2.0000      -0.213769        -5.8169
  90   2.0000      -0.202666        -5.5148
  91   2.0000      -0.191921        -5.2224
  92   2.0000      -0.126140        -3.4325
  93   0.0000      -0.090622        -2.4660
  94   0.0000      -0.033854        -0.9212
  95   0.0000      -0.025781        -0.7015
  96   0.0000       0.013813         0.3759
  97   0.0000       0.055420         1.5081

MULLIKEN ATOMIC CHARGES
-----------------------
   0 C :   -0.314591
   1 O :   -0.184708
   2 C :    0.211293
   3 O :   -0.480768
   4 C :    0.126417
   5 N :   -0.117955
   6 C :    0.161060
   7 C :    0.201106
   8 C :   -0.544942
   9 C :   -0.649531
  10 N :   -0.336129
  11 C :   -0.257646
  12 O :   -0.454530
  13 C :    0.243180
  14 N :   -0.132289
  15 N :   -0.360956
  16 C :    0.236668
  17 C :   -0.565274
  18 C :   -0.566617
  19 O :   -0.169696
  20 N :    0.001945
  21 C :    0.031559
  22 O :   -0.401559
  23 C :    0.045780
  24 O :   -0.361981
  25 H :    0.178952
  26 H :    0.178744
  27 H :    0.178002
  28 H :    0.183713
  29 H :    0.189097
  30 H :    0.183148
  31 H :    0.195818
  32 H :    0.175500
  33 H :    0.180497
  34 H :    0.306838
  35 H :    0.166557
  36 H :    0.164316
  37 H :    0.170300
  38 H :    0.166399
  39 H :    0.164588
  40 H :    0.171257
  41 H :    0.315970
  42 H :    0.370467
Sum of atomic charges:   -1.0000000

LOEWDIN ATOMIC CHARGES
----------------------
   0 C :   -0.034098
   1 O :   -0.561257
   2 C :    0.410217
   3 O :   -0.469237
   4 C :    0.190986
   5 N :   -0.560825
   6 C :    0.365161
   7 C :    0.091899
   8 C :   -0.346439
   9 C :   -0.359961
  10 N :   -0.653963
  11 C :    0.342887
  12 O :   -0.540433
  13 C :    0.312105
  14 N :   -0.425363
  15 N :   -0.475415
  16 C :    0.238096
  17 C :   -0.370278
  18 C :   -0.370430
  19 O :   -0.568596
  20 N :   -0.445888
  21 C :    0.367545
  22 O :   -0.453573
  23 C :    0.276961
  24 O :   -0.449860
  25 H :    0.183103
  26 H :    0.187316
  27 H :    0.183924
  28 H :    0.170960
  29 H :    0.172744
  30 H :    0.171617
  31 H :    0.179647
  32 H :    0.170649
  33 H :    0.164773
  34 H :    0.289396
  35 H :    0.162886
  36 H :    0.165734
  37 H :    0.167312
  38 H :    0.162880
  39 H :    0.165676
  40 H :    0.167733
  41 H :    0.312116
  42 H :    0.311293

  Mayer bond orders larger than 0.100000
B(  0-C ,  1-O ) :   0.8283 B(  0-C , 25-H ) :   0.9544 B(  0-C , 26-H ) :   0.9613
B(  0-C , 27-H ) :   0.9562 B(  1-O ,  2-C ) :   1.1900 B(  2-C ,  3-O ) :   1.7240
B(  2-C ,  4-C ) :   1.0798 B(  4-C ,  5-N ) :   1.0027 B(  4-C , 23-C ) :   1.3056
B(  5-N ,  6-C ) :   1.6860 B(  6-C ,  7-C ) :   0.7629 B(  6-C , 12-O ) :   0.1759
B(  6-C , 20-N ) :   1.0741 B(  6-C , 23-C ) :   0.1108 B(  7-C ,  8-C ) :   0.9138
B(  7-C ,  9-C ) :   0.8852 B(  7-C , 10-N ) :   0.7897 B(  8-C , 28-H ) :   0.9627
B(  8-C , 29-H ) :   0.9730 B(  8-C , 30-H ) :   0.9633 B(  9-C , 31-H ) :   0.9759
B(  9-C , 32-H ) :   0.9621 B(  9-C , 33-H ) :   0.9764 B( 10-N , 11-C ) :   0.9997
B( 10-N , 34-H ) :   0.8935 B( 11-C , 12-O ) :   1.7969 B( 11-C , 13-C ) :   1.0208
B( 11-C , 15-N ) :   0.2111 B( 12-O , 13-C ) :  -0.1259 B( 13-C , 14-N ) :   1.5380
B( 13-C , 16-C ) :   0.1055 B( 13-C , 19-O ) :   0.9578 B( 14-N , 15-N ) :   1.6536
B( 15-N , 16-C ) :   0.8293 B( 16-C , 17-C ) :   0.9323 B( 16-C , 18-C ) :   0.9284
B( 16-C , 19-O ) :   0.7782 B( 17-C , 35-H ) :   0.9767 B( 17-C , 36-H ) :   0.9700
B( 17-C , 37-H ) :   0.9652 B( 18-C , 38-H ) :   0.9764 B( 18-C , 39-H ) :   0.9704
B( 18-C , 40-H ) :   0.9660 B( 20-N , 21-C ) :   1.0262 B( 20-N , 41-H ) :   0.8761
B( 21-C , 22-O ) :   2.0642 B( 21-C , 23-C ) :   0.9843 B( 23-C , 24-O ) :   1.1533
B( 24-O , 42-H ) :   0.7724

Dispersion correction           -0.019341326
FINAL SINGLE POINT ENERGY     -1269.381114144690

DIPOLE MOMENT
-------------
                                X             Y             Z
Electronic contribution:    -19.72883       1.15860     -13.39274
Nuclear contribution   :     15.96232       1.02329      18.23809
                        -----------------------------------------
Total Dipole Moment    :     -3.76651       2.18190       4.84535
                        -----------------------------------------
Magnitude (a.u.)       :      6.51342
Magnitude (Debye)      :     16.55580

Rotational constants in cm-1:     0.015494     0.003487     0.003248
Rotational constants in MHz :   464.511038   104.527674    97.381027

                             ****ORCA TERMINATED NORMALLY****
TOTAL RUN TIME: 0 days 0 hours 2 minutes 19 seconds 258 msec
