   * xtb version 6.5.1 (579679a) compiled by 'ehlert@majestix' on 2022-07-11
          program call               : /lustre/hpc/kemi/ree/PhD/git/ReactivityQM/dep/xtb-6.5.1/bin/xtb --gfn 1 /lustre/hpc/kemi/ree/PhD/git/ReactivityQM/calculations/R02/reac01prodE11/conf15/R02_reac01prodE11_conf15_gfn1.xyz --opt --vfukui --chrg -1 --uhf 0 --alpb DMSO

   ID    Z sym.   atoms
    1    6 C      1, 3, 5, 7-10, 12, 14, 17-19, 22, 24
    2    8 O      2, 4, 13, 20, 23, 25
    3    7 N      6, 11, 15, 16, 21
    4    1 H      26-43

      * Solvation model:               ALPB
        Solvent                        DMSO
        Solvent mass                       7.8130E+01 g/mol
          :  Hamiltonian                  GFN1-xTB          :
 * total energy  :   -83.8738298 Eh     change       -0.8062244E-09 Eh
 * total energy  :   -83.8825406 Eh     change       -0.8710800E-02 Eh
 * total energy  :   -83.8857085 Eh     change       -0.3167926E-02 Eh
 * total energy  :   -83.8863408 Eh     change       -0.6322664E-03 Eh
 * total energy  :   -83.8870308 Eh     change       -0.6899862E-03 Eh
 * total energy  :   -83.8873995 Eh     change       -0.3686712E-03 Eh
 * total energy  :   -83.8877182 Eh     change       -0.3187325E-03 Eh
 * total energy  :   -83.8879212 Eh     change       -0.2030280E-03 Eh
 * total energy  :   -83.8880409 Eh     change       -0.1196392E-03 Eh
 * total energy  :   -83.8881277 Eh     change       -0.8683402E-04 Eh
 * total energy  :   -83.8925852 Eh     change       -0.3902220E-04 Eh
 * total energy  :   -83.8926201 Eh     change       -0.3493009E-04 Eh
 * total energy  :   -83.8926505 Eh     change       -0.3036721E-04 Eh
 * total energy  :   -83.8926761 Eh     change       -0.2562476E-04 Eh
 * total energy  :   -83.8926983 Eh     change       -0.2219021E-04 Eh
 * total energy  :   -83.8927177 Eh     change       -0.1940743E-04 Eh
 * total energy  :   -83.8927348 Eh     change       -0.1710303E-04 Eh
 * total energy  :   -83.8927496 Eh     change       -0.1478253E-04 Eh
 * total energy  :   -83.8927537 Eh     change       -0.4128114E-05 Eh
   *** GEOMETRY OPTIMIZATION CONVERGED AFTER 68 ITERATIONS ***

 final structure:
================
43
 xtb: 6.5.1 (579679a)
C           -6.06158909265898       -1.85150788838884        1.16365252691668
O           -4.82292476051531       -1.21541024240355        0.84419996805041
C           -4.75582217127386       -0.61441833337868       -0.34110887726434
O           -5.68754909684662       -0.61492022720095       -1.13212688406830
C           -3.46992989932817        0.06167087275551       -0.60195517898936
N           -2.49656815364414       -0.04713150926171        0.35884144265967
C           -1.36630074408397        0.54835834672293        0.16108640668192
C           -0.27299342559239        0.51577056605991        1.20650129011179
C           -0.37404708594108        1.80181544676282        2.03886220077314
C           -0.43499226686371       -0.71537490667393        2.10790459663679
N            1.00573762345638        0.52893493052752        0.51256486828460
C            1.26303441790379       -0.54984638153487       -0.37181939147309
O            0.31693975472719       -1.22812596941824       -0.82420187654348
C            2.61837900698690       -0.69988735537045       -0.71162997600675
N            3.14419640115947       -1.57523125252525       -1.56244620418057
N            4.42610049072336       -1.42620242390170       -1.65187594455254
C            4.81558500852939       -0.32057520740969       -0.76311451203314
C            5.44215378117986        0.81341917319883       -1.59012418120890
C            5.79511057761056       -0.83060416803933        0.30401565818393
O            3.61067529556381        0.12611954419547       -0.15416539971108
N           -1.13216968913727        1.31679873376906       -0.93961097870165
C           -2.01595923623726        1.48723325156866       -1.98008078851070
O           -1.73165076128664        2.17960221190000       -2.94828141598298
C           -3.27746080388143        0.77722917337516       -1.76277626064473
O           -4.19562810685936        0.89315477535395       -2.73294856601598
H           -6.25607321764971       -2.67067112351611        0.46734214779449
H           -5.96540288598599       -2.23234608007602        2.17817968663270
H           -6.87953611934906       -1.12976222722951        1.10605770709668
H            0.39083660589274        1.80171960088747        2.81308044582623
H           -1.35325237637093        1.86594628819519        2.51074280316549
H           -0.22851340433060        2.67269561883893        1.40181128298273
H           -0.41042345688859       -1.62569745529964        1.50945576763964
H           -1.39086552375592       -0.66258671013890        2.62719877457563
H            0.36826763594034       -0.74439293361920        2.84139161969033
H            1.78817339416329        0.78072556104870        1.10020142732087
H            5.68808550667789        1.65434072267477       -0.94462166709938
H            4.73194028425092        1.14253406599044       -2.34721297754646
H            6.34610990498888        0.45692597639911       -2.08002271184686
H            6.07383064071493       -0.02058885839163        0.97509171364998
H            5.31961978928564       -1.62226390774205        0.88047953448140
H            6.68838874257409       -1.22539057983841       -0.17604708679121
H           -0.23603769441306        1.78317791525576       -1.00959337523397
H           -5.01747188943092        0.41476396588950       -2.48289761474208

          :  Hamiltonian                  GFN1-xTB          :
         :: total energy             -83.892753748487 Eh    ::
         :: gradient norm              0.000218379259 Eh/a0 ::
         :: HOMO-LUMO gap              0.197863349486 eV    ::
         :: SCC energy               -84.649222099514 Eh    ::
         :: -> Gsolv                  -0.119158606376 Eh    ::
         :: repulsion energy           0.783032054243 Eh    ::

    * Orbital Energies and Occupations

         #    Occupation            Energy/Eh            Energy/eV
      -------------------------------------------------------------
         1        2.0000           -0.8359603             -22.7476
       ...           ...                  ...                  ...
        56        2.0000           -0.4770774             -12.9819
        57        2.0000           -0.4719613             -12.8427
        58        2.0000           -0.4708497             -12.8125
        59        2.0000           -0.4500291             -12.2459
        60        2.0000           -0.4449953             -12.1089
        61        2.0000           -0.4398504             -11.9689
        62        2.0000           -0.4329913             -11.7823
        63        2.0000           -0.4213338             -11.4651
        64        2.0000           -0.4168141             -11.3421
        65        2.0000           -0.4118786             -11.2078
        66        2.0000           -0.3984589             -10.8426
        67        2.0000           -0.3743420             -10.1864
        68        1.9574           -0.3215030              -8.7485 (HOMO)
        69        0.0426           -0.3142316              -8.5507 (LUMO)
        70                         -0.2646702              -7.2020
        71                         -0.2441452              -6.6435
        72                         -0.2304626              -6.2712
        73                         -0.1455513              -3.9607
        74                         -0.1354157              -3.6848
        75                         -0.1306462              -3.5551
        76                         -0.1193452              -3.2475
        77                         -0.1089529              -2.9648
        78                         -0.1045493              -2.8449
        79                         -0.0986477              -2.6843
       ...                                ...                  ...
       136                          0.7217267              19.6392
      -------------------------------------------------------------
                  HL-Gap            0.0072713 Eh            0.1979 eV

Wiberg/Mayer (AO) data.
largest (>0.10) Wiberg bond orders for each atom

     #   Z sym  total        # sym  WBO       # sym  WBO       # sym  WBO
 ---------------------------------------------------------------------------
     1   6 C    3.873 --    27 H    0.986    28 H    0.979    26 H    0.979
                             2 O    0.899
     2   8 O    2.205 --     3 C    1.120     1 C    0.899     4 O    0.124
     3   6 C    3.832 --     4 O    1.592     2 O    1.120     5 C    1.033
     4   8 O    1.924 --     3 C    1.592     2 O    0.124
     5   6 C    3.955 --    24 C    1.472     6 N    1.181     3 C    1.033
     6   7 N    3.014 --     7 C    1.567     5 C    1.181
     7   6 C    3.919 --     6 N    1.567    21 N    1.170     8 C    0.979
     8   6 C    3.960 --    10 C    0.987     7 C    0.979     9 C    0.978
                            11 N    0.962
     9   6 C    3.993 --    30 H    0.986    31 H    0.985    29 H    0.983
                             8 C    0.978
    10   6 C    3.993 --     8 C    0.987    34 H    0.987    33 H    0.985
                            32 H    0.981
    11   7 N    3.166 --    12 C    1.039     8 C    0.962    35 H    0.913
    12   6 C    3.918 --    13 O    1.450    14 C    1.246    11 N    1.039
    13   8 O    1.781 --    12 C    1.450
    14   6 C    3.826 --    15 N    1.374    12 C    1.246    20 O    0.931
                            16 N    0.140
    15   7 N    3.025 --    16 N    1.495    14 C    1.374
    16   7 N    2.873 --    15 N    1.495    17 C    0.980    14 C    0.140
    17   6 C    3.897 --    16 N    0.980    19 C    0.979    18 C    0.978
                            20 O    0.920
    18   6 C    3.991 --    38 H    0.988    36 H    0.986    37 H    0.985
                            17 C    0.978
    19   6 C    3.991 --    41 H    0.988    39 H    0.986    40 H    0.985
                            17 C    0.979
    20   8 O    2.052 --    14 C    0.931    17 C    0.920
    21   7 N    3.468 --     7 C    1.170    22 C    1.135    42 H    0.883
                            23 O    0.134
    22   6 C    3.905 --    23 O    1.572    21 N    1.135    24 C    1.069
    23   8 O    1.867 --    22 C    1.572    21 N    0.134
    24   6 C    3.902 --     5 C    1.472    25 O    1.106    22 C    1.069
    25   8 O    2.071 --    24 C    1.106    43 H    0.784
    26   1 H    1.007 --     1 C    0.979
    27   1 H    1.011 --     1 C    0.986
    28   1 H    1.008 --     1 C    0.979
    29   1 H    1.000 --     9 C    0.983
    30   1 H    1.004 --     9 C    0.986
    31   1 H    1.004 --     9 C    0.985
    32   1 H    1.016 --    10 C    0.981
    33   1 H    1.012 --    10 C    0.985
    34   1 H    1.003 --    10 C    0.987
    35   1 H    0.958 --    11 N    0.913
    36   1 H    1.008 --    18 C    0.986
    37   1 H    1.013 --    18 C    0.985
    38   1 H    1.009 --    18 C    0.988
    39   1 H    1.007 --    19 C    0.986
    40   1 H    1.013 --    19 C    0.985
    41   1 H    1.009 --    19 C    0.988
    42   1 H    0.948 --    21 N    0.883
    43   1 H    0.860 --    25 O    0.784
 ---------------------------------------------------------------------------

           -------------------------------------------------
          | TOTAL ENERGY              -83.892753748487 Eh   |
          | GRADIENT NORM               0.000218379259 Eh/α |
          | HOMO-LUMO GAP               0.197863349486 eV   |
           -------------------------------------------------

 * finished run on 2023/06/20 at 15:13:30.259
