   * xtb version 6.5.1 (579679a) compiled by 'ehlert@majestix' on 2022-07-11
          program call               : /lustre/hpc/kemi/ree/PhD/git/ReactivityQM/dep/xtb-6.5.1/bin/xtb --gfn 1 /lustre/hpc/kemi/ree/PhD/git/ReactivityQM/calculations/R02/reac01prodE13/conf13/R02_reac01prodE13_conf13_gfn1.xyz --opt --vfukui --chrg -1 --uhf 0 --alpb DMSO

   ID    Z sym.   atoms
    1    6 C      1, 3, 5, 6, 8, 10, 12-15, 17, 19, 22, 23
    2    8 O      2, 4, 7, 9, 18, 24
    3    7 N      11, 16, 20, 21, 25
    4    1 H      26-43

      * Solvation model:               ALPB
        Solvent                        DMSO
        Solvent mass                       7.8130E+01 g/mol
          :  Hamiltonian                  GFN1-xTB          :
 * total energy  :   -83.8250162 Eh     change       -0.7673862E-11 Eh
 * total energy  :   -83.8417202 Eh     change       -0.1670392E-01 Eh
 * total energy  :   -83.8479415 Eh     change       -0.6221312E-02 Eh
 * total energy  :   -83.8491825 Eh     change       -0.1241050E-02 Eh
 * total energy  :   -83.8498499 Eh     change       -0.6673322E-03 Eh
 * total energy  :   -83.8500749 Eh     change       -0.2250132E-03 Eh
 * total energy  :   -83.8502199 Eh     change       -0.1449820E-03 Eh
 * total energy  :   -83.8503589 Eh     change       -0.1390899E-03 Eh
 * total energy  :   -83.8505321 Eh     change       -0.1732041E-03 Eh
 * total energy  :   -83.8507675 Eh     change       -0.2353420E-03 Eh
 * total energy  :   -83.8527193 Eh     change       -0.1869772E-04 Eh
 * total energy  :   -83.8527269 Eh     change       -0.7649971E-05 Eh
 * total energy  :   -83.8522378 Eh     change        0.4891158E-03 Eh
 * total energy  :   -83.8527329 Eh     change       -0.4950916E-03 Eh
 * total energy  :   -83.8527506 Eh     change       -0.1768541E-04 Eh
 * total energy  :   -83.8527602 Eh     change       -0.9550384E-05 Eh
 * total energy  :   -83.8527678 Eh     change       -0.7593281E-05 Eh
 * total energy  :   -83.8527728 Eh     change       -0.5084840E-05 Eh
 * total energy  :   -83.8527753 Eh     change       -0.2431288E-05 Eh
   *** GEOMETRY OPTIMIZATION CONVERGED AFTER 66 ITERATIONS ***

 final structure:
================
43
 xtb: 6.5.1 (579679a)
C           -4.37557827029554        4.02907479512619        0.98376848885358
O           -3.38652548098902        3.08575939826594        0.61886735928919
C           -3.70248409861807        1.75728804670020        0.91152955307845
O           -4.80344986057735        1.50567436757684        1.48366465587979
C           -2.75218421347418        0.81625281292433        0.54889937838154
C           -2.98663163383984       -0.61117892393980        0.77548548275782
O           -4.18968670107130       -0.99033240021851        1.30692560346271
C           -2.05446751795691       -1.50380065985667        0.40416128646360
O           -2.10502610227757       -2.88720743596696        0.49065638253921
C           -3.31554450920624       -3.50667136261647        0.08146825485198
N           -0.77701974143758       -1.05613059398462       -0.08148537488051
C           -0.71587761028032        0.31015695734605       -0.44358330576587
C            0.54063404778865        0.71646616124555       -1.19285037653182
C            0.45813515265958        0.23583806670344       -2.65047644673852
C            0.71269663624129        2.23812249218306       -1.13503570736235
N            1.67011173244572        0.05981901299109       -0.52070555165754
C            2.95511449874680        0.17058112149931       -0.90873244521004
O            3.36518337338398        0.86014402850431       -1.83542297307597
C            3.84358357794690       -0.64502202970517       -0.04881375982759
N            3.48120250642458       -1.35699049721910        0.98198008424208
N            4.61484854760172       -1.93297114223799        1.47964154888659
C            5.59284258141242       -1.53872420611488        0.72543325723457
C            7.02586728833652       -1.88872140636664        0.84968534495003
O            5.17668760789730       -0.72271638067707       -0.25700511980081
N           -1.58163933129447        1.18575543371320       -0.12624918649911
H           -4.00382932575215        5.01435837619907        0.69690762355935
H           -5.32228724975865        3.83435854668841        0.46481810151065
H           -4.56260732604846        4.01354497383795        2.06471009966445
H           -4.68463932906567       -0.12757021091385        1.48319629860887
H           -4.10179821760916       -3.38724123203389        0.83712784812772
H           -3.67134434566368       -3.09425920277333       -0.87031763513208
H           -3.10067092607812       -4.56983789336481       -0.04592613124916
H           -0.39343451437314       -1.69035289804301       -0.76982080626519
H           -0.42522995439830        0.66436293842876       -3.12176285417723
H            0.38543604382292       -0.84991640267863       -2.68457679000458
H            1.34177590699176        0.54644029250962       -3.20561298027710
H            0.82644093775716        2.56039623116159       -0.10022064010913
H            1.58583590982428        2.54799445741705       -1.70586035019439
H           -0.17447248796241        2.71314611214543       -1.55256705788197
H            1.45118513726055       -0.58530054563997        0.22774354099972
H            7.62046145865670       -0.98668095161959        0.99298973238123
H            7.37149117868574       -2.37843765852166       -0.06043089801102
H            7.16689462415650       -2.55547058867042        1.69658046494888

          :  Hamiltonian                  GFN1-xTB          :
         :: total energy             -83.852775268992 Eh    ::
         :: gradient norm              0.000362573149 Eh/a0 ::
         :: HOMO-LUMO gap              0.155763400357 eV    ::
         :: SCC energy               -84.606852045869 Eh    ::
         :: -> Gsolv                  -0.107233033295 Eh    ::
         :: repulsion energy           0.779368655503 Eh    ::

    * Orbital Energies and Occupations

         #    Occupation            Energy/Eh            Energy/eV
      -------------------------------------------------------------
         1        2.0000           -0.8508182             -23.1519
       ...           ...                  ...                  ...
        56        2.0000           -0.4703323             -12.7984
        57        2.0000           -0.4644219             -12.6376
        58        2.0000           -0.4530622             -12.3285
        59        2.0000           -0.4494083             -12.2290
        60        2.0000           -0.4471164             -12.1667
        61        2.0000           -0.4408818             -11.9970
        62        2.0000           -0.4376878             -11.9101
        63        2.0000           -0.4284350             -11.6583
        64        2.0000           -0.4222818             -11.4909
        65        2.0000           -0.4069330             -11.0732
        66        2.0000           -0.3861538             -10.5078
        67        2.0000           -0.3808852             -10.3644
        68        1.9063           -0.3026349              -8.2351 (HOMO)
        69        0.0937           -0.2969107              -8.0794 (LUMO)
        70                         -0.2470559              -6.7227
        71                         -0.2258650              -6.1461
        72                         -0.1883711              -5.1258
        73                         -0.1830363              -4.9807
        74                         -0.1390302              -3.7832
        75                         -0.1161229              -3.1599
        76                         -0.1130713              -3.0768
        77                         -0.1112119              -3.0262
        78                         -0.1057344              -2.8772
        79                         -0.0958566              -2.6084
       ...                                ...                  ...
       136                          0.7213964              19.6302
      -------------------------------------------------------------
                  HL-Gap            0.0057242 Eh            0.1558 eV

Wiberg/Mayer (AO) data.
largest (>0.10) Wiberg bond orders for each atom

     #   Z sym  total        # sym  WBO       # sym  WBO       # sym  WBO
 ---------------------------------------------------------------------------
     1   6 C    3.914 --    26 H    0.987    28 H    0.981    27 H    0.981
                             2 O    0.945
     2   8 O    2.073 --     3 C    0.954     1 C    0.945
     3   6 C    3.856 --     5 C    1.383     4 O    1.363     2 O    0.954
     4   8 O    1.796 --     3 C    1.363    29 H    0.120     5 C    0.111
     5   6 C    3.826 --     3 C    1.383    25 N    1.080     6 C    1.070
                             4 O    0.111
     6   6 C    3.902 --     8 C    1.637     5 C    1.070     7 O    1.035
     7   8 O    1.978 --     6 C    1.035    29 H    0.751
     8   6 C    3.799 --     6 C    1.637    11 N    0.966     9 O    0.961
     9   8 O    2.046 --     8 C    0.961    10 C    0.932
    10   6 C    3.907 --    32 H    0.986    31 H    0.983    30 H    0.980
                             9 O    0.932
    11   7 N    3.175 --    12 C    1.032     8 C    0.966    33 H    0.916
                            25 N    0.103
    12   6 C    3.935 --    25 N    1.721    11 N    1.032    13 C    0.975
    13   6 C    3.930 --    15 C    0.994    14 C    0.981    12 C    0.975
                            16 N    0.914
    14   6 C    3.990 --    34 H    0.986    35 H    0.984    36 H    0.982
                            13 C    0.981
    15   6 C    3.994 --    13 C    0.994    37 H    0.986    39 H    0.984
                            38 H    0.984
    16   7 N    3.336 --    17 C    1.259    13 C    0.914    40 H    0.895
                            18 O    0.175
    17   6 C    3.891 --    18 O    1.554    16 N    1.259    19 C    1.002
    18   8 O    1.860 --    17 C    1.554    16 N    0.175
    19   6 C    3.832 --    20 N    1.582    24 O    1.049    17 C    1.002
    20   7 N    2.964 --    19 C    1.582    21 N    1.191
    21   7 N    2.979 --    22 C    1.615    20 N    1.191
    22   6 C    3.863 --    21 N    1.615    24 O    1.077    23 C    1.029
    23   6 C    3.989 --    22 C    1.029    43 H    0.983    41 H    0.965
                            42 H    0.965
    24   8 O    2.302 --    22 C    1.077    19 C    1.049
    25   7 N    3.034 --    12 C    1.721     5 C    1.080    11 N    0.103
    26   1 H    1.019 --     1 C    0.987
    27   1 H    1.018 --     1 C    0.981
    28   1 H    1.019 --     1 C    0.981
    29   1 H    0.884 --     7 O    0.751     4 O    0.120
    30   1 H    1.025 --    10 C    0.980
    31   1 H    1.011 --    10 C    0.983
    32   1 H    1.018 --    10 C    0.986
    33   1 H    0.961 --    11 N    0.916
    34   1 H    1.005 --    14 C    0.986
    35   1 H    1.004 --    14 C    0.984
    36   1 H    1.011 --    14 C    0.982
    37   1 H    1.011 --    15 C    0.986
    38   1 H    1.013 --    15 C    0.984
    39   1 H    1.018 --    15 C    0.984
    40   1 H    0.969 --    16 N    0.895
    41   1 H    0.998 --    23 C    0.965
    42   1 H    0.998 --    23 C    0.965
    43   1 H    1.000 --    23 C    0.983
 ---------------------------------------------------------------------------

           -------------------------------------------------
          | TOTAL ENERGY              -83.852775268992 Eh   |
          | GRADIENT NORM               0.000362573149 Eh/α |
          | HOMO-LUMO GAP               0.155763400357 eV   |
           -------------------------------------------------

 * finished run on 2023/06/20 at 15:16:11.050
