   * xtb version 6.5.1 (579679a) compiled by 'ehlert@majestix' on 2022-07-11
          program call               : /lustre/hpc/kemi/ree/PhD/git/ReactivityQM/dep/xtb-6.5.1/bin/xtb --gfn 1 /lustre/hpc/kemi/ree/PhD/git/ReactivityQM/calculations/R02deprot/reac01prodE05/conf14/R02deprot_reac01prodE05_conf14_gfn1.xyz --opt --vfukui --chrg -2 --uhf 0 --alpb DMSO

   ID    Z sym.   atoms
    1    6 C      1, 3, 5, 6, 8, 11-14, 16, 18, 21, 22, 25
    2    8 O      2, 4, 7, 9, 17, 23
    3    7 N      10, 15, 19, 20, 24
    4    1 H      26-42

      * Solvation model:               ALPB
        Solvent                        DMSO
        Solvent mass                       7.8130E+01 g/mol
          :  Hamiltonian                  GFN1-xTB          :
 * total energy  :   -83.5607195 Eh     change        0.7105427E-13 Eh
 * total energy  :   -83.5747444 Eh     change       -0.1402491E-01 Eh
 * total energy  :   -83.5801688 Eh     change       -0.5424364E-02 Eh
 * total energy  :   -83.5812434 Eh     change       -0.1074578E-02 Eh
 * total energy  :   -83.5819312 Eh     change       -0.6878420E-03 Eh
 * total energy  :   -83.5822745 Eh     change       -0.3432830E-03 Eh
 * total energy  :   -83.5826007 Eh     change       -0.3262348E-03 Eh
 * total energy  :   -83.5828497 Eh     change       -0.2489437E-03 Eh
 * total energy  :   -83.5830482 Eh     change       -0.1985245E-03 Eh
 * total energy  :   -83.5831993 Eh     change       -0.1511209E-03 Eh
 * total energy  :   -83.5834045 Eh     change       -0.5447663E-04 Eh
 * total energy  :   -83.5834401 Eh     change       -0.3566239E-04 Eh
 * total energy  :   -83.5834786 Eh     change       -0.3845818E-04 Eh
 * total energy  :   -83.5835018 Eh     change       -0.2326668E-04 Eh
 * total energy  :   -83.5835209 Eh     change       -0.1901774E-04 Eh
 * total energy  :   -83.5835368 Eh     change       -0.1597721E-04 Eh
 * total energy  :   -83.5835451 Eh     change       -0.8231275E-05 Eh
 * total energy  :   -83.5835553 Eh     change       -0.1017703E-04 Eh
 * total energy  :   -83.5835595 Eh     change       -0.4258615E-05 Eh
   *** GEOMETRY OPTIMIZATION CONVERGED AFTER 21 ITERATIONS ***

 final structure:
================
42
 xtb: 6.5.1 (579679a)
C           -2.99942781995897        3.37872008967042       -0.80288557259716
O           -2.49874581142442        2.07527152379839       -0.58720143099069
C           -3.45928798281842        1.15402900109658       -0.10543364946284
O           -4.61668726205259        1.57217520925401        0.11141586612935
C           -2.97906255177406       -0.15652699409127        0.06145843540426
C           -3.72113705955031       -1.21304549708125        0.65303605281950
O           -5.08513930257988       -1.09650227257275        0.85535383002217
C           -3.12991511240064       -2.40607544236652        1.09331695809350
O           -3.80275033910332       -3.35346485937288        1.60746739637446
N           -1.72856270645568       -2.49520299151399        0.98707396665862
C           -1.06121704037679       -1.61827851001719        0.31765171839820
C            0.45019852632704       -1.87354582869680        0.24231278691305
C            0.91873376621512       -2.39905888268536        1.61454250963221
C            0.71136714426204       -2.94982509529586       -0.82488254145889
N            1.14207027704807       -0.62516582524811       -0.07128726570138
C            2.54905394381296       -0.57351392191701       -0.09346363275288
O            3.26694806730381       -1.56866752822618       -0.33865662600929
C            3.02041004766817        0.75204875096173        0.13292050419959
N            2.26573631143991        1.82197929323503        0.41941058659772
N            3.12822677634127        2.87107498657886        0.58347823292545
C            4.32557823771966        2.42066547390591        0.40044731835964
C            5.59175721637339        3.19176895435968        0.48270636841911
O            4.36049807840900        1.09611640136768        0.11252691235495
N           -1.60947898378604       -0.49444837994249       -0.26393940514555
C           -1.13500758170674       -0.04651878226462       -1.57888611655910
H           -3.36444964915873        3.82823100780276        0.12984494564371
H           -3.82280942593174        3.37595516424903       -1.52857615801929
H           -2.18114127692760        3.98468558439447       -1.19572881188536
H           -5.35673519977585       -1.93960544735686        1.26230499523086
H            1.97939242540992       -2.64343804940086        1.58052273084388
H            0.35629465479842       -3.29492303425628        1.87572406239289
H            0.75257900377564       -1.64384419034670        2.38279771822814
H            1.73599257825906       -3.31229290704481       -0.76754201987950
H            0.03267120791360       -3.78600765317980       -0.65677965420839
H            0.54092700533951       -2.55659831214175       -1.82597237390182
H            0.74772062835958        0.17133827263883        0.42392330338007
H            6.19047587671635        2.85502217875375        1.33009873331906
H            6.18239437392530        3.05174162597029       -0.42240537105495
H            5.36533761796718        4.24841135852830        0.60592039080228
H           -0.50892616816727       -0.81036380546838       -2.03697496598698
H           -1.99629831590910        0.13146458756187       -2.22593749813804
H           -0.55758517552435        0.87621474636385       -1.49814022939539

          :  Hamiltonian                  GFN1-xTB          :
         :: total energy             -83.583559511311 Eh    ::
         :: gradient norm              0.000794069643 Eh/a0 ::
         :: HOMO-LUMO gap              0.037564970501 eV    ::
         :: SCC energy               -84.306353450332 Eh    ::
         :: -> Gsolv                  -0.261708746723 Eh    ::
         :: repulsion energy           0.749721700995 Eh    ::

    * Orbital Energies and Occupations

         #    Occupation            Energy/Eh            Energy/eV
      -------------------------------------------------------------
         1        2.0000           -0.7982406             -21.7212
       ...           ...                  ...                  ...
        56        2.0000           -0.4346513             -11.8275
        57        2.0000           -0.4297406             -11.6938
        58        2.0000           -0.4271393             -11.6231
        59        2.0000           -0.4061988             -11.0532
        60        2.0000           -0.4023411             -10.9483
        61        2.0000           -0.3999136             -10.8822
        62        2.0000           -0.3985793             -10.8459
        63        2.0000           -0.3948601             -10.7447
        64        2.0000           -0.3909359             -10.6379
        65        2.0000           -0.3837927             -10.4435
        66        2.0000           -0.3555222              -9.6743
        67        2.0000           -0.3506444              -9.5415
        68        1.3481           -0.2667306              -7.2581 (HOMO)
        69        0.6519           -0.2653501              -7.2205 (LUMO)
        70                         -0.2223463              -6.0504
        71                         -0.2079296              -5.6581
        72                         -0.1541487              -4.1946
        73                         -0.1380634              -3.7569
        74                         -0.1237759              -3.3681
        75                         -0.1099327              -2.9914
        76                         -0.1062860              -2.8922
        77                         -0.0955503              -2.6001
        78                         -0.0907038              -2.4682
        79                         -0.0802580              -2.1839
       ...                                ...                  ...
       134                          0.7068295              19.2338
      -------------------------------------------------------------
                  HL-Gap            0.0013805 Eh            0.0376 eV

Wiberg/Mayer (AO) data.
largest (>0.10) Wiberg bond orders for each atom

     #   Z sym  total        # sym  WBO       # sym  WBO       # sym  WBO
 ---------------------------------------------------------------------------
     1   6 C    3.917 --    28 H    0.987    26 H    0.980    27 H    0.980
                             2 O    0.949
     2   8 O    2.053 --     1 C    0.949     3 C    0.919
     3   6 C    3.754 --     4 O    1.438     5 C    1.299     2 O    0.919
     4   8 O    1.683 --     3 C    1.438
     5   6 C    3.738 --     3 C    1.299     6 C    1.238    24 N    0.958
     6   6 C    3.737 --     8 C    1.289     5 C    1.238     7 O    1.003
     7   8 O    1.957 --     6 C    1.003    29 H    0.844
     8   6 C    3.818 --     9 O    1.368     6 C    1.289    10 N    1.049
     9   8 O    1.621 --     8 C    1.368
    10   7 N    2.989 --    11 C    1.617     8 C    1.049    24 N    0.116
    11   6 C    3.918 --    10 N    1.617    24 N    1.155    12 C    0.968
    12   6 C    3.950 --    14 C    0.986    13 C    0.983    11 C    0.968
                            15 N    0.949
    13   6 C    3.991 --    32 H    0.987    30 H    0.984    31 H    0.983
                            12 C    0.983
    14   6 C    3.993 --    34 H    0.987    12 C    0.986    35 H    0.980
                            33 H    0.980
    15   7 N    3.142 --    16 C    1.066    12 C    0.949    36 H    0.920
                            17 O    0.104
    16   6 C    3.743 --    17 O    1.441    18 C    1.167    15 N    1.066
    17   8 O    1.680 --    16 C    1.441    15 N    0.104
    18   6 C    3.690 --    19 N    1.379    16 C    1.167    23 O    0.972
    19   7 N    2.734 --    18 C    1.379    20 N    1.185
    20   7 N    2.981 --    21 C    1.629    19 N    1.185
    21   6 C    3.818 --    20 N    1.629    23 O    1.047    22 C    1.023
    22   6 C    3.994 --    21 C    1.023    39 H    0.986    38 H    0.974
                            37 H    0.970
    23   8 O    2.176 --    21 C    1.047    18 C    0.972
    24   7 N    3.276 --    11 C    1.155     5 C    0.958    25 C    0.941
                            10 N    0.116
    25   6 C    3.955 --    42 H    0.983    41 H    0.983    40 H    0.980
                            24 N    0.941
    26   1 H    1.021 --     1 C    0.980
    27   1 H    1.020 --     1 C    0.980
    28   1 H    1.019 --     1 C    0.987
    29   1 H    0.899 --     7 O    0.844
    30   1 H    1.013 --    13 C    0.984
    31   1 H    1.026 --    13 C    0.983
    32   1 H    1.009 --    13 C    0.987
    33   1 H    1.025 --    14 C    0.980
    34   1 H    1.013 --    14 C    0.987
    35   1 H    1.012 --    14 C    0.980
    36   1 H    0.985 --    15 N    0.920
    37   1 H    1.001 --    22 C    0.970
    38   1 H    1.001 --    22 C    0.974
    39   1 H    1.005 --    22 C    0.986
    40   1 H    1.019 --    25 C    0.980
    41   1 H    1.016 --    25 C    0.983
    42   1 H    1.032 --    25 C    0.983
 ---------------------------------------------------------------------------

           -------------------------------------------------
          | TOTAL ENERGY              -83.583559511311 Eh   |
          | GRADIENT NORM               0.000794069643 Eh/α |
          | HOMO-LUMO GAP               0.037564970501 eV   |
           -------------------------------------------------

 * finished run on 2023/06/20 at 17:41:19.243
