   * xtb version 6.5.1 (579679a) compiled by 'ehlert@majestix' on 2022-07-11
          program call               : /lustre/hpc/kemi/ree/PhD/git/ReactivityQM/dep/xtb-6.5.1/bin/xtb --gfn 1 /lustre/hpc/kemi/ree/PhD/git/ReactivityQM/calculations/R02methylcation/reac01prodN07/conf09/R02methylcation_reac01prodN07_conf09_gfn1.xyz --opt --vfukui --chrg 0 --uhf 0 --alpb DMSO

   ID    Z sym.   atoms
    1    6 C      1, 3, 5, 7-10, 12, 14, 17-19, 22, 24
    2    8 O      2, 4, 13, 20, 23, 25
    3    7 N      6, 11, 15, 16, 21
    4    1 H      26-42

      * Solvation model:               ALPB
        Solvent                        DMSO
        Solvent mass                       7.8130E+01 g/mol
          :  Hamiltonian                  GFN1-xTB          :
 * total energy  :   -82.9529188 Eh     change       -0.4050094E-11 Eh
 * total energy  :   -82.9696203 Eh     change       -0.1670146E-01 Eh
 * total energy  :   -82.9762568 Eh     change       -0.6636499E-02 Eh
 * total energy  :   -82.9771710 Eh     change       -0.9141875E-03 Eh
 * total energy  :   -82.9777224 Eh     change       -0.5513884E-03 Eh
 * total energy  :   -82.9779339 Eh     change       -0.2114815E-03 Eh
 * total energy  :   -82.9781890 Eh     change       -0.2551706E-03 Eh
 * total energy  :   -82.9783810 Eh     change       -0.1919801E-03 Eh
 * total energy  :   -82.9785247 Eh     change       -0.1436918E-03 Eh
 * total energy  :   -82.9786492 Eh     change       -0.1245370E-03 Eh
 * total energy  :   -82.9793905 Eh     change       -0.9744361E-05 Eh
 * total energy  :   -82.9794042 Eh     change       -0.1372129E-04 Eh
 * total energy  :   -82.9794092 Eh     change       -0.5004392E-05 Eh
 * total energy  :   -82.9794210 Eh     change       -0.1172549E-04 Eh
 * total energy  :   -82.9794261 Eh     change       -0.5104518E-05 Eh
 * total energy  :   -82.9794388 Eh     change       -0.1273756E-04 Eh
 * total energy  :   -82.9794445 Eh     change       -0.5730251E-05 Eh
 * total energy  :   -82.9794518 Eh     change       -0.7306338E-05 Eh
 * total energy  :   -82.9794550 Eh     change       -0.3177606E-05 Eh
   *** GEOMETRY OPTIMIZATION CONVERGED AFTER 30 ITERATIONS ***

 final structure:
================
42
 xtb: 6.5.1 (579679a)
C            6.72794948631994       -0.05758378129454        2.26616125177409
O            5.63432089318473        0.55396880807099        1.59488547648514
C            4.68170959471253       -0.28854020001680        1.12682307565986
O            4.78514413611426       -1.49929592732080        1.28470782576152
C            3.57239652958417        0.36432379746197        0.44496767765199
N            2.62962783658116       -0.53596540242023       -0.01520646176457
C            1.58835708194115       -0.13266672058297       -0.63776430332630
C            0.58320262162274       -1.12662811574363       -1.17766089740374
C            0.80306171334070       -2.49501399999528       -0.52841328775234
C            0.71037529183776       -1.20408749350773       -2.70540774513621
N           -0.76504199077352       -0.62715910432784       -0.82487714165399
C           -1.89438608037093       -1.23672498022573       -1.18811504318902
O           -2.01334451365743       -2.26003248633991       -1.83209056409062
C           -3.12018540373232       -0.50292286051131       -0.70759109323769
N           -4.35869729374318       -0.84913016090948       -0.88908291702584
N           -5.08024174015125        0.11470106484350       -0.28832727932935
C           -6.52694242061728        0.05008752410527       -0.28837877354812
C           -4.27964705680890        1.01665830425262        0.23975199284818
C           -4.62520404689313        2.23098742414443        0.99501196991803
O           -3.03867641377602        0.64950365977664       -0.01077432487931
N            1.36342145884154        1.20703063058582       -0.89923927951280
C            2.20625800820654        2.21165398425469       -0.48649907778728
O            1.92640051879793        3.37906487146646       -0.73962941469119
C            3.44588433959768        1.76662445768929        0.26034788243243
O            4.24483968292331        2.63567866947776        0.64968486092566
H            7.26258015912557       -0.73801163458727        1.59583700966228
H            6.37987958616669       -0.62191108699130        3.13686094099188
H            7.39364661730611        0.74297320338113        2.58720144628062
H            0.63221045562306       -2.42666514871882        0.54471594025860
H            1.83273087579303       -2.80703332732640       -0.70029428462965
H            0.12660592627965       -3.23292158655855       -0.95392558469991
H            0.01558076575707       -1.93526445750537       -3.11293046128615
H            0.49977993143244       -0.23143089473645       -3.14599372330349
H            1.72683520334095       -1.49955807175106       -2.96334351913632
H           -0.83101984658951        0.20184822220945       -0.25801248831994
H           -6.82316020351000       -0.80111865098862       -0.89585455240763
H           -6.92143853560217        0.97516193384517       -0.70449250372524
H           -6.87560834166661       -0.07128953699624        0.73576491447734
H           -4.97632212094145        1.95441594774170        1.99188143756616
H           -5.43085154414882        2.76717597019912        0.49345569473293
H           -3.74724655734302        2.86796539933903        1.08851726080410
H            0.53521739589669        1.49113275650811       -1.39074193639483

          :  Hamiltonian                  GFN1-xTB          :
         :: total energy             -82.979455008186 Eh    ::
         :: gradient norm              0.000606793317 Eh/a0 ::
         :: HOMO-LUMO gap              0.426754222155 eV    ::
         :: SCC energy               -83.768415297260 Eh    ::
         :: -> Gsolv                  -0.130960848084 Eh    ::
         :: repulsion energy           0.813852491005 Eh    ::

    * Orbital Energies and Occupations

         #    Occupation            Energy/Eh            Energy/eV
      -------------------------------------------------------------
         1        2.0000           -0.9358644             -25.4662
       ...           ...                  ...                  ...
        55        2.0000           -0.5054626             -13.7543
        56        2.0000           -0.5017166             -13.6524
        57        2.0000           -0.4967324             -13.5168
        58        2.0000           -0.4892452             -13.3130
        59        2.0000           -0.4794320             -13.0460
        60        2.0000           -0.4665986             -12.6968
        61        2.0000           -0.4658265             -12.6758
        62        2.0000           -0.4603488             -12.5267
        63        2.0000           -0.4448337             -12.1045
        64        2.0000           -0.4389279             -11.9438
        65        2.0000           -0.4221186             -11.4864
        66        2.0000           -0.3828355             -10.4175
        67        1.9995           -0.3703276             -10.0771 (HOMO)
        68        0.0005           -0.3546446              -9.6504 (LUMO)
        69                         -0.3415806              -9.2949
        70                         -0.2737079              -7.4480
        71                         -0.2457557              -6.6874
        72                         -0.2359179              -6.4197
        73                         -0.2004862              -5.4555
        74                         -0.1833418              -4.9890
        75                         -0.1705067              -4.6397
        76                         -0.1250176              -3.4019
        77                         -0.1234297              -3.3587
        78                         -0.1231065              -3.3499
       ...                                ...                  ...
       134                          0.7551036              20.5474
      -------------------------------------------------------------
                  HL-Gap            0.0156829 Eh            0.4268 eV

Wiberg/Mayer (AO) data.
largest (>0.10) Wiberg bond orders for each atom

     #   Z sym  total        # sym  WBO       # sym  WBO       # sym  WBO
 ---------------------------------------------------------------------------
     1   6 C    3.897 --    28 H    0.987    27 H    0.981    26 H    0.980
                             2 O    0.923
     2   8 O    2.163 --     3 C    1.053     1 C    0.923     4 O    0.111
     3   6 C    3.851 --     4 O    1.578     5 C    1.109     2 O    1.053
     4   8 O    1.852 --     3 C    1.578     2 O    0.111
     5   6 C    3.913 --    24 C    1.269     6 N    1.156     3 C    1.109
                            25 O    0.130
     6   7 N    3.034 --     7 C    1.637     5 C    1.156
     7   6 C    3.933 --     6 N    1.637    21 N    1.085     8 C    0.979
     8   6 C    3.914 --     9 C    0.993    10 C    0.982     7 C    0.979
                            11 N    0.893
     9   6 C    3.989 --     8 C    0.993    29 H    0.985    31 H    0.984
                            30 H    0.981
    10   6 C    3.987 --    33 H    0.985    34 H    0.984     8 C    0.982
                            32 H    0.981
    11   7 N    3.392 --    12 C    1.311     8 C    0.893    35 H    0.891
                            13 O    0.202
    12   6 C    3.927 --    13 O    1.593    11 N    1.311    14 C    0.952
    13   8 O    1.925 --    12 C    1.593    11 N    0.202
    14   6 C    3.835 --    15 N    1.616    20 O    1.052    12 C    0.952
    15   7 N    2.982 --    14 C    1.616    16 N    1.150
    16   7 N    3.631 --    18 C    1.426    15 N    1.150    17 C    0.910
    17   6 C    3.886 --    36 H    0.978    37 H    0.970    38 H    0.968
                            16 N    0.910
    18   6 C    3.842 --    16 N    1.426    20 O    1.147    19 C    1.042
    19   6 C    3.961 --    18 C    1.042    41 H    0.970    40 H    0.955
                            39 H    0.937
    20   8 O    2.375 --    18 C    1.147    14 C    1.052
    21   7 N    3.416 --    22 C    1.151     7 C    1.085    42 H    0.897
                            23 O    0.135
    22   6 C    3.875 --    23 O    1.588    21 N    1.151    24 C    0.965
    23   8 O    1.868 --    22 C    1.588    21 N    0.135
    24   6 C    3.943 --    25 O    1.527     5 C    1.269    22 C    0.965
    25   8 O    1.832 --    24 C    1.527     5 C    0.130
    26   1 H    1.013 --     1 C    0.980
    27   1 H    1.014 --     1 C    0.981
    28   1 H    1.015 --     1 C    0.987
    29   1 H    1.006 --     9 C    0.985
    30   1 H    1.014 --     9 C    0.981
    31   1 H    1.007 --     9 C    0.984
    32   1 H    1.007 --    10 C    0.981
    33   1 H    1.002 --    10 C    0.985
    34   1 H    1.002 --    10 C    0.984
    35   1 H    0.934 --    11 N    0.891
    36   1 H    0.993 --    17 C    0.978
    37   1 H    0.990 --    17 C    0.970
    38   1 H    0.990 --    17 C    0.968
    39   1 H    0.985 --    19 C    0.937
    40   1 H    0.987 --    19 C    0.955
    41   1 H    0.985 --    19 C    0.970
    42   1 H    0.943 --    21 N    0.897
 ---------------------------------------------------------------------------

           -------------------------------------------------
          | TOTAL ENERGY              -82.979455008186 Eh   |
          | GRADIENT NORM               0.000606793317 Eh/α |
          | HOMO-LUMO GAP               0.426754222155 eV   |
           -------------------------------------------------

 * finished run on 2023/06/21 at 17:38:17.728
