   * xtb version 6.5.1 (579679a) compiled by 'ehlert@majestix' on 2022-07-11
          program call               : /lustre/hpc/kemi/ree/PhD/git/ReactivityQM/dep/xtb-6.5.1/bin/xtb --gfn 1 /lustre/hpc/kemi/ree/PhD/git/ReactivityQM/calculations/R02oxygendeprot/reac01prodN17/conf05/R02oxygendeprot_reac01prodN17_conf05_gfn1.xyz --opt --vfukui --chrg 0 --uhf 0 --alpb DMSO

   ID    Z sym.   atoms
    1    6 C      1, 3, 5, 7-10, 12, 13, 15, 18, 19, 22, 24
    2    8 O      2, 4, 14, 20, 23, 25
    3    7 N      6, 11, 16, 17, 21
    4    1 H      26-42

      * Solvation model:               ALPB
        Solvent                        DMSO
        Solvent mass                       7.8130E+01 g/mol
          :  Hamiltonian                  GFN1-xTB          :
 * total energy  :   -82.9328302 Eh     change       -0.6167511E-11 Eh
 * total energy  :   -82.9458664 Eh     change       -0.1303627E-01 Eh
 * total energy  :   -82.9502132 Eh     change       -0.4346773E-02 Eh
 * total energy  :   -82.9510110 Eh     change       -0.7977593E-03 Eh
 * total energy  :   -82.9516037 Eh     change       -0.5927655E-03 Eh
 * total energy  :   -82.9519821 Eh     change       -0.3783619E-03 Eh
 * total energy  :   -82.9523241 Eh     change       -0.3419914E-03 Eh
 * total energy  :   -82.9525912 Eh     change       -0.2670904E-03 Eh
 * total energy  :   -82.9527787 Eh     change       -0.1874802E-03 Eh
 * total energy  :   -82.9529280 Eh     change       -0.1493312E-03 Eh
 * total energy  :   -82.9557753 Eh     change       -0.6824728E-04 Eh
 * total energy  :   -82.9558290 Eh     change       -0.5372173E-04 Eh
 * total energy  :   -82.9558529 Eh     change       -0.2389786E-04 Eh
 * total energy  :   -82.9559025 Eh     change       -0.4954739E-04 Eh
 * total energy  :   -82.9559224 Eh     change       -0.1991463E-04 Eh
 * total energy  :   -82.9559363 Eh     change       -0.1388375E-04 Eh
 * total energy  :   -82.9559453 Eh     change       -0.9049289E-05 Eh
 * total energy  :   -82.9559511 Eh     change       -0.5760625E-05 Eh
 * total energy  :   -82.9559548 Eh     change       -0.3685657E-05 Eh
   *** GEOMETRY OPTIMIZATION CONVERGED AFTER 37 ITERATIONS ***

 final structure:
================
42
 xtb: 6.5.1 (579679a)
C            5.87910607289022        2.27531512636838        0.98804268109793
O            4.86103665114199        1.96867397081299        0.04046548829886
C            3.87805231264031        1.15511332236973        0.47091527233395
O            3.87223442214631        0.70594120629009        1.60750570590204
C            2.83818222370336        0.87707551898646       -0.52213630860432
N            1.89730707490699       -0.00460270698640       -0.06090590956273
C            0.88971028127576       -0.35227895944130       -0.78482744301613
C           -0.10325011186926       -1.32664992772265       -0.20935999100908
C           -0.99825747882625       -1.97034099258904       -1.26102539545029
C            0.61617003383103       -2.38045908386260        0.62488947477398
N           -1.04444779192407       -0.48040665564433        0.71175370798802
C           -0.36842565236746        0.09233702250637        1.90744245559505
C           -2.23237260766291       -1.26867648921713        1.16923269494153
O           -2.10659910861963       -2.10940863087143        2.01342931984683
C           -3.45179179049803       -0.86985598198863        0.51424905344727
N           -4.66113095739781       -1.32035971903556        0.72970640675740
N           -5.48271229813155       -0.64091730486948       -0.08615972725788
C           -4.74729170889068        0.19646804189947       -0.76782202838643
C           -5.19301856184211        1.15765734412350       -1.79304577682945
O           -3.45482426892203        0.09969906934964       -0.43222295866323
N            0.69678594570359        0.16871531072275       -2.04578826200446
C            1.56913545725223        1.05046759865232       -2.64749426502577
O            1.33444767240997        1.45696123956970       -3.77635035368858
C            2.77373775659920        1.45503893279486       -1.82276967892089
O            3.59061615455941        2.24516300871673       -2.31159252856813
H            5.44944065574795        2.76823310146561        1.86490008632481
H            6.39136388946077        1.36347410435624        1.30886814182230
H            6.58299813174122        2.94307951621302        0.49297862891775
H           -1.65339427850397       -1.23501196860747       -1.72351438480814
H           -1.61247058506278       -2.74850485060495       -0.81090001600741
H           -0.37515157887838       -2.42422618583223       -2.03016634506880
H            1.32643154830174       -1.91304249995249        1.30543655232405
H            1.16774825709659       -3.02751028944358       -0.05630481975230
H           -0.08790263379899       -2.98737433355383        1.18812643022838
H           -1.38416793861268        0.28719696195592        0.13090116565495
H           -0.23307566422758       -0.69440364733299        2.64486069562199
H           -1.01177986199269        0.87401987013833        2.30183630025863
H            0.59326733854883        0.49995619705904        1.59711728942046
H           -4.79557634507006        0.86823718484236       -2.76649904518239
H           -4.81371310590255        2.15213364290683       -1.55928730928880
H           -6.27952579283900        1.17256194816408       -1.83535943521023
H           -0.11688975811646       -0.07949001270586       -2.57999656923754

          :  Hamiltonian                  GFN1-xTB          :
         :: total energy             -82.955954782777 Eh    ::
         :: gradient norm              0.000520225043 Eh/a0 ::
         :: HOMO-LUMO gap              0.379545693118 eV    ::
         :: SCC energy               -83.729975303307 Eh    ::
         :: -> Gsolv                  -0.093267404220 Eh    ::
         :: repulsion energy           0.801852322629 Eh    ::

    * Orbital Energies and Occupations

         #    Occupation            Energy/Eh            Energy/eV
      -------------------------------------------------------------
         1        2.0000           -0.8957735             -24.3752
       ...           ...                  ...                  ...
        55        2.0000           -0.5138379             -13.9822
        56        2.0000           -0.5083094             -13.8318
        57        2.0000           -0.5031232             -13.6907
        58        2.0000           -0.4964459             -13.5090
        59        2.0000           -0.4839375             -13.1686
        60        2.0000           -0.4794311             -13.0460
        61        2.0000           -0.4754268             -12.9370
        62        2.0000           -0.4748108             -12.9203
        63        2.0000           -0.4603821             -12.5276
        64        2.0000           -0.4512289             -12.2786
        65        2.0000           -0.4391039             -11.9486
        66        2.0000           -0.3969773             -10.8023
        67        1.9987           -0.3858343             -10.4991 (HOMO)
        68        0.0013           -0.3718862             -10.1195 (LUMO)
        69                         -0.2855305              -7.7697
        70                         -0.2835554              -7.7159
        71                         -0.2705933              -7.3632
        72                         -0.2461494              -6.6981
        73                         -0.2121751              -5.7736
        74                         -0.1564521              -4.2573
        75                         -0.1518530              -4.1321
        76                         -0.1452637              -3.9528
        77                         -0.1412323              -3.8431
        78                         -0.1304920              -3.5509
       ...                                ...                  ...
       134                          0.7544761              20.5303
      -------------------------------------------------------------
                  HL-Gap            0.0139480 Eh            0.3795 eV

Wiberg/Mayer (AO) data.
largest (>0.10) Wiberg bond orders for each atom

     #   Z sym  total        # sym  WBO       # sym  WBO       # sym  WBO
 ---------------------------------------------------------------------------
     1   6 C    3.890 --    28 H    0.987    27 H    0.980    26 H    0.980
                             2 O    0.915
     2   8 O    2.176 --     3 C    1.074     1 C    0.915     4 O    0.117
     3   6 C    3.849 --     4 O    1.594     5 C    1.080     2 O    1.074
     4   8 O    1.862 --     3 C    1.594     2 O    0.117
     5   6 C    3.873 --    24 C    1.237     6 N    1.202     3 C    1.080
                            25 O    0.112
     6   7 N    3.055 --     7 C    1.569     5 C    1.202
     7   6 C    3.926 --     6 N    1.569    21 N    1.105     8 C    0.994
     8   6 C    3.880 --     9 C    1.007    10 C    1.004     7 C    0.994
                            11 N    0.794
     9   6 C    3.988 --     8 C    1.007    29 H    0.979    30 H    0.978
                            31 H    0.976
    10   6 C    3.983 --     8 C    1.004    34 H    0.979    32 H    0.977
                            33 H    0.977
    11   7 N    3.594 --    12 C    0.897    35 H    0.888    13 C    0.880
                             8 C    0.794
    12   6 C    3.881 --    37 H    0.982    36 H    0.982    38 H    0.965
                            11 N    0.897
    13   6 C    3.848 --    14 O    1.736    15 C    1.091    11 N    0.880
    14   8 O    2.006 --    13 C    1.736
    15   6 C    3.877 --    16 N    1.532    13 C    1.091    20 O    1.031
    16   7 N    2.982 --    15 C    1.532    17 N    1.264
    17   7 N    2.987 --    18 C    1.543    16 N    1.264
    18   6 C    3.842 --    17 N    1.543    20 O    1.086    19 C    1.040
    19   6 C    3.979 --    18 C    1.040    41 H    0.980    40 H    0.959
                            39 H    0.951
    20   8 O    2.323 --    18 C    1.086    15 C    1.031
    21   7 N    3.420 --    22 C    1.140     7 C    1.105    42 H    0.890
                            23 O    0.133
    22   6 C    3.869 --    23 O    1.608    21 N    1.140    24 C    0.959
    23   8 O    1.879 --    22 C    1.608    21 N    0.133
    24   6 C    3.928 --    25 O    1.558     5 C    1.237    22 C    0.959
    25   8 O    1.835 --    24 C    1.558     5 C    0.112
    26   1 H    1.011 --     1 C    0.980
    27   1 H    1.011 --     1 C    0.980
    28   1 H    1.014 --     1 C    0.987
    29   1 H    0.999 --     9 C    0.979
    30   1 H    0.997 --     9 C    0.978
    31   1 H    0.995 --     9 C    0.976
    32   1 H    1.012 --    10 C    0.977
    33   1 H    0.999 --    10 C    0.977
    34   1 H    1.003 --    10 C    0.979
    35   1 H    0.938 --    11 N    0.888
    36   1 H    0.999 --    12 C    0.982
    37   1 H    0.992 --    12 C    0.982
    38   1 H    1.014 --    12 C    0.965
    39   1 H    0.991 --    19 C    0.951
    40   1 H    0.992 --    19 C    0.959
    41   1 H    0.995 --    19 C    0.980
    42   1 H    0.938 --    21 N    0.890
 ---------------------------------------------------------------------------

           -------------------------------------------------
          | TOTAL ENERGY              -82.955954782777 Eh   |
          | GRADIENT NORM               0.000520225043 Eh/α |
          | HOMO-LUMO GAP               0.379545693118 eV   |
           -------------------------------------------------

 * finished run on 2023/06/21 at 17:37:49.927
