   * xtb version 6.5.1 (579679a) compiled by 'ehlert@majestix' on 2022-07-11
          program call               : /lustre/hpc/kemi/ree/PhD/git/ReactivityQM/dep/xtb-6.5.1/bin/xtb --gfn 1 /lustre/hpc/kemi/ree/PhD/git/ReactivityQM/calculations/R02deprot/reac01prodE14/conf18/R02deprot_reac01prodE14_conf18_gfn1.xyz --opt --vfukui --chrg -2 --uhf 0 --alpb DMSO

   ID    Z sym.   atoms
    1    6 C      1, 3, 5, 7-10, 12, 14, 17, 18, 21, 23, 24
    2    8 O      2, 4, 13, 19, 22, 25
    3    7 N      6, 11, 15, 16, 20
    4    1 H      26-42

      * Solvation model:               ALPB
        Solvent                        DMSO
        Solvent mass                       7.8130E+01 g/mol
          :  Hamiltonian                  GFN1-xTB          :
 * total energy  :   -83.5864511 Eh     change       -0.2401634E-11 Eh
 * total energy  :   -83.6094356 Eh     change       -0.2298453E-01 Eh
 * total energy  :   -83.6208461 Eh     change       -0.1141044E-01 Eh
 * total energy  :   -83.6238855 Eh     change       -0.3039404E-02 Eh
 * total energy  :   -83.6260423 Eh     change       -0.2156818E-02 Eh
 * total energy  :   -83.6270329 Eh     change       -0.9906385E-03 Eh
 * total energy  :   -83.6278372 Eh     change       -0.8042741E-03 Eh
 * total energy  :   -83.6284406 Eh     change       -0.6033720E-03 Eh
 * total energy  :   -83.6287089 Eh     change       -0.2683792E-03 Eh
 * total energy  :   -83.6291349 Eh     change       -0.4259161E-03 Eh
 * total energy  :   -83.6304137 Eh     change       -0.1467627E-04 Eh
 * total energy  :   -83.6304273 Eh     change       -0.1359682E-04 Eh
 * total energy  :   -83.6304190 Eh     change        0.8295860E-05 Eh
 * total energy  :   -83.6304472 Eh     change       -0.2817205E-04 Eh
 * total energy  :   -83.6304592 Eh     change       -0.1197867E-04 Eh
 * total energy  :   -83.6304755 Eh     change       -0.1636593E-04 Eh
 * total energy  :   -83.6304677 Eh     change        0.7840083E-05 Eh
 * total energy  :   -83.6304866 Eh     change       -0.1887474E-04 Eh
 * total energy  :   -83.6304902 Eh     change       -0.3666925E-05 Eh
   *** GEOMETRY OPTIMIZATION CONVERGED AFTER 38 ITERATIONS ***

 final structure:
================
42
 xtb: 6.5.1 (579679a)
C           -3.79442242669444        0.13553173234154        3.51613581783801
O           -3.66636296808463        0.21867953493959        2.11408026662824
C           -2.36330124332038       -0.04757647909481        1.62227951222233
O           -1.48505391363348       -0.34882624504453        2.46332137873703
C           -2.21065179389196        0.03635204326678        0.23902554140309
N           -0.90705634317996       -0.19627266939837       -0.21338181234739
C           -0.69328094743474       -0.33881696858078       -1.48068551900660
C            0.74688070312255       -0.54418818140907       -1.94855761723231
C            1.10623304503375        0.51761216512269       -2.99736815738351
C            0.89810439485266       -1.95314641169553       -2.54202465428861
N            1.59595674167673       -0.40246510546376       -0.76761927271878
C            2.92738109162650       -0.47474049960202       -0.75075563698795
O            3.65263502768240       -0.68125677954841       -1.72275144012283
C            3.46451589670196       -0.27318837555438        0.62262573521535
N            2.76582957716687       -0.11476234407829        1.70913421541106
N            3.65677010840178        0.03756220827631        2.73357879271478
C            4.83818658975462       -0.03591560693888        2.20942992051392
C            6.13964302694638        0.08040095475821        2.90509536255588
O            4.79213794055727       -0.23283286793373        0.88092936271018
N           -1.62690779809432       -0.46350749719982       -2.46801512824156
C           -2.89889929225226       -0.23605628921603       -2.15787827225095
O           -3.84641724803575       -0.54353752874815       -2.91805261959954
C           -3.21945566528021        0.47801747247152       -0.79376382437013
C           -4.68940486709757        0.23069934314474       -0.43812441467437
O           -3.11190602354157        1.92204674117172       -1.02373781867010
H           -3.15719844864958        0.87253621928576        4.02352365083014
H           -3.52734140008252       -0.86278004354662        3.88840844947358
H           -4.83813886878775        0.33907003445421        3.76422861473014
H            0.35466411890719        0.49466437737153       -3.78724485497956
H            2.08651900947170        0.32660586370743       -3.43197249095980
H            1.10957418336264        1.50742438583585       -2.54151965379358
H            1.89934653898049       -2.10395019983068       -2.94374594115641
H            0.70743905421558       -2.70464778747413       -1.77544358030380
H            0.16843164892295       -2.07354149560451       -3.34347539450319
H            1.07835320406900       -0.22257500237374        0.09874458387485
H            5.97430988470166        0.15466651707917        3.97687298611553
H            6.76042484136973       -0.78847104593780        2.69030505173478
H            6.67121094204268        0.96716714006672        2.56006624658524
H           -5.02957373813631        0.94564646845165        0.30935210275343
H           -5.30798759400968        0.35514156404730       -1.32976830507282
H           -4.82684127490477       -0.78116533771560       -0.05801037384286
H           -2.19434471445854        2.18825199619474       -0.89323780953481

          :  Hamiltonian                  GFN1-xTB          :
         :: total energy             -83.630490219747 Eh    ::
         :: gradient norm              0.000729925825 Eh/a0 ::
         :: HOMO-LUMO gap              0.174096268152 eV    ::
         :: SCC energy               -84.364099070116 Eh    ::
         :: -> Gsolv                  -0.281609374958 Eh    ::
         :: repulsion energy           0.759553698410 Eh    ::

    * Orbital Energies and Occupations

         #    Occupation            Energy/Eh            Energy/eV
      -------------------------------------------------------------
         1        2.0000           -0.8427092             -22.9313
       ...           ...                  ...                  ...
        56        2.0000           -0.4383908             -11.9292
        57        2.0000           -0.4348397             -11.8326
        58        2.0000           -0.4269896             -11.6190
        59        2.0000           -0.4251297             -11.5684
        60        2.0000           -0.4214756             -11.4689
        61        2.0000           -0.4180554             -11.3759
        62        2.0000           -0.4089307             -11.1276
        63        2.0000           -0.3911278             -10.6431
        64        2.0000           -0.3806172             -10.3571
        65        2.0000           -0.3562986              -9.6954
        66        2.0000           -0.3521270              -9.5819
        67        2.0000           -0.3235768              -8.8050
        68        1.9333           -0.2899684              -7.8904 (HOMO)
        69        0.0667           -0.2835705              -7.7163 (LUMO)
        70                         -0.2392074              -6.5092
        71                         -0.1985841              -5.4037
        72                         -0.1704884              -4.6392
        73                         -0.1357433              -3.6938
        74                         -0.1316361              -3.5820
        75                         -0.1161330              -3.1601
        76                         -0.1036427              -2.8203
        77                         -0.0932186              -2.5366
        78                         -0.0918075              -2.4982
        79                         -0.0681217              -1.8537
       ...                                ...                  ...
       134                          0.7285568              19.8250
      -------------------------------------------------------------
                  HL-Gap            0.0063979 Eh            0.1741 eV

Wiberg/Mayer (AO) data.
largest (>0.10) Wiberg bond orders for each atom

     #   Z sym  total        # sym  WBO       # sym  WBO       # sym  WBO
 ---------------------------------------------------------------------------
     1   6 C    3.923 --    28 H    0.987    26 H    0.980    27 H    0.980
                             2 O    0.954
     2   8 O    2.064 --     1 C    0.954     3 C    0.910
     3   6 C    3.852 --     4 O    1.429     5 C    1.381     2 O    0.910
     4   8 O    1.731 --     3 C    1.429     5 C    0.124
     5   6 C    3.826 --     3 C    1.381     6 N    1.114    23 C    0.994
                             4 O    0.124
     6   7 N    3.042 --     7 C    1.574     5 C    1.114    20 N    0.106
     7   6 C    3.939 --     6 N    1.574    20 N    1.193     8 C    0.961
     8   6 C    3.918 --     9 C    0.986    10 C    0.984     7 C    0.961
                            11 N    0.917
     9   6 C    3.993 --    31 H    0.987     8 C    0.986    30 H    0.985
                            29 H    0.984
    10   6 C    3.993 --    33 H    0.987    32 H    0.985    34 H    0.984
                             8 C    0.984
    11   7 N    3.382 --    12 C    1.308     8 C    0.917    35 H    0.870
                            13 O    0.185
    12   6 C    3.908 --    13 O    1.531    11 N    1.308    14 C    0.991
    13   8 O    1.842 --    12 C    1.531    11 N    0.185
    14   6 C    3.835 --    15 N    1.598    19 O    1.046    12 C    0.991
    15   7 N    2.974 --    14 C    1.598    16 N    1.187
    16   7 N    2.981 --    17 C    1.622    15 N    1.187
    17   6 C    3.868 --    16 N    1.622    19 O    1.076    18 C    1.028
    18   6 C    3.990 --    17 C    1.028    36 H    0.984    37 H    0.968
                            38 H    0.965
    19   8 O    2.300 --    17 C    1.076    14 C    1.046
    20   7 N    2.939 --    21 C    1.379     7 C    1.193    22 O    0.135
                             6 N    0.106
    21   6 C    3.904 --    22 O    1.472    20 N    1.379    23 C    0.897
    22   8 O    1.762 --    21 C    1.472    20 N    0.135
    23   6 C    3.890 --    24 C    0.998     5 C    0.994    21 C    0.897
                            25 O    0.880
    24   6 C    3.997 --    23 C    0.998    41 H    0.988    39 H    0.986
                            40 H    0.982
    25   8 O    1.859 --    42 H    0.883    23 C    0.880
    26   1 H    1.023 --     1 C    0.980
    27   1 H    1.024 --     1 C    0.980
    28   1 H    1.020 --     1 C    0.987
    29   1 H    1.021 --     9 C    0.984
    30   1 H    1.015 --     9 C    0.985
    31   1 H    1.008 --     9 C    0.987
    32   1 H    1.013 --    10 C    0.985
    33   1 H    1.009 --    10 C    0.987
    34   1 H    1.024 --    10 C    0.984
    35   1 H    0.995 --    11 N    0.870
    36   1 H    1.001 --    18 C    0.984
    37   1 H    0.999 --    18 C    0.968
    38   1 H    0.999 --    18 C    0.965
    39   1 H    1.027 --    24 C    0.986
    40   1 H    1.027 --    24 C    0.982
    41   1 H    1.019 --    24 C    0.988
    42   1 H    0.914 --    25 O    0.883
 ---------------------------------------------------------------------------

           -------------------------------------------------
          | TOTAL ENERGY              -83.630490219747 Eh   |
          | GRADIENT NORM               0.000729925825 Eh/α |
          | HOMO-LUMO GAP               0.174096268152 eV   |
           -------------------------------------------------

 * finished run on 2023/06/20 at 18:04:24.553
