   * xtb version 6.5.1 (579679a) compiled by 'ehlert@majestix' on 2022-07-11
          program call               : /lustre/hpc/kemi/ree/PhD/git/ReactivityQM/dep/xtb-6.5.1/bin/xtb --gfn 1 /lustre/hpc/kemi/ree/PhD/git/ReactivityQM/calculations/R02deprot/reac01prodN16/conf12/R02deprot_reac01prodN16_conf12_gfn1.xyz --opt --vfukui --chrg 0 --uhf 0 --alpb DMSO

   ID    Z sym.   atoms
    1    6 C      1, 3, 5, 7-10, 12, 14, 17, 18, 21, 23, 24
    2    8 O      2, 4, 13, 19, 22, 25
    3    7 N      6, 11, 15, 16, 20
    4    1 H      26-42

      * Solvation model:               ALPB
        Solvent                        DMSO
        Solvent mass                       7.8130E+01 g/mol
          :  Hamiltonian                  GFN1-xTB          :
 * total energy  :   -82.9458558 Eh     change       -0.6878054E-11 Eh
 * total energy  :   -82.9572630 Eh     change       -0.1140722E-01 Eh
 * total energy  :   -82.9615021 Eh     change       -0.4239169E-02 Eh
 * total energy  :   -82.9622491 Eh     change       -0.7469828E-03 Eh
 * total energy  :   -82.9627304 Eh     change       -0.4812862E-03 Eh
 * total energy  :   -82.9630843 Eh     change       -0.3538705E-03 Eh
 * total energy  :   -82.9634455 Eh     change       -0.3611894E-03 Eh
 * total energy  :   -82.9637787 Eh     change       -0.3332031E-03 Eh
 * total energy  :   -82.9640024 Eh     change       -0.2237684E-03 Eh
 * total energy  :   -82.9641685 Eh     change       -0.1660216E-03 Eh
 * total energy  :   -82.9704393 Eh     change       -0.1227853E-04 Eh
 * total energy  :   -82.9704461 Eh     change       -0.6852367E-05 Eh
 * total energy  :   -82.9704521 Eh     change       -0.6016290E-05 Eh
 * total energy  :   -82.9704618 Eh     change       -0.9710405E-05 Eh
 * total energy  :   -82.9704702 Eh     change       -0.8399136E-05 Eh
 * total energy  :   -82.9704776 Eh     change       -0.7356500E-05 Eh
 * total energy  :   -82.9704821 Eh     change       -0.4551527E-05 Eh
 * total energy  :   -82.9704882 Eh     change       -0.6034566E-05 Eh
 * total energy  :   -82.9704928 Eh     change       -0.4589196E-05 Eh
   *** GEOMETRY OPTIMIZATION CONVERGED AFTER 79 ITERATIONS ***

 final structure:
================
42
 xtb: 6.5.1 (579679a)
C           -3.61476276111486        3.36661960884915       -0.83637607066343
O           -3.31416216862706        1.97462603569655       -0.64017787083052
C           -2.07801357297128        1.59120854140647       -0.92564475687669
O           -1.22212517024552        2.30974255079076       -1.36924463437231
C           -1.85355460304254        0.13370468431318       -0.59217977697619
N           -0.66248366571539       -0.19999760363460       -0.27634243979997
C           -0.44989886838176       -1.52335967980604        0.14827738456274
C            0.80370758319233       -1.73573819192739        0.96049398858379
C            1.24764792374720       -3.19912890635180        0.89681745104205
C            0.47786222849370       -1.30971652951295        2.40429244325962
N            1.83272427855379       -0.85383714702396        0.41252099867700
C            3.07992046434604       -0.77592228750013        0.91603196276092
O            3.52489525543379       -1.47137191373223        1.81496993399541
C            3.91026195847060        0.25213557801055        0.23815273305460
N            5.16135594216792        0.51910247985478        0.45191471078391
N            5.50108424548624        1.52436902469088       -0.40243694676426
C            4.43626718959526        1.81072374727628       -1.08493086285676
C            4.28901324223851        2.83512031616978       -2.14128248727778
O            3.39399310894178        1.04153376536727       -0.72903348814295
N           -1.24906938467197       -2.48813040874716       -0.08624838643461
C           -2.44251012087764       -2.24565647399641       -0.79184968750226
O           -2.95684114824326       -3.08332438840324       -1.47918599542881
C           -3.01398070316574       -0.84948601277556       -0.53588249467965
C           -3.58457655484506       -0.80526107323670        0.90099804548029
O           -4.00434861876200       -0.59527408941615       -1.48644270719707
H           -3.44521180845668        3.63724977184029       -1.88004341879722
H           -2.97497392660156        3.97159678697404       -0.19153225507090
H           -4.65986772033880        3.49622610689912       -0.56859360526495
H            2.08880687698251       -3.36824294776487        1.56567717010519
H            1.53984608713664       -3.45405959250947       -0.12086522745069
H            0.41840743848375       -3.83688082078994        1.19829989638362
H           -0.32886160710066       -1.92739636234855        2.79431781901578
H            1.35955992094530       -1.43280987068814        3.03070334855276
H            0.16961455327528       -0.26591027554556        2.41893576292230
H            1.52848113676461       -0.16373342172061       -0.26010698445806
H            5.25239875253653        3.30028953348829       -2.33568088786248
H            3.57573455908679        3.59622943340866       -1.82520885698342
H            3.91070479888037        2.37693497842568       -3.05448320988945
H           -2.81505515953249       -1.06605908740850        1.62396696918572
H           -4.40973264563193       -1.51146084755763        0.97032245920490
H           -3.95229067000313        0.19677600644900        1.10813332660294
H           -4.46996466650409        0.22856898250181       -1.29114135259452

          :  Hamiltonian                  GFN1-xTB          :
         :: total energy             -82.970492764536 Eh    ::
         :: gradient norm              0.000756891795 Eh/a0 ::
         :: HOMO-LUMO gap              1.730529870976 eV    ::
         :: SCC energy               -83.747034651384 Eh    ::
         :: -> Gsolv                  -0.058535283341 Eh    ::
         :: repulsion energy           0.802971203114 Eh    ::

    * Orbital Energies and Occupations

         #    Occupation            Energy/Eh            Energy/eV
      -------------------------------------------------------------
         1        2.0000           -0.8660093             -23.5653
       ...           ...                  ...                  ...
        55        2.0000           -0.5065351             -13.7835
        56        2.0000           -0.5053760             -13.7520
        57        2.0000           -0.5034666             -13.7000
        58        2.0000           -0.5006663             -13.6238
        59        2.0000           -0.4954472             -13.4818
        60        2.0000           -0.4888870             -13.3033
        61        2.0000           -0.4806270             -13.0785
        62        2.0000           -0.4675528             -12.7228
        63        2.0000           -0.4643377             -12.6353
        64        2.0000           -0.4603273             -12.5261
        65        2.0000           -0.4525952             -12.3157
        66        2.0000           -0.4483603             -12.2005
        67        2.0000           -0.4350391             -11.8380 (HOMO)
        68                         -0.3714433             -10.1075 (LUMO)
        69                         -0.3112023              -8.4682
        70                         -0.3081511              -8.3852
        71                         -0.2574293              -7.0050
        72                         -0.2524819              -6.8704
        73                         -0.2358009              -6.4165
        74                         -0.1992140              -5.4209
        75                         -0.1430206              -3.8918
        76                         -0.1411367              -3.8405
        77                         -0.1386892              -3.7739
        78                         -0.1224299              -3.3315
       ...                                ...                  ...
       134                          0.7327583              19.9394
      -------------------------------------------------------------
                  HL-Gap            0.0635958 Eh            1.7305 eV

Wiberg/Mayer (AO) data.
largest (>0.10) Wiberg bond orders for each atom

     #   Z sym  total        # sym  WBO       # sym  WBO       # sym  WBO
 ---------------------------------------------------------------------------
     1   6 C    3.850 --    28 H    0.985    26 H    0.978    27 H    0.978
                             2 O    0.876
     2   8 O    2.229 --     3 C    1.131     1 C    0.876     4 O    0.145
     3   6 C    3.852 --     4 O    1.698     2 O    1.131     5 C    0.947
     4   8 O    1.962 --     3 C    1.698     2 O    0.145
     5   6 C    3.932 --     6 N    1.767    23 C    0.954     3 C    0.947
     6   7 N    3.062 --     5 C    1.767     7 C    1.052
     7   6 C    3.924 --    20 N    1.719     6 N    1.052     8 C    0.989
     8   6 C    3.938 --     7 C    0.989     9 C    0.989    10 C    0.958
                            11 N    0.931
     9   6 C    3.988 --     8 C    0.989    30 H    0.985    31 H    0.983
                            29 H    0.980
    10   6 C    3.984 --    32 H    0.985    34 H    0.985    33 H    0.977
                             8 C    0.958
    11   7 N    3.350 --    12 C    1.260     8 C    0.931    35 H    0.883
                            13 O    0.177
    12   6 C    3.917 --    13 O    1.582    11 N    1.260    14 C    0.992
    13   8 O    1.900 --    12 C    1.582    11 N    0.177
    14   6 C    3.872 --    15 N    1.622    19 O    1.048    12 C    0.992
    15   7 N    2.999 --    14 C    1.622    16 N    1.199
    16   7 N    2.981 --    17 C    1.611    15 N    1.199
    17   6 C    3.869 --    16 N    1.611    19 O    1.073    18 C    1.032
    18   6 C    3.986 --    17 C    1.032    36 H    0.982    38 H    0.965
                            37 H    0.961
    19   8 O    2.317 --    17 C    1.073    14 C    1.048
    20   7 N    3.075 --     7 C    1.719    21 C    1.048
    21   6 C    3.866 --    22 O    1.764    20 N    1.048    23 C    0.935
    22   8 O    1.992 --    21 C    1.764
    23   6 C    3.931 --    25 O    0.983     5 C    0.954    21 C    0.935
                            24 C    0.925
    24   6 C    3.983 --    39 H    0.984    41 H    0.981    40 H    0.978
                            23 C    0.925
    25   8 O    1.911 --    23 C    0.983    42 H    0.839
    26   1 H    1.003 --     1 C    0.978
    27   1 H    1.003 --     1 C    0.978
    28   1 H    1.007 --     1 C    0.985
    29   1 H    1.011 --     9 C    0.980
    30   1 H    1.002 --     9 C    0.985
    31   1 H    1.009 --     9 C    0.983
    32   1 H    1.001 --    10 C    0.985
    33   1 H    1.005 --    10 C    0.977
    34   1 H    1.002 --    10 C    0.985
    35   1 H    0.952 --    11 N    0.883
    36   1 H    0.999 --    18 C    0.982
    37   1 H    0.997 --    18 C    0.961
    38   1 H    0.997 --    18 C    0.965
    39   1 H    1.000 --    24 C    0.984
    40   1 H    0.998 --    24 C    0.978
    41   1 H    1.004 --    24 C    0.981
    42   1 H    0.868 --    25 O    0.839
 ---------------------------------------------------------------------------

           -------------------------------------------------
          | TOTAL ENERGY              -82.970492764536 Eh   |
          | GRADIENT NORM               0.000756891795 Eh/α |
          | HOMO-LUMO GAP               1.730529870976 eV   |
           -------------------------------------------------

 * finished run on 2023/06/20 at 18:26:43.233
