   * xtb version 6.5.1 (579679a) compiled by 'ehlert@majestix' on 2022-07-11
          program call               : /lustre/hpc/kemi/ree/PhD/git/ReactivityQM/dep/xtb-6.5.1/bin/xtb --gfn 1 /lustre/hpc/kemi/ree/PhD/git/ReactivityQM/calculations/R02deprot/reac01prodE04/conf08/R02deprot_reac01prodE04_conf08_gfn1.xyz --opt --vfukui --chrg -2 --uhf 0 --alpb DMSO

   ID    Z sym.   atoms
    1    6 C      1, 3, 5, 6, 8-11, 13, 15, 18, 19, 22, 24
    2    8 O      2, 4, 14, 20, 23, 25
    3    7 N      7, 12, 16, 17, 21
    4    1 H      26-42

      * Solvation model:               ALPB
        Solvent                        DMSO
        Solvent mass                       7.8130E+01 g/mol
          :  Hamiltonian                  GFN1-xTB          :
 * total energy  :   -83.5718244 Eh     change       -0.3403500E-10 Eh
 * total energy  :   -83.5894878 Eh     change       -0.1766341E-01 Eh
 * total energy  :   -83.5962208 Eh     change       -0.6732991E-02 Eh
 * total energy  :   -83.5976358 Eh     change       -0.1415002E-02 Eh
 * total energy  :   -83.5983543 Eh     change       -0.7184884E-03 Eh
 * total energy  :   -83.5986254 Eh     change       -0.2711659E-03 Eh
 * total energy  :   -83.5987822 Eh     change       -0.1567353E-03 Eh
 * total energy  :   -83.5989086 Eh     change       -0.1264651E-03 Eh
 * total energy  :   -83.5990257 Eh     change       -0.1170575E-03 Eh
 * total energy  :   -83.5991640 Eh     change       -0.1383367E-03 Eh
 * total energy  :   -83.6017368 Eh     change       -0.1239257E-04 Eh
 * total energy  :   -83.6017445 Eh     change       -0.7750891E-05 Eh
 * total energy  :   -83.6017562 Eh     change       -0.1164340E-04 Eh
 * total energy  :   -83.6017629 Eh     change       -0.6703217E-05 Eh
 * total energy  :   -83.6017719 Eh     change       -0.9041483E-05 Eh
 * total energy  :   -83.6017844 Eh     change       -0.1251651E-04 Eh
 * total energy  :   -83.6017950 Eh     change       -0.1050750E-04 Eh
 * total energy  :   -83.6018015 Eh     change       -0.6593338E-05 Eh
 * total energy  :   -83.6018053 Eh     change       -0.3749993E-05 Eh
   *** GEOMETRY OPTIMIZATION CONVERGED AFTER 44 ITERATIONS ***

 final structure:
================
42
 xtb: 6.5.1 (579679a)
C           -4.05436799398020        2.84419335158253       -1.71819045364619
O           -3.53799949126306        2.25111356780418       -0.53506932887885
C           -2.59712610568230        1.28069707245659       -0.70882278411013
O           -2.20027759347674        0.98624830077481       -1.82619025757825
C           -2.27824326452376        0.52937846091586        0.59478850853650
C           -2.29935819594320        1.48547978778184        1.80372855565781
N           -0.97361651356945       -0.09798150592750        0.49650024520808
C           -0.93401241732908       -1.37699291258517        0.20384357137097
C            0.47549778417126       -1.98199110589150        0.06758708107099
C            0.56763246520171       -2.78122699690906       -1.23948472948461
C            0.72441225806098       -2.90131475789081        1.27431447662662
N            1.43812207760902       -0.88630438277061        0.06078286642023
C            2.77660421858684       -1.01826045166834       -0.03038969983756
O            3.37743342079068       -2.09433828537309       -0.16319700895521
C            3.45386351427639        0.28082834243327        0.02600495935288
N            2.87742085447947        1.45872237195042        0.14234963326254
N            3.88047008760974        2.38830649222065        0.14270647049009
C            4.99420650073430        1.73986584929635        0.02882967155479
C            6.36214354450243        2.30832343345120       -0.02030964007286
O            4.81154236037544        0.40634474427714       -0.05140396623624
N           -1.90462078391664       -2.26411519437940        0.04326341915374
C           -3.21143138659903       -1.82688453896406        0.28968150173186
O           -4.18902881862786       -2.64420849473120        0.27665030713298
C           -3.38349799866323       -0.48007616377167        0.60937658946115
O           -4.68067825538481       -0.02112396978517        0.92739799522866
H           -4.55852420988689        2.09840194101178       -2.34158219111445
H           -3.25164052730373        3.30684848630392       -2.30217262852966
H           -4.76776217935944        3.60743181376976       -1.41015629871048
H           -2.03074225029659        0.92989949864190        2.70187046382295
H           -1.57734680839459        2.28923570907863        1.65995562983712
H           -3.29094487232312        1.91586140654781        1.93610673566485
H            1.50822438206780       -3.32762480750152       -1.29948480996981
H            0.49402660155445       -2.11053857635093       -2.09650839103420
H           -0.26019661721075       -3.49087141727873       -1.27530444207667
H            1.68009206167811       -3.41695076954818        1.18470985894500
H            0.72382917327392       -2.31748827825339        2.19514060495995
H           -0.07627296640438       -3.63999139588012        1.32452573351388
H            1.03624863630414        0.03545275495467        0.23835613079915
H            6.96624605816137        1.91238821378207        0.79563884499305
H            6.84854625251523        2.04171417257007       -0.95851866843504
H            6.30861580439498        3.39088647053670        0.06309170566257
H           -5.24748880621422       -0.80933523667961        0.85619173821403

          :  Hamiltonian                  GFN1-xTB          :
         :: total energy             -83.601805295551 Eh    ::
         :: gradient norm              0.000507186278 Eh/a0 ::
         :: HOMO-LUMO gap              0.091206707738 eV    ::
         :: SCC energy               -84.326449006024 Eh    ::
         :: -> Gsolv                  -0.278384831274 Eh    ::
         :: repulsion energy           0.750867965018 Eh    ::

    * Orbital Energies and Occupations

         #    Occupation            Energy/Eh            Energy/eV
      -------------------------------------------------------------
         1        2.0000           -0.8248799             -22.4461
       ...           ...                  ...                  ...
        56        2.0000           -0.4375449             -11.9062
        57        2.0000           -0.4330482             -11.7838
        58        2.0000           -0.4234533             -11.5228
        59        2.0000           -0.4232584             -11.5174
        60        2.0000           -0.4189963             -11.4015
        61        2.0000           -0.4091857             -11.1345
        62        2.0000           -0.4033086             -10.9746
        63        2.0000           -0.3934149             -10.7054
        64        2.0000           -0.3824618             -10.4073
        65        2.0000           -0.3508727              -9.5477
        66        2.0000           -0.3238791              -8.8132
        67        2.0000           -0.3226139              -8.7788
        68        1.7074           -0.2770157              -7.5380 (HOMO)
        69        0.2926           -0.2736639              -7.4468 (LUMO)
        70                         -0.2271094              -6.1800
        71                         -0.2127637              -5.7896
        72                         -0.1697440              -4.6190
        73                         -0.1549122              -4.2154
        74                         -0.1314680              -3.5774
        75                         -0.1205030              -3.2791
        76                         -0.0937216              -2.5503
        77                         -0.0905682              -2.4645
        78                         -0.0868168              -2.3624
        79                         -0.0813311              -2.2131
       ...                                ...                  ...
       134                          0.7106188              19.3369
      -------------------------------------------------------------
                  HL-Gap            0.0033518 Eh            0.0912 eV

Wiberg/Mayer (AO) data.
largest (>0.10) Wiberg bond orders for each atom

     #   Z sym  total        # sym  WBO       # sym  WBO       # sym  WBO
 ---------------------------------------------------------------------------
     1   6 C    3.901 --    28 H    0.987    27 H    0.981    26 H    0.981
                             2 O    0.924
     2   8 O    2.150 --     3 C    1.038     1 C    0.924     4 O    0.108
     3   6 C    3.768 --     4 O    1.610     2 O    1.038     5 C    0.911
                            24 C    0.103
     4   8 O    1.864 --     3 C    1.610     2 O    0.108
     5   6 C    3.972 --     7 N    0.992     6 C    0.975    24 C    0.965
                             3 C    0.911
     6   6 C    3.982 --    30 H    0.989    29 H    0.987    31 H    0.986
                             5 C    0.975
     7   7 N    2.888 --     8 C    1.489     5 C    0.992    21 N    0.173
     8   6 C    3.957 --     7 N    1.489    21 N    1.397     9 C    0.953
     9   6 C    3.925 --    10 C    0.989    11 C    0.983     8 C    0.953
                            12 N    0.926
    10   6 C    3.995 --     9 C    0.989    33 H    0.987    32 H    0.985
                            34 H    0.983
    11   6 C    3.994 --    36 H    0.987    37 H    0.985    35 H    0.985
                             9 C    0.983
    12   7 N    3.310 --    13 C    1.248     9 C    0.926    38 H    0.880
                            14 O    0.162
    13   6 C    3.851 --    14 O    1.488    12 N    1.248    15 C    1.043
    14   8 O    1.773 --    13 C    1.488    12 N    0.162
    15   6 C    3.748 --    16 N    1.511    13 C    1.043    20 O    1.015
    16   7 N    2.867 --    15 C    1.511    17 N    1.185
    17   7 N    2.980 --    18 C    1.625    16 N    1.185
    18   6 C    3.844 --    17 N    1.625    20 O    1.065    19 C    1.026
    19   6 C    3.992 --    18 C    1.026    41 H    0.985    39 H    0.969
                            40 H    0.969
    20   8 O    2.244 --    18 C    1.065    15 C    1.015
    21   7 N    2.869 --     8 C    1.397    22 C    1.091     7 N    0.173
    22   6 C    3.913 --    23 O    1.357    24 C    1.344    21 N    1.091
    23   8 O    1.653 --    22 C    1.357    24 C    0.103
    24   6 C    3.605 --    22 C    1.344     5 C    0.965    25 O    0.953
                             3 C    0.103    23 O    0.103
    25   8 O    1.897 --    24 C    0.953    42 H    0.852
    26   1 H    1.013 --     1 C    0.981
    27   1 H    1.015 --     1 C    0.981
    28   1 H    1.016 --     1 C    0.987
    29   1 H    1.018 --     6 C    0.987
    30   1 H    1.013 --     6 C    0.989
    31   1 H    1.018 --     6 C    0.986
    32   1 H    1.017 --    10 C    0.985
    33   1 H    1.009 --    10 C    0.987
    34   1 H    1.031 --    10 C    0.983
    35   1 H    1.016 --    11 C    0.985
    36   1 H    1.010 --    11 C    0.987
    37   1 H    1.022 --    11 C    0.985
    38   1 H    1.001 --    12 N    0.880
    39   1 H    0.999 --    19 C    0.969
    40   1 H    1.000 --    19 C    0.969
    41   1 H    1.002 --    19 C    0.985
    42   1 H    0.906 --    25 O    0.852
 ---------------------------------------------------------------------------

           -------------------------------------------------
          | TOTAL ENERGY              -83.601805295551 Eh   |
          | GRADIENT NORM               0.000507186278 Eh/α |
          | HOMO-LUMO GAP               0.091206707738 eV   |
           -------------------------------------------------

 * finished run on 2023/06/20 at 17:37:40.176
