   * xtb version 6.5.1 (579679a) compiled by 'ehlert@majestix' on 2022-07-11
          program call               : /lustre/hpc/kemi/ree/PhD/git/ReactivityQM/dep/xtb-6.5.1/bin/xtb --gfn 1 /lustre/hpc/kemi/ree/PhD/git/ReactivityQM/calculations/R01/reac01prodN04/conf10/R01_reac01prodN04_conf10_gfn1.xyz --opt --vfukui --chrg 1 --uhf 0 --alpb DMSO

   ID    Z sym.   atoms
    1    6 C      1, 3, 5, 8-10
    2    8 O      2, 4, 11
    3    7 N      6, 7
    4    1 H      12-20

      * Solvation model:               ALPB
        Solvent                        DMSO
        Solvent mass                       7.8130E+01 g/mol
          :  Hamiltonian                  GFN1-xTB          :
 * total energy  :   -37.6285095 Eh     change       -0.7595702E-11 Eh
 * total energy  :   -37.6405483 Eh     change       -0.1203889E-01 Eh
 * total energy  :   -37.6440863 Eh     change       -0.3537929E-02 Eh
 * total energy  :   -37.6447296 Eh     change       -0.6433136E-03 Eh
 * total energy  :   -37.6451847 Eh     change       -0.4550672E-03 Eh
 * total energy  :   -37.6453423 Eh     change       -0.1576312E-03 Eh
 * total energy  :   -37.6454969 Eh     change       -0.1545966E-03 Eh
 * total energy  :   -37.6456248 Eh     change       -0.1279170E-03 Eh
 * total energy  :   -37.6456886 Eh     change       -0.6382205E-04 Eh
 * total energy  :   -37.6457237 Eh     change       -0.3512484E-04 Eh
 * total energy  :   -37.6457335 Eh     change       -0.9724087E-05 Eh
 * total energy  :   -37.6457382 Eh     change       -0.4750881E-05 Eh
   *** GEOMETRY OPTIMIZATION CONVERGED AFTER 12 ITERATIONS ***

 final structure:
================
20
 xtb: 6.5.1 (579679a)
C            4.06604728966814       -0.62976948780860        0.35890156356447
O            2.63259117938619       -0.60835802859387        0.21800695291560
C            2.04832639383917        0.56313156818467        0.22376726594681
O            2.57629915991916        1.63432801227221        0.33250424107532
C            0.55473646310713        0.42460581021066        0.07216866035348
N           -0.31466982023426        1.38840917741951        0.04424070706365
N           -1.50135591481440        0.77854088200786       -0.10647793316954
C           -2.72036711655340        1.55955491585770       -0.16239832074720
C           -1.33293044775085       -0.52864066367184       -0.16455391034381
C           -2.34354093927590       -1.58542824455838       -0.32250871325325
O           -0.04512364849530       -0.77326972041828       -0.05514608948270
H            4.52262067242987       -0.12102228285613       -0.49150049558954
H            4.35011864772705       -1.67901168869341        0.38058130082487
H            4.34891876434022       -0.12970199557588        1.28657048387056
H           -3.19156125489205        1.54660003713402        0.82000184060410
H           -2.45553290962554        2.57679054856753       -0.44059694775107
H           -3.38565657461761        1.11640887964205       -0.89956681701318
H           -3.09180123847005       -1.50553312213160        0.46712334295176
H           -1.86117921946179       -2.56019998545810       -0.28200007529649
H           -2.85593948622580       -1.46743261153006       -1.27911605652365

          :  Hamiltonian                  GFN1-xTB          :
         :: total energy             -37.645738221595 Eh    ::
         :: gradient norm              0.000427738381 Eh/a0 ::
         :: HOMO-LUMO gap              4.084833469735 eV    ::
         :: SCC energy               -38.000728221172 Eh    ::
         :: -> Gsolv                  -0.086282964811 Eh    ::
         :: repulsion energy           0.363023459618 Eh    ::

    * Orbital Energies and Occupations

         #    Occupation            Energy/Eh            Energy/eV
      -------------------------------------------------------------
         1        2.0000           -0.9451460             -25.7187
       ...           ...                  ...                  ...
        18        2.0000           -0.6257455             -17.0274
        19        2.0000           -0.6138572             -16.7039
        20        2.0000           -0.6010252             -16.3547
        21        2.0000           -0.5946091             -16.1801
        22        2.0000           -0.5928680             -16.1328
        23        2.0000           -0.5807866             -15.8040
        24        2.0000           -0.5752412             -15.6531
        25        2.0000           -0.5669688             -15.4280
        26        2.0000           -0.5528926             -15.0450
        27        2.0000           -0.5396702             -14.6852
        28        2.0000           -0.5292355             -14.4012
        29        2.0000           -0.5251094             -14.2890
        30        2.0000           -0.5226882             -14.2231 (HOMO)
        31                         -0.3725734             -10.1382 (LUMO)
        32                         -0.3504675              -9.5367
        33                         -0.2566332              -6.9833
        34                         -0.1875404              -5.1032
        35                         -0.1749808              -4.7615
        36                         -0.1532597              -4.1704
        37                         -0.1250308              -3.4023
        38                         -0.1154080              -3.1404
        39                         -0.1028192              -2.7979
        40                         -0.0956247              -2.6021
        41                         -0.0891539              -2.4260
       ...                                ...                  ...
        62                          0.7347800              19.9944
      -------------------------------------------------------------
                  HL-Gap            0.1501149 Eh            4.0848 eV

Wiberg/Mayer (AO) data.
largest (>0.10) Wiberg bond orders for each atom

     #   Z sym  total        # sym  WBO       # sym  WBO       # sym  WBO
 ---------------------------------------------------------------------------
     1   6 C    3.837 --    13 H    0.984    14 H    0.977    12 H    0.976
                             2 O    0.865
     2   8 O    2.245 --     3 C    1.175     1 C    0.865     4 O    0.158
     3   6 C    3.878 --     4 O    1.691     2 O    1.175     5 C    0.946
     4   8 O    1.970 --     3 C    1.691     2 O    0.158
     5   6 C    3.854 --     6 N    1.618    11 O    1.063     3 C    0.946
     6   7 N    2.992 --     5 C    1.618     7 N    1.162
     7   7 N    3.630 --     9 C    1.414     6 N    1.162     8 C    0.907
     8   6 C    3.881 --    16 H    0.976    17 H    0.974    15 H    0.963
                             7 N    0.907
     9   6 C    3.839 --     7 N    1.414    11 O    1.158    10 C    1.043
    10   6 C    3.959 --     9 C    1.043    19 H    0.972    18 H    0.946
                            20 H    0.941
    11   8 O    2.389 --     9 C    1.158     5 C    1.063
    12   1 H    1.000 --     1 C    0.976
    13   1 H    1.005 --     1 C    0.984
    14   1 H    1.000 --     1 C    0.977
    15   1 H    0.988 --     8 C    0.963
    16   1 H    0.991 --     8 C    0.976
    17   1 H    0.989 --     8 C    0.974
    18   1 H    0.985 --    10 C    0.946
    19   1 H    0.985 --    10 C    0.972
    20   1 H    0.984 --    10 C    0.941
 ---------------------------------------------------------------------------

           -------------------------------------------------
          | TOTAL ENERGY              -37.645738221595 Eh   |
          | GRADIENT NORM               0.000427738381 Eh/α |
          | HOMO-LUMO GAP               4.084833469735 eV   |
           -------------------------------------------------

 * finished run on 2023/06/20 at 14:55:34.108
