   * xtb version 6.5.1 (579679a) compiled by 'ehlert@majestix' on 2022-07-11
          program call               : /lustre/hpc/kemi/ree/PhD/git/ReactivityQM/dep/xtb-6.5.1/bin/xtb --gfn 1 /lustre/hpc/kemi/ree/PhD/git/ReactivityQM/calculations/R02/reac01prodN06/conf14/R02_reac01prodN06_conf14_gfn1.xyz --opt --vfukui --chrg 1 --uhf 0 --alpb DMSO

   ID    Z sym.   atoms
    1    6 C      1, 3, 5, 7-10, 12, 14, 16, 17, 20, 22, 24
    2    8 O      2, 4, 13, 15, 23, 25
    3    7 N      6, 11, 18, 19, 21
    4    1 H      26-43

      * Solvation model:               ALPB
        Solvent                        DMSO
        Solvent mass                       7.8130E+01 g/mol
          :  Hamiltonian                  GFN1-xTB          :
 * total energy  :   -83.1544723 Eh     change       -0.4123990E-10 Eh
 * total energy  :   -83.1738283 Eh     change       -0.1935608E-01 Eh
 * total energy  :   -83.1813255 Eh     change       -0.7497125E-02 Eh
 * total energy  :   -83.1831223 Eh     change       -0.1796868E-02 Eh
 * total energy  :   -83.1847404 Eh     change       -0.1618084E-02 Eh
 * total energy  :   -83.1856494 Eh     change       -0.9090140E-03 Eh
 * total energy  :   -83.1863942 Eh     change       -0.7447362E-03 Eh
 * total energy  :   -83.1869242 Eh     change       -0.5299865E-03 Eh
 * total energy  :   -83.1871868 Eh     change       -0.2626180E-03 Eh
 * total energy  :   -83.1872952 Eh     change       -0.1083860E-03 Eh
 * total energy  :   -83.1894111 Eh     change       -0.3692153E-04 Eh
 * total energy  :   -83.1894300 Eh     change       -0.1890510E-04 Eh
 * total energy  :   -83.1894436 Eh     change       -0.1365008E-04 Eh
 * total energy  :   -83.1894553 Eh     change       -0.1170770E-04 Eh
 * total energy  :   -83.1894662 Eh     change       -0.1086214E-04 Eh
 * total energy  :   -83.1894727 Eh     change       -0.6445515E-05 Eh
 * total energy  :   -83.1894801 Eh     change       -0.7490281E-05 Eh
 * total energy  :   -83.1894868 Eh     change       -0.6627002E-05 Eh
 * total energy  :   -83.1894905 Eh     change       -0.3682679E-05 Eh
   *** GEOMETRY OPTIMIZATION CONVERGED AFTER 49 ITERATIONS ***

 final structure:
================
43
 xtb: 6.5.1 (579679a)
C            6.58308223934776       -1.18422661140197       -0.88652844982376
O            5.34094118125402       -1.16796642633468       -0.17560028134271
C            4.44440717822307       -0.26713069395204       -0.56618913094638
O            4.63498306420814        0.51212688041322       -1.47184519150860
C            3.17833167137609       -0.30731735625741        0.22691885389368
N            2.25740190718364        0.63687205720206       -0.16723167809305
C            1.12487643053871        0.71827023056897        0.43369856094011
C            0.12921159449803        1.78534509377696        0.03427803517164
C            0.19294640130604        2.93707515461556        1.04104273689052
C            0.40681720963930        2.27430970047342       -1.38883757335485
N           -1.22786131762121        1.21238302608337        0.10302236682501
C           -1.55068656819801        0.09743906832642       -0.55750650124640
O           -0.80333002256316       -0.60921436160402       -1.20262461077980
C           -3.00594103683628       -0.25300337102130       -0.41313984634329
O           -3.84873680439514        0.46058501824798        0.31768776272612
C           -5.04453778091475       -0.14436880068739        0.20737046027895
C           -6.22464885141182        0.38400222507172        0.90997109417954
N           -4.96491777882950       -1.19171829741432       -0.56097870686960
N           -3.67700884708397       -1.24762813360598       -0.94483078494936
C           -3.24975845501192       -2.32240832735202       -1.81698925954748
N            0.78836895244344       -0.08870017548641        1.48473937625252
C            1.61214691986401       -1.08460294868526        1.95029131810356
O            1.30036931224438       -1.82491210208195        2.87010242671902
C            2.89389519311394       -1.17034578332455        1.25027255259124
O            3.72163682109515       -2.12378783378560        1.68798143171462
H            6.41237521362414       -1.45287735660167       -1.93176748626635
H            7.05605462168413       -0.20042318472343       -0.83819591949883
H            7.20930683586448       -1.93061086917452       -0.40157894395325
H           -0.52988655513896        3.70483697598894        0.77204790066564
H           -0.02909628461872        2.57444408540688        2.04259990444242
H            1.19183659483567        3.37170084421385        1.03463223287654
H            0.35585529224416        1.44228614041688       -2.08931300418820
H           -0.32674586578611        3.02707066518179       -1.66822560673665
H            1.40562069413759        2.70761944757653       -1.42758391971056
H           -1.94592953745640        1.73530397523354        0.57434877772204
H           -6.06029798005584        0.33033714316949        1.98736469902973
H           -6.36796177557428        1.43300384459883        0.64886931657349
H           -7.10623095264077       -0.19380057764088        0.64135603672417
H           -3.94952650349850       -2.38020312263953       -2.64887047890709
H           -2.24127458734576       -2.11432409585770       -2.16543840864446
H           -3.27514127877786       -3.25245379335575       -1.24967732487244
H           -0.10567170626556        0.01821409961645        1.93441921856831
H            3.29472616131087       -2.60539345318326        2.41994004470233

          :  Hamiltonian                  GFN1-xTB          :
         :: total energy             -83.189490451030 Eh    ::
         :: gradient norm              0.000495563432 Eh/a0 ::
         :: HOMO-LUMO gap              1.679146607214 eV    ::
         :: SCC energy               -84.000569923437 Eh    ::
         :: -> Gsolv                  -0.127355000848 Eh    ::
         :: repulsion energy           0.837166459186 Eh    ::

    * Orbital Energies and Occupations

         #    Occupation            Energy/Eh            Energy/eV
      -------------------------------------------------------------
         1        2.0000           -0.9387564             -25.5449
       ...           ...                  ...                  ...
        55        2.0000           -0.5320901             -14.4789
        56        2.0000           -0.5238407             -14.2544
        57        2.0000           -0.5194770             -14.1357
        58        2.0000           -0.5170926             -14.0708
        59        2.0000           -0.5164907             -14.0544
        60        2.0000           -0.5048381             -13.7373
        61        2.0000           -0.5002290             -13.6119
        62        2.0000           -0.4954009             -13.4805
        63        2.0000           -0.4912434             -13.3674
        64        2.0000           -0.4903676             -13.3436
        65        2.0000           -0.4675959             -12.7239
        66        2.0000           -0.4577854             -12.4570
        67        2.0000           -0.4395551             -11.9609 (HOMO)
        68                         -0.3778476             -10.2818 (LUMO)
        69                         -0.3306834              -8.9984
        70                         -0.3239230              -8.8144
        71                         -0.2923279              -7.9546
        72                         -0.2585875              -7.0365
        73                         -0.2462063              -6.6996
        74                         -0.1719411              -4.6788
        75                         -0.1661196              -4.5203
        76                         -0.1654677              -4.5026
        77                         -0.1464619              -3.9854
        78                         -0.1401524              -3.8137
       ...                                ...                  ...
       136                          0.7274735              19.7956
      -------------------------------------------------------------
                  HL-Gap            0.0617075 Eh            1.6791 eV

Wiberg/Mayer (AO) data.
largest (>0.10) Wiberg bond orders for each atom

     #   Z sym  total        # sym  WBO       # sym  WBO       # sym  WBO
 ---------------------------------------------------------------------------
     1   6 C    3.870 --    28 H    0.986    27 H    0.979    26 H    0.979
                             2 O    0.895
     2   8 O    2.207 --     3 C    1.120     1 C    0.895     4 O    0.136
     3   6 C    3.853 --     4 O    1.658     2 O    1.120     5 C    0.996
     4   8 O    1.920 --     3 C    1.658     2 O    0.136
     5   6 C    3.962 --    24 C    1.509     6 N    1.170     3 C    0.996
     6   7 N    3.030 --     7 C    1.607     5 C    1.170
     7   6 C    3.934 --     6 N    1.607    21 N    1.158     8 C    0.976
     8   6 C    3.916 --    10 C    0.988     9 C    0.984     7 C    0.976
                            11 N    0.903
     9   6 C    3.986 --     8 C    0.984    30 H    0.983    31 H    0.981
                            29 H    0.981
    10   6 C    3.984 --     8 C    0.988    33 H    0.985    32 H    0.981
                            34 H    0.981
    11   7 N    3.393 --    12 C    1.306     8 C    0.903    35 H    0.882
                            13 O    0.200
    12   6 C    3.929 --    13 O    1.592    11 N    1.306    14 C    0.955
    13   8 O    1.939 --    12 C    1.592    11 N    0.200
    14   6 C    3.842 --    19 N    1.458    15 O    1.125    12 C    0.955
    15   8 O    2.370 --    14 C    1.125    16 C    1.067
    16   6 C    3.838 --    18 N    1.573    15 O    1.067    17 C    1.044
    17   6 C    3.969 --    16 C    1.044    38 H    0.977    37 H    0.951
                            36 H    0.945
    18   7 N    2.965 --    16 C    1.573    19 N    1.157
    19   7 N    3.662 --    14 C    1.458    18 N    1.157    20 C    0.909
    20   6 C    3.877 --    40 H    0.973    39 H    0.968    41 H    0.960
                            19 N    0.909
    21   7 N    3.463 --     7 C    1.158    22 C    1.137    42 H    0.882
                            23 O    0.135
    22   6 C    3.909 --    23 O    1.581    21 N    1.137    24 C    1.059
    23   8 O    1.904 --    22 C    1.581    21 N    0.135
    24   6 C    3.920 --     5 C    1.509    25 O    1.112    22 C    1.059
    25   8 O    2.090 --    24 C    1.112    43 H    0.805
    26   1 H    1.007 --     1 C    0.979
    27   1 H    1.007 --     1 C    0.979
    28   1 H    1.010 --     1 C    0.986
    29   1 H    0.994 --     9 C    0.981
    30   1 H    0.996 --     9 C    0.983
    31   1 H    0.998 --     9 C    0.981
    32   1 H    1.006 --    10 C    0.981
    33   1 H    0.999 --    10 C    0.985
    34   1 H    1.007 --    10 C    0.981
    35   1 H    0.919 --    11 N    0.882
    36   1 H    0.988 --    17 C    0.945
    37   1 H    0.988 --    17 C    0.951
    38   1 H    0.990 --    17 C    0.977
    39   1 H    0.992 --    20 C    0.968
    40   1 H    1.003 --    20 C    0.973
    41   1 H    0.990 --    20 C    0.960
    42   1 H    0.927 --    21 N    0.882
    43   1 H    0.844 --    25 O    0.805
 ---------------------------------------------------------------------------

           -------------------------------------------------
          | TOTAL ENERGY              -83.189490451030 Eh   |
          | GRADIENT NORM               0.000495563432 Eh/α |
          | HOMO-LUMO GAP               1.679146607214 eV   |
           -------------------------------------------------

 * finished run on 2023/06/20 at 15:25:14.270
