   * xtb version 6.5.1 (579679a) compiled by 'ehlert@majestix' on 2022-07-11
          program call               : /lustre/hpc/kemi/ree/PhD/git/ReactivityQM/dep/xtb-6.5.1/bin/xtb --gfn 1 /lustre/hpc/kemi/ree/PhD/git/ReactivityQM/calculations/R02/reac01prodE08/conf15/R02_reac01prodE08_conf15_gfn1.xyz --opt --vfukui --chrg -1 --uhf 0 --alpb DMSO

   ID    Z sym.   atoms
    1    6 C      1, 3, 5, 7-10, 12, 14, 15, 18, 19, 22, 24
    2    8 O      2, 4, 13, 20, 23, 25
    3    7 N      6, 11, 16, 17, 21
    4    1 H      26-43

      * Solvation model:               ALPB
        Solvent                        DMSO
        Solvent mass                       7.8130E+01 g/mol
          :  Hamiltonian                  GFN1-xTB          :
 * total energy  :   -83.8532314 Eh     change       -0.1239130E-08 Eh
 * total energy  :   -83.8635374 Eh     change       -0.1030605E-01 Eh
 * total energy  :   -83.8675614 Eh     change       -0.4023996E-02 Eh
 * total energy  :   -83.8680477 Eh     change       -0.4862322E-03 Eh
 * total energy  :   -83.8683878 Eh     change       -0.3400995E-03 Eh
 * total energy  :   -83.8685349 Eh     change       -0.1471431E-03 Eh
 * total energy  :   -83.8686499 Eh     change       -0.1149903E-03 Eh
 * total energy  :   -83.8687287 Eh     change       -0.7881989E-04 Eh
 * total energy  :   -83.8687938 Eh     change       -0.6504923E-04 Eh
 * total energy  :   -83.8688570 Eh     change       -0.6324360E-04 Eh
 * total energy  :   -83.8695443 Eh     change       -0.1259202E-04 Eh
 * total energy  :   -83.8695550 Eh     change       -0.1072442E-04 Eh
 * total energy  :   -83.8695646 Eh     change       -0.9607145E-05 Eh
 * total energy  :   -83.8695729 Eh     change       -0.8331481E-05 Eh
 * total energy  :   -83.8695830 Eh     change       -0.1007329E-04 Eh
 * total energy  :   -83.8695902 Eh     change       -0.7181051E-05 Eh
 * total energy  :   -83.8695958 Eh     change       -0.5642171E-05 Eh
 * total energy  :   -83.8696011 Eh     change       -0.5269258E-05 Eh
 * total energy  :   -83.8696053 Eh     change       -0.4177103E-05 Eh
   *** GEOMETRY OPTIMIZATION CONVERGED AFTER 39 ITERATIONS ***

 final structure:
================
43
 xtb: 6.5.1 (579679a)
C            5.42724425979436        2.53026784326698        0.58230457143986
O            4.30268538256546        1.67838719408204        0.38091806646007
C            4.39131849625442        0.44705324161946        0.92042741884683
O            5.38466435892584        0.08789662917234        1.55450890342797
C            3.23131505080079       -0.39694428669140        0.68136555538630
N            2.18977264362860        0.13750563665519       -0.04494699318039
C            1.15284552400494       -0.59191674830701       -0.28469735119857
C            0.01737359806675       -0.00984898672254       -1.11637078218955
C            0.30428862100310        1.46910708356156       -1.38950546952819
C           -0.09541389298736       -0.77008860101772       -2.44570871062056
N           -1.24735409487687       -0.06335230276242       -0.37862159644665
C           -2.01580696477472       -1.14605986207197       -0.16262039633647
O           -1.70117596303337       -2.29399372938658       -0.47473975169391
C           -3.40162670644650       -0.83305460582033        0.44508399264990
C           -3.72529611618259       -1.83413501886588        1.56382842918207
N           -4.36246377042476       -0.92494925504307       -0.65426383780214
N           -4.92227320478988        0.30101301070846       -0.76628451116859
C           -4.42838926460891        1.09698829004157        0.11310226332219
C           -4.76954313197568        2.52438505042241        0.34166814335892
O           -3.46360212450799        0.50508483972349        0.92107723426474
N            1.04926531342487       -1.87934841584724        0.14761559632400
C            2.02389076490937       -2.53109507678417        0.89788474353536
O            1.85199505500314       -3.69404831364121        1.25984333583822
C            3.17824076265884       -1.70272100046686        1.16170074114210
O            4.17865670904513       -2.25741623835549        1.87875822425241
H            5.19289634861827        3.47929052296218        0.10323769651024
H            6.32209735843602        2.09281120334918        0.13087580231773
H            5.60498806972471        2.68269202904251        1.65041442418181
H           -0.50576169908407        1.90386888188478       -1.97219898857338
H            1.23598277733874        1.56860905689907       -1.94369815139176
H            0.40242684524567        2.01372095419676       -0.45149255803062
H           -0.23820662768634       -1.83619856254077       -2.28031445282853
H            0.81875422599049       -0.62413988624163       -3.01905305670441
H           -0.93758544194144       -0.38427355340444       -3.01849846744815
H           -1.57753236885009        0.81732353300749       -0.01161440580498
H           -3.60030738319991       -2.84641541160248        1.18360286795763
H           -4.75503519342000       -1.69148823675217        1.88457856725577
H           -3.05962525801902       -1.67559577554961        2.41045542121621
H           -5.57189486680603        2.81539789721931       -0.33357163775346
H           -3.90362290840654        3.16436475860661        0.16173100370158
H           -5.09211805520731        2.68143437211282        1.37232927894967
H            0.20791306771946       -2.40941349847766       -0.07471322640081
H            4.90601880408220       -1.60070666217427        1.98182906360076

          :  Hamiltonian                  GFN1-xTB          :
         :: total energy             -83.869605261886 Eh    ::
         :: gradient norm              0.000477739448 Eh/a0 ::
         :: HOMO-LUMO gap              0.082872000073 eV    ::
         :: SCC energy               -84.621795951924 Eh    ::
         :: -> Gsolv                  -0.106219947915 Eh    ::
         :: repulsion energy           0.779251837746 Eh    ::

    * Orbital Energies and Occupations

         #    Occupation            Energy/Eh            Energy/eV
      -------------------------------------------------------------
         1        2.0000           -0.8177490             -22.2521
       ...           ...                  ...                  ...
        56        2.0000           -0.4809611             -13.0876
        57        2.0000           -0.4751374             -12.9291
        58        2.0000           -0.4633743             -12.6091
        59        2.0000           -0.4580582             -12.4644
        60        2.0000           -0.4413689             -12.0103
        61        2.0000           -0.4350122             -11.8373
        62        2.0000           -0.4281510             -11.6506
        63        2.0000           -0.4231997             -11.5159
        64        2.0000           -0.4215088             -11.4698
        65        2.0000           -0.4110293             -11.1847
        66        2.0000           -0.4039639             -10.9924
        67        2.0000           -0.3827150             -10.4142
        68        1.6648           -0.3084311              -8.3928 (HOMO)
        69        0.3352           -0.3053856              -8.3100 (LUMO)
        70                         -0.2590593              -7.0494
        71                         -0.2311138              -6.2889
        72                         -0.2157648              -5.8713
        73                         -0.1921408              -5.2284
        74                         -0.1326462              -3.6095
        75                         -0.1283679              -3.4931
        76                         -0.1211312              -3.2961
        77                         -0.1171714              -3.1884
        78                         -0.1156155              -3.1461
        79                         -0.1024374              -2.7875
       ...                                ...                  ...
       136                          0.7125342              19.3890
      -------------------------------------------------------------
                  HL-Gap            0.0030455 Eh            0.0829 eV

Wiberg/Mayer (AO) data.
largest (>0.10) Wiberg bond orders for each atom

     #   Z sym  total        # sym  WBO       # sym  WBO       # sym  WBO
 ---------------------------------------------------------------------------
     1   6 C    3.884 --    26 H    0.987    27 H    0.980    28 H    0.980
                             2 O    0.911
     2   8 O    2.155 --     3 C    1.073     1 C    0.911     4 O    0.109
     3   6 C    3.769 --     4 O    1.536     5 C    1.090     2 O    1.073
     4   8 O    1.851 --     3 C    1.536     2 O    0.109
     5   6 C    3.877 --    24 C    1.385     6 N    1.159     3 C    1.090
     6   7 N    3.010 --     7 C    1.593     5 C    1.159
     7   6 C    3.918 --     6 N    1.593    21 N    1.177     8 C    0.969
     8   6 C    3.945 --     9 C    1.001    10 C    0.984     7 C    0.969
                            11 N    0.926
     9   6 C    3.993 --     8 C    1.001    29 H    0.986    30 H    0.983
                            31 H    0.983
    10   6 C    3.991 --    33 H    0.986    34 H    0.984     8 C    0.984
                            32 H    0.979
    11   7 N    3.330 --    12 C    1.270     8 C    0.926    35 H    0.895
                            13 O    0.155
    12   6 C    3.854 --    13 O    1.552    11 N    1.270    14 C    0.912
    13   8 O    1.888 --    12 C    1.552    11 N    0.155
    14   6 C    3.891 --    16 N    0.987    15 C    0.969    20 O    0.917
                            12 C    0.912
    15   6 C    3.973 --    38 H    0.987    37 H    0.986    36 H    0.985
                            14 C    0.969
    16   7 N    2.461 --    17 N    1.219    14 C    0.987    18 C    0.113
    17   7 N    3.004 --    18 C    1.627    16 N    1.219
    18   6 C    3.754 --    17 N    1.627    19 C    1.023    20 O    0.959
                            16 N    0.113
    19   6 C    3.994 --    18 C    1.023    39 H    0.986    41 H    0.973
                            40 H    0.972
    20   8 O    2.077 --    18 C    0.959    14 C    0.917
    21   7 N    3.394 --     7 C    1.177    22 C    1.087    42 H    0.861
                            23 O    0.117
    22   6 C    3.862 --    23 O    1.540    24 C    1.122    21 N    1.087
    23   8 O    1.811 --    22 C    1.540    21 N    0.117
    24   6 C    3.796 --     5 C    1.385    22 C    1.122    25 O    1.084
    25   8 O    2.028 --    24 C    1.084    43 H    0.787
    26   1 H    1.013 --     1 C    0.987
    27   1 H    1.009 --     1 C    0.980
    28   1 H    1.009 --     1 C    0.980
    29   1 H    1.001 --     9 C    0.986
    30   1 H    1.012 --     9 C    0.983
    31   1 H    1.007 --     9 C    0.983
    32   1 H    1.014 --    10 C    0.979
    33   1 H    1.003 --    10 C    0.986
    34   1 H    1.002 --    10 C    0.984
    35   1 H    0.951 --    11 N    0.895
    36   1 H    1.013 --    15 C    0.985
    37   1 H    1.011 --    15 C    0.986
    38   1 H    1.006 --    15 C    0.987
    39   1 H    1.006 --    19 C    0.986
    40   1 H    1.001 --    19 C    0.972
    41   1 H    1.001 --    19 C    0.973
    42   1 H    0.946 --    21 N    0.861
    43   1 H    0.867 --    25 O    0.787
 ---------------------------------------------------------------------------

           -------------------------------------------------
          | TOTAL ENERGY              -83.869605261886 Eh   |
          | GRADIENT NORM               0.000477739448 Eh/α |
          | HOMO-LUMO GAP               0.082872000073 eV   |
           -------------------------------------------------

 * finished run on 2023/06/20 at 15:06:57.849
