   * xtb version 6.5.1 (579679a) compiled by 'ehlert@majestix' on 2022-07-11
          program call               : /lustre/hpc/kemi/ree/PhD/git/ReactivityQM/dep/xtb-6.5.1/bin/xtb --gfn 1 /lustre/hpc/kemi/ree/PhD/git/ReactivityQM/calculations/R02deprot/reac01prodN04/conf16/R02deprot_reac01prodN04_conf16_gfn1.xyz --opt --vfukui --chrg 0 --uhf 0 --alpb DMSO

   ID    Z sym.   atoms
    1    6 C      1, 3, 5, 6, 8-11, 13, 15, 18, 19, 22, 24
    2    8 O      2, 4, 14, 20, 23, 25
    3    7 N      7, 12, 16, 17, 21
    4    1 H      26-42

      * Solvation model:               ALPB
        Solvent                        DMSO
        Solvent mass                       7.8130E+01 g/mol
          :  Hamiltonian                  GFN1-xTB          :
 * total energy  :   -82.9406521 Eh     change       -0.2071943E-10 Eh
 * total energy  :   -82.9602770 Eh     change       -0.1962491E-01 Eh
 * total energy  :   -82.9671826 Eh     change       -0.6905592E-02 Eh
 * total energy  :   -82.9688515 Eh     change       -0.1668811E-02 Eh
 * total energy  :   -82.9697844 Eh     change       -0.9329958E-03 Eh
 * total energy  :   -82.9701388 Eh     change       -0.3543709E-03 Eh
 * total energy  :   -82.9704154 Eh     change       -0.2765721E-03 Eh
 * total energy  :   -82.9706671 Eh     change       -0.2516752E-03 Eh
 * total energy  :   -82.9708567 Eh     change       -0.1895846E-03 Eh
 * total energy  :   -82.9710316 Eh     change       -0.1749219E-03 Eh
 * total energy  :   -82.9742553 Eh     change       -0.7819700E-05 Eh
 * total energy  :   -82.9742801 Eh     change       -0.2477025E-04 Eh
 * total energy  :   -82.9742910 Eh     change       -0.1093465E-04 Eh
 * total energy  :   -82.9743066 Eh     change       -0.1560734E-04 Eh
 * total energy  :   -82.9743217 Eh     change       -0.1511480E-04 Eh
 * total energy  :   -82.9743326 Eh     change       -0.1090990E-04 Eh
 * total energy  :   -82.9743422 Eh     change       -0.9575285E-05 Eh
 * total energy  :   -82.9743495 Eh     change       -0.7293032E-05 Eh
 * total energy  :   -82.9743535 Eh     change       -0.4013287E-05 Eh
   *** GEOMETRY OPTIMIZATION CONVERGED AFTER 54 ITERATIONS ***

 final structure:
================
42
 xtb: 6.5.1 (579679a)
C           -3.82938003405359       -1.60275115632939       -0.88207414201297
O           -4.58100616291399       -0.49406645932779       -0.37194577547435
C           -4.08130618168693        0.59977663672284        0.12305410778992
O           -4.95427908095484        1.47195905571268        0.52701314387927
C           -6.35514986587311        1.18671798260487        0.41389130730732
C           -2.69522270081231        0.92141416905931        0.26270293850191
N           -1.77142842370019       -0.00800216070911       -0.15224091717363
C           -0.49579904345867        0.28410632918363       -0.00911041814194
C            0.47867182608684       -0.77936859989728       -0.49681509928623
C            0.35541005400809       -0.90049057373433       -2.02286789121468
C            0.16819936590885       -2.11795153151828        0.18527739813109
N            1.82287234009923       -0.34030300528985       -0.14026824270814
C            2.94123308394804       -1.03106331943363       -0.39949801679557
O            3.00129458834519       -2.11048589653062       -0.96927644374612
C            4.14374288919479       -0.31211647455464        0.10743490138017
N            4.15748859388147        0.84414097374153        0.69794872764099
N            5.45963506010369        1.11758274794419        0.99843026444447
C            6.15610117269519        0.10924722840307        0.57212320232667
C            7.62096078154147       -0.07947607561095        0.66380317658603
O            5.38359932030533       -0.82604242084444       -0.00098109566409
N            0.02641963517008        1.40105467842489        0.49460663594748
C           -0.80001153873539        2.37664096305882        0.92197263141757
O           -0.44951554712974        3.46137865393596        1.40454904415845
C           -2.24872237068557        2.11872928692365        0.80030323013524
O           -3.02830452688982        3.09820412259790        1.23692458801566
H           -3.21789428681691       -2.03672926225318       -0.09067501223750
H           -3.18981821975155       -1.28020800410141       -1.70377503860112
H           -4.57095862994280       -2.32038822654027       -1.23089029283480
H           -6.59975248319208        0.29817165453063        0.99768349162760
H           -6.61610399518395        1.02180151986215       -0.63228326060342
H           -6.87166493433188        2.05970887001815        0.80677170624254
H            0.62660842961137        0.04335047795988       -2.49442472585277
H            1.00846592065898       -1.68817738619098       -2.39526458619875
H           -0.67514122217564       -1.14055169285143       -2.27843223211586
H            0.81987752947797       -2.90079109157834       -0.19894749908080
H            0.30854852066926       -2.03024676876057        1.26187134449709
H           -0.86672901825391       -2.38818608161519       -0.01438784199797
H            1.88021147776599        0.56036684521591        0.33027886689027
H            7.84549039621198       -0.97375743093114        1.24495627613052
H            8.04381687583889       -0.20962228446750       -0.33201420672750
H            8.07140761617295        0.78693014188856        1.14163614447232
H           -2.42186521115502        3.80949356528370        1.55615061093661

          :  Hamiltonian                  GFN1-xTB          :
         :: total energy             -82.974353515339 Eh    ::
         :: gradient norm              0.000367088562 Eh/a0 ::
         :: HOMO-LUMO gap              1.656385629389 eV    ::
         :: SCC energy               -83.743080968531 Eh    ::
         :: -> Gsolv                  -0.057892557547 Eh    ::
         :: repulsion energy           0.794373551706 Eh    ::

    * Orbital Energies and Occupations

         #    Occupation            Energy/Eh            Energy/eV
      -------------------------------------------------------------
         1        2.0000           -0.8859184             -24.1071
       ...           ...                  ...                  ...
        55        2.0000           -0.5006142             -13.6224
        56        2.0000           -0.4924836             -13.4012
        57        2.0000           -0.4899090             -13.3311
        58        2.0000           -0.4772358             -12.9862
        59        2.0000           -0.4703427             -12.7987
        60        2.0000           -0.4609681             -12.5436
        61        2.0000           -0.4576439             -12.4531
        62        2.0000           -0.4535402             -12.3415
        63        2.0000           -0.4458147             -12.1312
        64        2.0000           -0.4361934             -11.8694
        65        2.0000           -0.4351486             -11.8410
        66        2.0000           -0.4076250             -11.0920
        67        2.0000           -0.4070457             -11.0763 (HOMO)
        68                         -0.3461746              -9.4199 (LUMO)
        69                         -0.3021828              -8.2228
        70                         -0.2621059              -7.1323
        71                         -0.2527510              -6.8777
        72                         -0.2389961              -6.5034
        73                         -0.1904441              -5.1822
        74                         -0.1585205              -4.3136
        75                         -0.1499631              -4.0807
        76                         -0.1450171              -3.9461
        77                         -0.1409268              -3.8348
        78                         -0.1212608              -3.2997
       ...                                ...                  ...
       134                          0.7268407              19.7783
      -------------------------------------------------------------
                  HL-Gap            0.0608711 Eh            1.6564 eV

Wiberg/Mayer (AO) data.
largest (>0.10) Wiberg bond orders for each atom

     #   Z sym  total        # sym  WBO       # sym  WBO       # sym  WBO
 ---------------------------------------------------------------------------
     1   6 C    3.831 --    28 H    0.981    27 H    0.973    26 H    0.972
                             2 O    0.863
     2   8 O    2.279 --     3 C    1.209     1 C    0.863
     3   6 C    3.810 --     4 O    1.218     2 O    1.209     6 C    1.175
     4   8 O    2.282 --     3 C    1.218     5 C    0.871
     5   6 C    3.843 --    31 H    0.983    30 H    0.976    29 H    0.975
                             4 O    0.871
     6   6 C    3.955 --    24 C    1.371     3 C    1.175     7 N    1.168
     7   7 N    3.010 --     8 C    1.463     6 C    1.168
     8   6 C    3.950 --     7 N    1.463    21 N    1.353     9 C    0.976
     9   6 C    3.936 --    11 C    0.984    10 C    0.979     8 C    0.976
                            12 N    0.930
    10   6 C    3.992 --    32 H    0.986    34 H    0.984    33 H    0.981
                             9 C    0.979
    11   6 C    3.992 --    36 H    0.986     9 C    0.984    37 H    0.982
                            35 H    0.981
    12   7 N    3.373 --    13 C    1.286     9 C    0.930    38 H    0.873
                            14 O    0.185
    13   6 C    3.922 --    14 O    1.572    12 N    1.286    15 C    0.983
    14   8 O    1.893 --    13 C    1.572    12 N    0.185
    15   6 C    3.872 --    16 N    1.617    20 O    1.062    13 C    0.983
    16   7 N    3.011 --    15 C    1.617    17 N    1.194
    17   7 N    2.980 --    18 C    1.611    16 N    1.194
    18   6 C    3.873 --    17 N    1.611    20 O    1.081    19 C    1.030
    19   6 C    3.987 --    18 C    1.030    41 H    0.983    40 H    0.965
                            39 H    0.964
    20   8 O    2.326 --    18 C    1.081    15 C    1.062
    21   7 N    3.024 --     8 C    1.353    22 C    1.257    23 O    0.133
    22   6 C    3.930 --    23 O    1.506    21 N    1.257    24 C    1.035
    23   8 O    1.852 --    22 C    1.506    21 N    0.133
    24   6 C    3.893 --     6 C    1.371    25 O    1.151    22 C    1.035
    25   8 O    2.123 --    24 C    1.151    42 H    0.787
    26   1 H    1.020 --     1 C    0.972
    27   1 H    1.021 --     1 C    0.973
    28   1 H    1.005 --     1 C    0.981
    29   1 H    1.002 --     5 C    0.975
    30   1 H    1.002 --     5 C    0.976
    31   1 H    1.005 --     5 C    0.983
    32   1 H    1.003 --    10 C    0.986
    33   1 H    1.009 --    10 C    0.981
    34   1 H    1.009 --    10 C    0.984
    35   1 H    1.010 --    11 C    0.981
    36   1 H    1.003 --    11 C    0.986
    37   1 H    1.012 --    11 C    0.982
    38   1 H    0.974 --    12 N    0.873
    39   1 H    0.997 --    19 C    0.964
    40   1 H    0.997 --    19 C    0.965
    41   1 H    0.999 --    19 C    0.983
    42   1 H    0.852 --    25 O    0.787
 ---------------------------------------------------------------------------

           -------------------------------------------------
          | TOTAL ENERGY              -82.974353515339 Eh   |
          | GRADIENT NORM               0.000367088562 Eh/α |
          | HOMO-LUMO GAP               1.656385629389 eV   |
           -------------------------------------------------

 * finished run on 2023/06/20 at 18:09:48.636
