                         Program Version 5.0.1 -  RELEASE  -
|  1> # ORCA input file
|  2> ! SP r2SCAN-3c CPCM
|  3>
|  4> %maxcore 1875.0
|  5> %pal nprocs 4 end
|  6> %cpcm smd true SMDsolvent "DMSO" end
|  7>
|  8> *xyz 1 1
|  9> C       2.619309    0.328891   -0.612806
| 10> C       1.321581    0.077178   -0.007462
| 11> N       1.114285   -0.333141    1.289846
| 12> N      -0.126772   -0.468622    1.458217
| 13> C      -0.816469   -0.118684    0.272865
| 14> C      -1.741995   -1.200497   -0.284525
| 15> C      -1.720677    1.142887    0.665207
| 16> O      -2.659850    0.950946    1.357394
| 17> Cl     -1.223417    2.610598    0.029258
| 18> O       0.208059    0.211911   -0.629283
| 19> H       3.214321   -0.587898   -0.564567
| 20> H       3.156976    1.073284   -0.019397
| 21> H       2.514328    0.660381   -1.643075
| 22> H      -2.516206   -1.408421    0.451320
| 23> H      -2.188551   -0.843838   -1.209818
| 24> H      -1.154922   -2.094976   -0.479672
| 25> **                         ****END OF INPUT****

CARTESIAN COORDINATES (ANGSTROEM)
---------------------------------
  C      2.619309    0.328891   -0.612806
  C      1.321581    0.077178   -0.007462
  N      1.114285   -0.333141    1.289846
  N     -0.126772   -0.468622    1.458217
  C     -0.816469   -0.118684    0.272865
  C     -1.741995   -1.200497   -0.284525
  C     -1.720677    1.142887    0.665207
  O     -2.659850    0.950946    1.357394
  Cl    -1.223417    2.610598    0.029258
  O      0.208059    0.211911   -0.629283
  H      3.214321   -0.587898   -0.564567
  H      3.156976    1.073284   -0.019397
  H      2.514328    0.660381   -1.643075
  H     -2.516206   -1.408421    0.451320
  H     -2.188551   -0.843838   -1.209818
  H     -1.154922   -2.094976   -0.479672

 Total Charge           Charge          ....    1
 Multiplicity           Mult            ....    1
 Number of Electrons    NEL             ....   82
 Basis Dimension        Dim             ....  248

ORBITAL ENERGIES
----------------

  NO   OCC          E(Eh)            E(eV)
   0   2.0000    -101.287006     -2756.1596
   1   2.0000     -19.126122      -520.4483
   2   2.0000     -19.029204      -517.8110
   3   2.0000     -14.302931      -389.2025
   4   2.0000     -14.286656      -388.7597
   5   2.0000     -10.246191      -278.8130
   6   2.0000     -10.242409      -278.7101
   7   2.0000     -10.216702      -278.0106
   8   2.0000     -10.080438      -274.3027
   9   2.0000     -10.075024      -274.1553
  10   2.0000      -9.443575      -256.9727
  11   2.0000      -7.190273      -195.6573
  12   2.0000      -7.180400      -195.3886
  13   2.0000      -7.178144      -195.3272
  14   2.0000      -1.227347       -33.3978
  15   2.0000      -1.111957       -30.2579
  16   2.0000      -1.075361       -29.2621
  17   2.0000      -0.906305       -24.6618
  18   2.0000      -0.882558       -24.0156
  19   2.0000      -0.781553       -21.2671
  20   2.0000      -0.734893       -19.9974
  21   2.0000      -0.689375       -18.7589
  22   2.0000      -0.673074       -18.3153
  23   2.0000      -0.629024       -17.1166
  24   2.0000      -0.554938       -15.1006
  25   2.0000      -0.539347       -14.6764
  26   2.0000      -0.509025       -13.8513
  27   2.0000      -0.486820       -13.2470
  28   2.0000      -0.471394       -12.8273
  29   2.0000      -0.456151       -12.4125
  30   2.0000      -0.440557       -11.9882
  31   2.0000      -0.433284       -11.7903
  32   2.0000      -0.420251       -11.4356
  33   2.0000      -0.406309       -11.0562
  34   2.0000      -0.401675       -10.9301
  35   2.0000      -0.399030       -10.8581
  36   2.0000      -0.388381       -10.5684
  37   2.0000      -0.354686        -9.6515
  38   2.0000      -0.345742        -9.4081
  39   2.0000      -0.323389        -8.7999
  40   2.0000      -0.306461        -8.3392
  41   0.0000      -0.213965        -5.8223
  42   0.0000      -0.121299        -3.3007
  43   0.0000      -0.084113        -2.2888
  44   0.0000      -0.018962        -0.5160
  45   0.0000       0.036062         0.9813

MULLIKEN ATOMIC CHARGES
-----------------------
   0 C :   -0.578171
   1 C :    0.462595
   2 N :   -0.023278
   3 N :   -0.003503
   4 C :    0.087477
   5 C :   -0.431865
   6 C :    0.282078
   7 O :   -0.247243
   8 Cl:    0.064454
   9 O :   -0.014187
  10 H :    0.255225
  11 H :    0.253221
  12 H :    0.227522
  13 H :    0.221884
  14 H :    0.230187
  15 H :    0.213603
Sum of atomic charges:    1.0000000

LOEWDIN ATOMIC CHARGES
----------------------
   0 C :   -0.274209
   1 C :    0.507168
   2 N :   -0.182599
   3 N :   -0.194195
   4 C :    0.294260
   5 C :   -0.252980
   6 C :    0.169196
   7 O :   -0.335492
   8 Cl:    0.360579
   9 O :   -0.375083
  10 H :    0.235525
  11 H :    0.233757
  12 H :    0.206778
  13 H :    0.206920
  14 H :    0.202528
  15 H :    0.197846

  Mayer bond orders larger than 0.100000
B(  0-C ,  1-C ) :   1.0019 B(  0-C , 10-H ) :   0.8792 B(  0-C , 11-H ) :   0.8845
B(  0-C , 12-H ) :   0.9631 B(  1-C ,  2-N ) :   1.0471 B(  1-C ,  9-O ) :   1.3305
B(  2-N ,  3-N ) :   1.6939 B(  3-N ,  4-C ) :   0.8333 B(  4-C ,  5-C ) :   1.0061
B(  4-C ,  6-C ) :   0.8184 B(  4-C ,  9-O ) :   0.7930 B(  5-C , 13-H ) :   0.9183
B(  5-C , 14-H ) :   0.9296 B(  5-C , 15-H ) :   0.9185 B(  6-C ,  7-O ) :   1.9733
B(  6-C ,  8-Cl) :   1.1388

Dispersion correction           -0.005571720
FINAL SINGLE POINT ENERGY      -913.935043128185

DIPOLE MOMENT
-------------
                                X             Y             Z
Electronic contribution:     -3.98020       8.17334       2.59004
Nuclear contribution   :      6.31913      -9.15868      -4.55226
                        -----------------------------------------
Total Dipole Moment    :      2.33893      -0.98533      -1.96222
                        -----------------------------------------
Magnitude (a.u.)       :      3.20808
Magnitude (Debye)      :      8.15430

Rotational constants in cm-1:     0.059274     0.033551     0.026432
Rotational constants in MHz :  1776.988277  1005.822089   792.398765

                             ****ORCA TERMINATED NORMALLY****
TOTAL RUN TIME: 0 days 0 hours 0 minutes 30 seconds 463 msec
