   * xtb version 6.5.1 (579679a) compiled by 'ehlert@majestix' on 2022-07-11
          program call               : /lustre/hpc/kemi/ree/PhD/git/ReactivityQM/dep/xtb-6.5.1/bin/xtb --gfn 1 /lustre/hpc/kemi/ree/PhD/git/ReactivityQM/calculations/RaltegravirCLI/reac01prodN05/conf08/RaltegravirCLI_reac01prodN05_conf08_gfn1.xyz --opt --vfukui --chrg 1 --uhf 0 --alpb DMSO

   ID    Z sym.   atoms
    1    6 C      1, 2, 5-7
    2    7 N      3, 4
    3    8 O      8, 10
    4   17 Cl     9
    5    1 H      11-16

      * Solvation model:               ALPB
        Solvent                        DMSO
        Solvent mass                       7.8130E+01 g/mol
          :  Hamiltonian                  GFN1-xTB          :
 * total energy  :   -33.3801949 Eh     change       -0.2216893E-11 Eh
 * total energy  :   -33.3883843 Eh     change       -0.8189416E-02 Eh
 * total energy  :   -33.3914975 Eh     change       -0.3113256E-02 Eh
 * total energy  :   -33.3918226 Eh     change       -0.3250566E-03 Eh
 * total energy  :   -33.3919982 Eh     change       -0.1755963E-03 Eh
 * total energy  :   -33.3920604 Eh     change       -0.6218185E-04 Eh
 * total energy  :   -33.3921298 Eh     change       -0.6940459E-04 Eh
 * total energy  :   -33.3921641 Eh     change       -0.3428538E-04 Eh
 * total energy  :   -33.3921742 Eh     change       -0.1011935E-04 Eh
 * total energy  :   -33.3921789 Eh     change       -0.4732492E-05 Eh
   *** GEOMETRY OPTIMIZATION CONVERGED AFTER 10 ITERATIONS ***

 final structure:
================
16
 xtb: 6.5.1 (579679a)
C            2.61930922712736        0.32889089695749       -0.61280619586020
C            1.32158120133695        0.07717774569279       -0.00746190282212
N            1.11428512002410       -0.33314132536345        1.28984621244802
N           -0.12677194972159       -0.46862234199694        1.45821717347458
C           -0.81646859377622       -0.11868361481937        0.27286524134593
C           -1.74199530353845       -1.20049666305533       -0.28452520774043
C           -1.72067730708893        1.14288731191313        0.66520743831946
O           -2.65985046452885        0.95094637529352        1.35739441620010
Cl          -1.22341710582986        2.61059759701183        0.02925830325344
O            0.20805850515578        0.21191098235273       -0.62928260496771
H            3.21432095377185       -0.58789815279000       -0.56456662155410
H            3.15697602672222        1.07328417585349       -0.01939660811219
H            2.51432807120038        0.66038123153173       -1.64307540095377
H           -2.51620633310793       -1.40842085528780        0.45132010831372
H           -2.18855123444893       -0.84383795571538       -1.20981756132986
H           -1.15492181329783       -2.09497640757836       -0.47967179001483

          :  Hamiltonian                  GFN1-xTB          :
         :: total energy             -33.392178910436 Eh    ::
         :: gradient norm              0.000888420009 Eh/a0 ::
         :: HOMO-LUMO gap              2.030156967208 eV    ::
         :: SCC energy               -33.670820830610 Eh    ::
         :: -> Gsolv                  -0.085478734668 Eh    ::
         :: repulsion energy           0.286598874291 Eh    ::

    * Orbital Energies and Occupations

         #    Occupation            Energy/Eh            Energy/eV
      -------------------------------------------------------------
         1        2.0000           -1.0044924             -27.3336
       ...           ...                  ...                  ...
        15        2.0000           -0.6379929             -17.3607
        16        2.0000           -0.6145026             -16.7215
        17        2.0000           -0.6052375             -16.4693
        18        2.0000           -0.6036973             -16.4274
        19        2.0000           -0.5864488             -15.9581
        20        2.0000           -0.5828585             -15.8604
        21        2.0000           -0.5755338             -15.6611
        22        2.0000           -0.5704331             -15.5223
        23        2.0000           -0.5677631             -15.4496
        24        2.0000           -0.5359870             -14.5849
        25        2.0000           -0.5337721             -14.5247
        26        2.0000           -0.5246149             -14.2755
        27        2.0000           -0.5137119             -13.9788 (HOMO)
        28                         -0.4391050             -11.9487 (LUMO)
        29                         -0.3572306              -9.7207
        30                         -0.3397900              -9.2462
        31                         -0.2510467              -6.8313
        32                         -0.1822464              -4.9592
        33                         -0.1642908              -4.4706
        34                         -0.1368749              -3.7246
        35                         -0.1293928              -3.5210
        36                         -0.1280954              -3.4857
        37                         -0.1142103              -3.1078
        38                         -0.1105593              -3.0085
       ...                                ...                  ...
        57                          0.7156695              19.4744
      -------------------------------------------------------------
                  HL-Gap            0.0746069 Eh            2.0302 eV

Wiberg/Mayer (AO) data.
largest (>0.10) Wiberg bond orders for each atom

     #   Z sym  total        # sym  WBO       # sym  WBO       # sym  WBO
 ---------------------------------------------------------------------------
     1   6 C    3.961 --     2 C    1.091    13 H    0.971    12 H    0.915
                            11 H    0.910
     2   6 C    3.799 --    10 O    1.290     3 N    1.182     1 C    1.091
     3   7 N    3.024 --     4 N    1.672     2 C    1.182
     4   7 N    3.012 --     3 N    1.672     5 C    1.078
     5   6 C    3.841 --     4 N    1.078     6 C    0.912    10 O    0.907
                             7 C    0.779
     6   6 C    3.942 --    15 H    0.977    16 H    0.974    14 H    0.973
                             5 C    0.912
     7   6 C    3.876 --     8 O    1.835     9 Cl   1.151     5 C    0.779
     8   8 O    2.137 --     7 C    1.835     9 Cl   0.157
     9  17 Cl   1.404 --     7 C    1.151     8 O    0.157
    10   8 O    2.380 --     2 C    1.290     5 C    0.907
    11   1 H    0.974 --     1 C    0.910
    12   1 H    0.977 --     1 C    0.915
    13   1 H    0.984 --     1 C    0.971
    14   1 H    0.993 --     6 C    0.973
    15   1 H    0.989 --     6 C    0.977
    16   1 H    0.988 --     6 C    0.974
 ---------------------------------------------------------------------------

           -------------------------------------------------
          | TOTAL ENERGY              -33.392178910436 Eh   |
          | GRADIENT NORM               0.000888420009 Eh/α |
          | HOMO-LUMO GAP               2.030156967208 eV   |
           -------------------------------------------------

 * finished run on 2023/06/20 at 14:54:59.864
