   * xtb version 6.5.1 (579679a) compiled by 'ehlert@majestix' on 2022-07-11
          program call               : /lustre/hpc/kemi/ree/PhD/git/ReactivityQM/dep/xtb-6.5.1/bin/xtb --gfn 1 /lustre/hpc/kemi/ree/PhD/git/ReactivityQM/calculations/RaltegravirCLI/reac01prodE02/conf08/RaltegravirCLI_reac01prodE02_conf08_gfn1.xyz --opt --vfukui --chrg -1 --uhf 0 --alpb DMSO

   ID    Z sym.   atoms
    1    6 C      1-3, 6, 7
    2    7 N      4, 5
    3    8 O      8, 10
    4   17 Cl     9
    5    1 H      11-16

      * Solvation model:               ALPB
        Solvent                        DMSO
        Solvent mass                       7.8130E+01 g/mol
          :  Hamiltonian                  GFN1-xTB          :
 * total energy  :   -34.1646733 Eh     change       -0.1921308E-10 Eh
 * total energy  :   -34.1688086 Eh     change       -0.4135311E-02 Eh
 * total energy  :   -34.1708704 Eh     change       -0.2061799E-02 Eh
 * total energy  :   -34.1712193 Eh     change       -0.3488779E-03 Eh
 * total energy  :   -34.1714291 Eh     change       -0.2097618E-03 Eh
 * total energy  :   -34.1714593 Eh     change       -0.3027850E-04 Eh
 * total energy  :   -34.1714661 Eh     change       -0.6742494E-05 Eh
 * total energy  :   -34.1714682 Eh     change       -0.2106573E-05 Eh
   *** GEOMETRY OPTIMIZATION CONVERGED AFTER 8 ITERATIONS ***

 final structure:
================
16
 xtb: 6.5.1 (579679a)
C           -1.81476777209398        0.69364603763883       -0.02938782865388
C           -0.59060104094237       -0.22434914142197        0.08106740471195
C           -0.94761480989793       -1.67847635117320       -0.25292929474390
N           -0.04743589696817       -0.15446274781062        1.44971061512724
N            1.14734149859022        0.29080883679670        1.38728371801337
C            1.50530301725559        0.54270413713380        0.11503477814833
C            2.70918984335600        1.02740256992869       -0.34826299774159
O            3.11951316155489        1.27966403304757       -1.46846084660693
Cl           3.87508655875271        1.32106214001644        1.05891738296806
O            0.45206803067925        0.23691109018995       -0.76231852361116
H           -1.52563113410241        1.71276785299658        0.22203087737930
H           -2.58743071414912        0.36126950681396        0.66038271352014
H           -2.20505147629243        0.67495158403586       -1.04503464748983
H           -0.05807107545910       -2.29938183140840       -0.15987871132024
H           -1.70784263178268       -2.03806661469157        0.43710749605213
H           -1.32405355850037       -1.74645110209269       -1.27175813575293

          :  Hamiltonian                  GFN1-xTB          :
         :: total energy             -34.171468190338 Eh    ::
         :: gradient norm              0.000803736437 Eh/a0 ::
         :: HOMO-LUMO gap              2.086154458081 eV    ::
         :: SCC energy               -34.430190219376 Eh    ::
         :: -> Gsolv                  -0.086977817103 Eh    ::
         :: repulsion energy           0.266288691387 Eh    ::

    * Orbital Energies and Occupations

         #    Occupation            Energy/Eh            Energy/eV
      -------------------------------------------------------------
         1        2.0000           -0.8705595             -23.6891
       ...           ...                  ...                  ...
        16        2.0000           -0.5165029             -14.0548
        17        2.0000           -0.5018088             -13.6549
        18        2.0000           -0.4945725             -13.4580
        19        2.0000           -0.4921976             -13.3934
        20        2.0000           -0.4830741             -13.1451
        21        2.0000           -0.4614088             -12.5556
        22        2.0000           -0.4566971             -12.4274
        23        2.0000           -0.4520333             -12.3005
        24        2.0000           -0.4486350             -12.2080
        25        2.0000           -0.4377581             -11.9120
        26        2.0000           -0.4280029             -11.6466
        27        2.0000           -0.3890330             -10.5861
        28        2.0000           -0.3415276              -9.2934 (HOMO)
        29                         -0.2648629              -7.2073 (LUMO)
        30                         -0.1780194              -4.8442
        31                         -0.1490495              -4.0558
        32                         -0.1103402              -3.0025
        33                         -0.1047592              -2.8506
        34                         -0.0633667              -1.7243
        35                         -0.0521647              -1.4195
        36                         -0.0341229              -0.9285
        37                         -0.0319610              -0.8697
        38                         -0.0021155              -0.0576
        39                         -0.0017585              -0.0479
       ...                                ...                  ...
        57                          0.7664325              20.8557
      -------------------------------------------------------------
                  HL-Gap            0.0766648 Eh            2.0862 eV

Wiberg/Mayer (AO) data.
largest (>0.10) Wiberg bond orders for each atom

     #   Z sym  total        # sym  WBO       # sym  WBO       # sym  WBO
 ---------------------------------------------------------------------------
     1   6 C    3.995 --    12 H    0.987    13 H    0.986    11 H    0.985
                             2 C    0.979
     2   6 C    3.897 --     3 C    0.979     1 C    0.979     4 N    0.972
                            10 O    0.927
     3   6 C    3.995 --    15 H    0.987    16 H    0.986    14 H    0.985
                             2 C    0.979
     4   7 N    2.947 --     5 N    1.585     2 C    0.972     7 C    0.118
                             6 C    0.116
     5   7 N    3.027 --     4 N    1.585     6 C    1.294
     6   6 C    3.856 --     7 C    1.357     5 N    1.294    10 O    0.936
                             4 N    0.116     8 O    0.109
     7   6 C    3.899 --     8 O    1.594     6 C    1.357     9 Cl   0.758
                             4 N    0.118
     8   8 O    1.949 --     7 C    1.594     9 Cl   0.116     6 C    0.109
     9  17 Cl   0.927 --     7 C    0.758     8 O    0.116
    10   8 O    2.057 --     6 C    0.936     2 C    0.927
    11   1 H    1.011 --     1 C    0.985
    12   1 H    1.008 --     1 C    0.987
    13   1 H    1.007 --     1 C    0.986
    14   1 H    1.011 --     3 C    0.985
    15   1 H    1.008 --     3 C    0.987
    16   1 H    1.006 --     3 C    0.986
 ---------------------------------------------------------------------------

           -------------------------------------------------
          | TOTAL ENERGY              -34.171468190338 Eh   |
          | GRADIENT NORM               0.000803736437 Eh/α |
          | HOMO-LUMO GAP               2.086154458081 eV   |
           -------------------------------------------------

 * finished run on 2023/06/20 at 14:52:31.120
