                         Program Version 5.0.1 -  RELEASE  -
|  1> # ORCA input file
|  2> ! SP r2SCAN-3c CPCM
|  3>
|  4> %maxcore 1875.0
|  5> %pal nprocs 4 end
|  6> %cpcm smd true SMDsolvent "DMSO" end
|  7>
|  8> *xyz -1 1
|  9> C      -4.093387    1.475174   -3.217979
| 10> O      -3.886764    0.873557   -1.944544
| 11> C      -2.612550    0.782208   -1.527667
| 12> O      -1.694491    1.193167   -2.213719
| 13> C      -2.438290    0.145027   -0.191327
| 14> C      -3.490844   -0.329750    0.588496
| 15> O      -4.835999   -0.159933    0.257026
| 16> C      -3.227392   -1.090493    1.760759
| 17> O      -4.110895   -1.599893    2.474692
| 18> N      -1.882589   -1.336276    2.022184
| 19> C      -0.871920   -0.418357    1.507403
| 20> C      -0.761837    0.809632    2.444835
| 21> C       0.489782   -1.184167    1.411147
| 22> C       0.283805   -2.479606    0.613971
| 23> C       1.107051   -1.484907    2.778420
| 24> N       1.364993   -0.296919    0.639718
| 25> C       2.656869   -0.518329    0.377067
| 26> O       3.357343   -1.399882    0.856969
| 27> C       3.184903    0.487654   -0.592257
| 28> N       2.507425    1.430590   -1.172174
| 29> N       3.376502    2.096945   -1.987949
| 30> C       4.526954    1.514854   -1.853457
| 31> C       5.798917    1.861487   -2.526070
| 32> O       4.473522    0.490930   -0.987632
| 33> N      -1.161874    0.052707    0.172805
| 34> H      -3.767010    2.519590   -3.205720
| 35> H      -5.161392    1.423011   -3.425380
| 36> H      -3.535563    0.938590   -3.991516
| 37> H      -5.341251   -0.606917    0.955807
| 38> H      -1.712986   -1.659377    2.963176
| 39> H      -0.639442    0.497720    3.479838
| 40> H       0.085434    1.426677    2.150640
| 41> H      -1.673265    1.401145    2.365055
| 42> H      -0.382936   -3.144348    1.161400
| 43> H      -0.164620   -2.247025   -0.352729
| 44> H       1.236409   -2.982978    0.455548
| 45> H       1.951644   -2.164620    2.673456
| 46> H       1.459231   -0.570722    3.253576
| 47> H       0.367856   -1.955805    3.424367
| 48> H       0.858053    0.378443    0.064233
| 49> H       5.654360    2.737611   -3.152886
| 50> H       6.136793    1.027165   -3.140363
| 51> H       6.569454    2.066416   -1.783824
| 52> **                         ****END OF INPUT****

CARTESIAN COORDINATES (ANGSTROEM)
---------------------------------
  C     -4.093387    1.475174   -3.217979
  O     -3.886764    0.873557   -1.944544
  C     -2.612550    0.782208   -1.527667
  O     -1.694491    1.193167   -2.213719
  C     -2.438290    0.145027   -0.191327
  C     -3.490844   -0.329750    0.588496
  O     -4.835999   -0.159933    0.257026
  C     -3.227392   -1.090493    1.760759
  O     -4.110895   -1.599893    2.474692
  N     -1.882589   -1.336276    2.022184
  C     -0.871920   -0.418357    1.507403
  C     -0.761837    0.809632    2.444835
  C      0.489782   -1.184167    1.411147
  C      0.283805   -2.479606    0.613971
  C      1.107051   -1.484907    2.778420
  N      1.364993   -0.296919    0.639718
  C      2.656869   -0.518329    0.377067
  O      3.357343   -1.399882    0.856969
  C      3.184903    0.487654   -0.592257
  N      2.507425    1.430590   -1.172174
  N      3.376502    2.096945   -1.987949
  C      4.526954    1.514854   -1.853457
  C      5.798917    1.861487   -2.526070
  O      4.473522    0.490930   -0.987632
  N     -1.161874    0.052707    0.172805
  H     -3.767010    2.519590   -3.205720
  H     -5.161392    1.423011   -3.425380
  H     -3.535563    0.938590   -3.991516
  H     -5.341251   -0.606917    0.955807
  H     -1.712986   -1.659377    2.963176
  H     -0.639442    0.497720    3.479838
  H      0.085434    1.426677    2.150640
  H     -1.673265    1.401145    2.365055
  H     -0.382936   -3.144348    1.161400
  H     -0.164620   -2.247025   -0.352729
  H      1.236409   -2.982978    0.455548
  H      1.951644   -2.164620    2.673456
  H      1.459231   -0.570722    3.253576
  H      0.367856   -1.955805    3.424367
  H      0.858053    0.378443    0.064233
  H      5.654360    2.737611   -3.152886
  H      6.136793    1.027165   -3.140363
  H      6.569454    2.066416   -1.783824

 Total Charge           Charge          ....   -1
 Multiplicity           Mult            ....    1
 Number of Electrons    NEL             ....  186
 Basis Dimension        Dim             ....  620

ORBITAL ENERGIES
----------------

  NO   OCC          E(Eh)            E(eV)
   0   2.0000     -19.057521      -518.5815
   1   2.0000     -18.983773      -516.5747
   2   2.0000     -18.942070      -515.4399
   3   2.0000     -18.919489      -514.8255
   4   2.0000     -18.918508      -514.7988
   5   2.0000     -18.893084      -514.1070
   6   2.0000     -14.198135      -386.3509
   7   2.0000     -14.191895      -386.1811
   8   2.0000     -14.176264      -385.7558
   9   2.0000     -14.150017      -385.0415
  10   2.0000     -14.099191      -383.6585
  11   2.0000     -10.141406      -275.9617
  12   2.0000     -10.140375      -275.9336
  13   2.0000     -10.140180      -275.9283
  14   2.0000     -10.135308      -275.7958
  15   2.0000     -10.096601      -274.7425
  16   2.0000     -10.085704      -274.4460
  17   2.0000     -10.071962      -274.0720
  18   2.0000     -10.067676      -273.9554
  19   2.0000     -10.054317      -273.5919
  20   2.0000     -10.045475      -273.3513
  21   2.0000     -10.042107      -273.2596
  22   2.0000     -10.008281      -272.3392
  23   2.0000     -10.004546      -272.2375
  24   2.0000     -10.002638      -272.1856
  25   2.0000      -1.147334       -31.2205
  26   2.0000      -1.057140       -28.7663
  27   2.0000      -1.006512       -27.3886
  28   2.0000      -0.990341       -26.9485
  29   2.0000      -0.968268       -26.3479
  30   2.0000      -0.962871       -26.2010
  31   2.0000      -0.956895       -26.0384
  32   2.0000      -0.908723       -24.7276
  33   2.0000      -0.882134       -24.0041
  34   2.0000      -0.824430       -22.4339
  35   2.0000      -0.816633       -22.2217
  36   2.0000      -0.755690       -20.5634
  37   2.0000      -0.714295       -19.4370
  38   2.0000      -0.704894       -19.1811
  39   2.0000      -0.683301       -18.5936
  40   2.0000      -0.658920       -17.9301
  41   2.0000      -0.653801       -17.7908
  42   2.0000      -0.641539       -17.4572
  43   2.0000      -0.614408       -16.7189
  44   2.0000      -0.600755       -16.3474
  45   2.0000      -0.581397       -15.8206
  46   2.0000      -0.564552       -15.3623
  47   2.0000      -0.525961       -14.3121
  48   2.0000      -0.520554       -14.1650
  49   2.0000      -0.510012       -13.8781
  50   2.0000      -0.489252       -13.3132
  51   2.0000      -0.487226       -13.2581
  52   2.0000      -0.465396       -12.6641
  53   2.0000      -0.463727       -12.6186
  54   2.0000      -0.452545       -12.3144
  55   2.0000      -0.437056       -11.8929
  56   2.0000      -0.427633       -11.6365
  57   2.0000      -0.423208       -11.5161
  58   2.0000      -0.420760       -11.4495
  59   2.0000      -0.411366       -11.1938
  60   2.0000      -0.410399       -11.1675
  61   2.0000      -0.399125       -10.8608
  62   2.0000      -0.396239       -10.7822
  63   2.0000      -0.389595       -10.6014
  64   2.0000      -0.384793       -10.4708
  65   2.0000      -0.376850       -10.2546
  66   2.0000      -0.376090       -10.2339
  67   2.0000      -0.371901       -10.1199
  68   2.0000      -0.363626        -9.8948
  69   2.0000      -0.354587        -9.6488
  70   2.0000      -0.347657        -9.4602
  71   2.0000      -0.345903        -9.4125
  72   2.0000      -0.339986        -9.2515
  73   2.0000      -0.337541        -9.1850
  74   2.0000      -0.332883        -9.0582
  75   2.0000      -0.330221        -8.9858
  76   2.0000      -0.322995        -8.7892
  77   2.0000      -0.312092        -8.4925
  78   2.0000      -0.305491        -8.3128
  79   2.0000      -0.301093        -8.1932
  80   2.0000      -0.296524        -8.0688
  81   2.0000      -0.289335        -7.8732
  82   2.0000      -0.263478        -7.1696
  83   2.0000      -0.261576        -7.1179
  84   2.0000      -0.258170        -7.0252
  85   2.0000      -0.248156        -6.7527
  86   2.0000      -0.233935        -6.3657
  87   2.0000      -0.232693        -6.3319
  88   2.0000      -0.226096        -6.1524
  89   2.0000      -0.215349        -5.8599
  90   2.0000      -0.210308        -5.7228
  91   2.0000      -0.201181        -5.4744
  92   2.0000      -0.121973        -3.3190
  93   0.0000      -0.075060        -2.0425
  94   0.0000      -0.055154        -1.5008
  95   0.0000      -0.014643        -0.3984
  96   0.0000       0.040351         1.0980
  97   0.0000       0.057159         1.5554

MULLIKEN ATOMIC CHARGES
-----------------------
   0 C :   -0.324940
   1 O :   -0.153304
   2 C :    0.121236
   3 O :   -0.414894
   4 C :    0.189815
   5 C :   -0.122362
   6 O :   -0.396622
   7 C :    0.030640
   8 O :   -0.480109
   9 N :   -0.115389
  10 C :   -0.034408
  11 C :   -0.612342
  12 C :    0.195937
  13 C :   -0.743498
  14 C :   -0.622765
  15 N :   -0.033984
  16 C :   -0.112816
  17 O :   -0.455091
  18 C :    0.360335
  19 N :   -0.149114
  20 N :   -0.317651
  21 C :    0.408077
  22 C :   -0.642624
  23 O :   -0.031887
  24 N :   -0.226687
  25 H :    0.168860
  26 H :    0.169562
  27 H :    0.169487
  28 H :    0.320634
  29 H :    0.289087
  30 H :    0.175914
  31 H :    0.180460
  32 H :    0.174131
  33 H :    0.188483
  34 H :    0.188205
  35 H :    0.183254
  36 H :    0.194313
  37 H :    0.184122
  38 H :    0.176642
  39 H :    0.320140
  40 H :    0.203219
  41 H :    0.199773
  42 H :    0.198159
Sum of atomic charges:   -1.0000000

LOEWDIN ATOMIC CHARGES
----------------------
   0 C :   -0.046818
   1 O :   -0.584502
   2 C :    0.405215
   3 O :   -0.440457
   4 C :    0.190812
   5 C :    0.143888
   6 O :   -0.538663
   7 C :    0.328135
   8 O :   -0.557889
   9 N :   -0.616173
  10 C :    0.235149
  11 C :   -0.351932
  12 C :    0.097176
  13 C :   -0.358096
  14 C :   -0.362545
  15 N :   -0.602655
  16 C :    0.372004
  17 O :   -0.475139
  18 C :    0.419891
  19 N :   -0.366566
  20 N :   -0.366837
  21 C :    0.371959
  22 C :   -0.319051
  23 O :   -0.365360
  24 N :   -0.728574
  25 H :    0.177482
  26 H :    0.180895
  27 H :    0.178691
  28 H :    0.289129
  29 H :    0.281049
  30 H :    0.163708
  31 H :    0.167509
  32 H :    0.167771
  33 H :    0.171433
  34 H :    0.173286
  35 H :    0.166177
  36 H :    0.177998
  37 H :    0.171181
  38 H :    0.165425
  39 H :    0.315015
  40 H :    0.189888
  41 H :    0.190487
  42 H :    0.189903

  Mayer bond orders larger than 0.100000
B(  0-C ,  1-O ) :   0.8408 B(  0-C , 25-H ) :   0.9570 B(  0-C , 26-H ) :   0.9672
B(  0-C , 27-H ) :   0.9590 B(  1-O ,  2-C ) :   1.1420 B(  2-C ,  3-O ) :   1.9042
B(  2-C ,  4-C ) :   1.0214 B(  2-C , 24-N ) :   0.1062 B(  4-C ,  5-C ) :   1.1475
B(  4-C , 24-N ) :   1.2137 B(  5-C ,  6-O ) :   1.0080 B(  5-C ,  7-C ) :   1.0545
B(  5-C ,  8-O ) :  -0.1129 B(  5-C , 24-N ) :   0.1336 B(  6-O , 28-H ) :   0.8437
B(  7-C ,  8-O ) :   2.0208 B(  7-C ,  9-N ) :   1.0947 B(  9-N , 10-C ) :   0.8288
B(  9-N , 29-H ) :   0.8788 B( 10-C , 11-C ) :   0.9462 B( 10-C , 12-C ) :   0.8604
B( 10-C , 24-N ) :   0.8381 B( 11-C , 30-H ) :   0.9682 B( 11-C , 31-H ) :   0.9703
B( 11-C , 32-H ) :   0.9627 B( 12-C , 13-C ) :   0.8491 B( 12-C , 14-C ) :   0.8628
B( 12-C , 15-N ) :   0.9245 B( 13-C , 33-H ) :   0.9638 B( 13-C , 34-H ) :   0.9900
B( 13-C , 35-H ) :   0.9759 B( 14-C , 36-H ) :   0.9648 B( 14-C , 37-H ) :   0.9766
B( 14-C , 38-H ) :   0.9699 B( 15-N , 16-C ) :   1.1929 B( 15-N , 39-H ) :   0.8250
B( 16-C , 17-O ) :   1.9072 B( 16-C , 18-C ) :   0.8285 B( 18-C , 19-N ) :   1.6850
B( 18-C , 23-O ) :   1.1230 B( 19-N , 20-N ) :   1.2093 B( 20-N , 21-C ) :   1.6213
B( 21-C , 22-C ) :   0.8292 B( 21-C , 23-O ) :   1.0718 B( 22-C , 40-H ) :   0.9902
B( 22-C , 41-H ) :   0.9420 B( 22-C , 42-H ) :   0.9460

Dispersion correction           -0.020064232
FINAL SINGLE POINT ENERGY     -1269.362621885219

DIPOLE MOMENT
-------------
                                X             Y             Z
Electronic contribution:      0.11519       2.27127      -4.76295
Nuclear contribution   :      3.65942      -1.41479       3.94994
                        -----------------------------------------
Total Dipole Moment    :      3.77461       0.85648      -0.81301
                        -----------------------------------------
Magnitude (a.u.)       :      3.95502
Magnitude (Debye)      :     10.05287

Rotational constants in cm-1:     0.011248     0.004481     0.003402
Rotational constants in MHz :   337.211113   134.350601   101.985153

                             ****ORCA TERMINATED NORMALLY****
TOTAL RUN TIME: 0 days 0 hours 2 minutes 25 seconds 199 msec
