   * xtb version 6.5.1 (579679a) compiled by 'ehlert@majestix' on 2022-07-11
          program call               : /lustre/hpc/kemi/ree/PhD/git/ReactivityQM/dep/xtb-6.5.1/bin/xtb --gfn 1 /lustre/hpc/kemi/ree/PhD/git/ReactivityQM/calculations/R02/reac01prodE06/conf13/R02_reac01prodE06_conf13_gfn1.xyz --opt --vfukui --chrg -1 --uhf 0 --alpb DMSO

   ID    Z sym.   atoms
    1    6 C      1, 3, 5, 6, 8, 11-15, 17, 19, 22, 23
    2    8 O      2, 4, 7, 9, 18, 24
    3    7 N      10, 16, 20, 21, 25
    4    1 H      26-43

      * Solvation model:               ALPB
        Solvent                        DMSO
        Solvent mass                       7.8130E+01 g/mol
          :  Hamiltonian                  GFN1-xTB          :
 * total energy  :   -83.8655150 Eh     change       -0.2684757E-08 Eh
 * total energy  :   -83.8780009 Eh     change       -0.1248597E-01 Eh
 * total energy  :   -83.8833280 Eh     change       -0.5327010E-02 Eh
 * total energy  :   -83.8846601 Eh     change       -0.1332185E-02 Eh
 * total energy  :   -83.8855334 Eh     change       -0.8732534E-03 Eh
 * total energy  :   -83.8858681 Eh     change       -0.3347103E-03 Eh
 * total energy  :   -83.8860914 Eh     change       -0.2232733E-03 Eh
 * total energy  :   -83.8862451 Eh     change       -0.1537405E-03 Eh
 * total energy  :   -83.8863702 Eh     change       -0.1251068E-03 Eh
 * total energy  :   -83.8865095 Eh     change       -0.1392427E-03 Eh
 * total energy  :   -83.8872670 Eh     change       -0.1576817E-04 Eh
 * total energy  :   -83.8872731 Eh     change       -0.6115612E-05 Eh
 * total energy  :   -83.8872911 Eh     change       -0.1802688E-04 Eh
 * total energy  :   -83.8873038 Eh     change       -0.1266762E-04 Eh
 * total energy  :   -83.8873102 Eh     change       -0.6422643E-05 Eh
 * total energy  :   -83.8873197 Eh     change       -0.9517183E-05 Eh
 * total energy  :   -83.8873255 Eh     change       -0.5767635E-05 Eh
 * total energy  :   -83.8873311 Eh     change       -0.5607832E-05 Eh
 * total energy  :   -83.8873351 Eh     change       -0.3970981E-05 Eh
   *** GEOMETRY OPTIMIZATION CONVERGED AFTER 42 ITERATIONS ***

 final structure:
================
43
 xtb: 6.5.1 (579679a)
C           -4.09338657678944        1.47517394984866       -3.21797904781382
O           -3.88676399006103        0.87355715907619       -1.94454428611589
C           -2.61255045866683        0.78220757265171       -1.52766719852632
O           -1.69449091396578        1.19316698784892       -2.21371926433400
C           -2.43829003130716        0.14502699919555       -0.19132743416298
C           -3.49084350408894       -0.32974994325748        0.58849641365530
O           -4.83599912379733       -0.15993278026159        0.25702572778150
C           -3.22739245787303       -1.09049297672417        1.76075861054019
O           -4.11089548200288       -1.59989332842985        2.47469156766294
N           -1.88258894046651       -1.33627588857296        2.02218390755691
C           -0.87191973994226       -0.41835669003951        1.50740274349660
C           -0.76183732599800        0.80963242122551        2.44483541505362
C            0.48978166670779       -1.18416707948533        1.41114661845245
C            0.28380544356518       -2.47960553493769        0.61397107610272
C            1.10705061531373       -1.48490714877386        2.77842036901284
N            1.36499273680258       -0.29691918348959        0.63971764733087
C            2.65686940857560       -0.51832880268655        0.37706668066595
O            3.35734266902034       -1.39988193750122        0.85696947251610
C            3.18490283972848        0.48765385262448       -0.59225745975618
N            2.50742455045123        1.43059020472512       -1.17217359861210
N            3.37650225002965        2.09694484380757       -1.98794863805152
C            4.52695405910322        1.51485421153012       -1.85345701654656
C            5.79891710450072        1.86148666914446       -2.52606984714044
O            4.47352210840997        0.49092977164938       -0.98763210276309
N           -1.16187393219909        0.05270729430825        0.17280544941894
H           -3.76701047804948        2.51958974351218       -3.20572002002814
H           -5.16139169145546        1.42301138933240       -3.42537986529037
H           -3.53556308020650        0.93858952128864       -3.99151611587513
H           -5.34125121991172       -0.60691660437775        0.95580655255885
H           -1.71298551875292       -1.65937657111874        2.96317584772618
H           -0.63944235007522        0.49772041447586        3.47983765986683
H            0.08543404535495        1.42667736218713        2.15064032497128
H           -1.67326545693201        1.40114527285198        2.36505461850820
H           -0.38293637599327       -3.14434792243042        1.16140019654804
H           -0.16462003189767       -2.24702525314411       -0.35272853421405
H            1.23640904092223       -2.98297834505696        0.45554806751702
H            1.95164447744733       -2.16462042148063        2.67345591020129
H            1.45923100061479       -0.57072168629404        3.25357557209798
H            0.36785638544122       -1.95580492523887        3.42436724702080
H            0.85805289767580        0.37844318722708        0.06423333065941
H            5.65435953739325        2.73761141802831       -3.15288561622778
H            6.13679310343374        1.02716475195788       -3.14036278995408
H            6.56945373993770        2.06641602480407       -1.78382419150751

          :  Hamiltonian                  GFN1-xTB          :
         :: total energy             -83.887335055435 Eh    ::
         :: gradient norm              0.000862962454 Eh/a0 ::
         :: HOMO-LUMO gap              0.737813864136 eV    ::
         :: SCC energy               -84.643648441950 Eh    ::
         :: -> Gsolv                  -0.109555596180 Eh    ::
         :: repulsion energy           0.783990100461 Eh    ::

    * Orbital Energies and Occupations

         #    Occupation            Energy/Eh            Energy/eV
      -------------------------------------------------------------
         1        2.0000           -0.8547508             -23.2590
       ...           ...                  ...                  ...
        56        2.0000           -0.4761741             -12.9574
        57        2.0000           -0.4726741             -12.8621
        58        2.0000           -0.4624747             -12.5846
        59        2.0000           -0.4505167             -12.2592
        60        2.0000           -0.4495922             -12.2340
        61        2.0000           -0.4439346             -12.0801
        62        2.0000           -0.4387819             -11.9399
        63        2.0000           -0.4313573             -11.7378
        64        2.0000           -0.4258841             -11.5889
        65        2.0000           -0.4084197             -11.1137
        66        2.0000           -0.3955923             -10.7646
        67        2.0000           -0.3832461             -10.4287
        68        2.0000           -0.3231463              -8.7933 (HOMO)
        69        0.0000           -0.2960321              -8.0554 (LUMO)
        70                         -0.2703945              -7.3578
        71                         -0.2492906              -6.7835
        72                         -0.1925115              -5.2385
        73                         -0.1849353              -5.0323
        74                         -0.1402248              -3.8157
        75                         -0.1282634              -3.4902
        76                         -0.1172957              -3.1918
        77                         -0.1126394              -3.0651
        78                         -0.1038190              -2.8251
        79                         -0.0974214              -2.6510
       ...                                ...                  ...
       136                          0.7365483              20.0425
      -------------------------------------------------------------
                  HL-Gap            0.0271142 Eh            0.7378 eV

Wiberg/Mayer (AO) data.
largest (>0.10) Wiberg bond orders for each atom

     #   Z sym  total        # sym  WBO       # sym  WBO       # sym  WBO
 ---------------------------------------------------------------------------
     1   6 C    3.892 --    27 H    0.987    26 H    0.980    28 H    0.980
                             2 O    0.916
     2   8 O    2.187 --     3 C    1.085     1 C    0.916     4 O    0.123
     3   6 C    3.823 --     4 O    1.636     2 O    1.085     5 C    1.007
     4   8 O    1.890 --     3 C    1.636     2 O    0.123
     5   6 C    3.971 --    25 N    1.399     6 C    1.344     3 C    1.007
     6   6 C    3.871 --     5 C    1.344     8 C    1.192     7 O    0.979
                            25 N    0.176
     7   8 O    1.953 --     6 C    0.979    29 H    0.847
     8   6 C    3.916 --     9 O    1.475     6 C    1.192    10 N    1.093
     9   8 O    1.806 --     8 C    1.475    10 N    0.103
    10   7 N    3.207 --     8 C    1.093    11 C    0.941    30 H    0.917
                             9 O    0.103
    11   6 C    3.945 --    25 N    1.006    12 C    0.972    13 C    0.947
                            10 N    0.941
    12   6 C    3.996 --    32 H    0.985    31 H    0.985    33 H    0.984
                            11 C    0.972
    13   6 C    3.926 --    15 C    1.000    14 C    0.991    11 C    0.947
                            16 N    0.920
    14   6 C    3.995 --    13 C    0.991    36 H    0.986    34 H    0.984
                            35 H    0.983
    15   6 C    3.994 --    13 C    1.000    38 H    0.984    39 H    0.983
                            37 H    0.980
    16   7 N    3.385 --    17 C    1.299    13 C    0.920    40 H    0.875
                            18 O    0.186
    17   6 C    3.924 --    18 O    1.563    16 N    1.299    19 C    0.979
    18   8 O    1.882 --    17 C    1.563    16 N    0.186
    19   6 C    3.868 --    20 N    1.620    24 O    1.059    17 C    0.979
    20   7 N    3.010 --    19 C    1.620    21 N    1.190
    21   7 N    2.980 --    22 C    1.616    20 N    1.190
    22   6 C    3.874 --    21 N    1.616    24 O    1.080    23 C    1.030
    23   6 C    3.988 --    22 C    1.030    41 H    0.983    43 H    0.966
                            42 H    0.964
    24   8 O    2.322 --    22 C    1.080    19 C    1.059
    25   7 N    2.945 --     5 C    1.399    11 C    1.006     6 C    0.176
    26   1 H    1.012 --     1 C    0.980
    27   1 H    1.014 --     1 C    0.987
    28   1 H    1.013 --     1 C    0.980
    29   1 H    0.888 --     7 O    0.847
    30   1 H    0.964 --    10 N    0.917
    31   1 H    1.005 --    12 C    0.985
    32   1 H    1.009 --    12 C    0.985
    33   1 H    1.007 --    12 C    0.984
    34   1 H    1.014 --    14 C    0.984
    35   1 H    1.017 --    14 C    0.983
    36   1 H    1.008 --    14 C    0.986
    37   1 H    1.016 --    15 C    0.980
    38   1 H    1.005 --    15 C    0.984
    39   1 H    1.003 --    15 C    0.983
    40   1 H    0.990 --    16 N    0.875
    41   1 H    0.999 --    23 C    0.983
    42   1 H    0.998 --    23 C    0.964
    43   1 H    0.998 --    23 C    0.966
 ---------------------------------------------------------------------------

           -------------------------------------------------
          | TOTAL ENERGY              -83.887335055435 Eh   |
          | GRADIENT NORM               0.000862962454 Eh/α |
          | HOMO-LUMO GAP               0.737813864136 eV   |
           -------------------------------------------------

 * finished run on 2023/06/20 at 15:00:41.466
