   * xtb version 6.5.1 (579679a) compiled by 'ehlert@majestix' on 2022-07-11
          program call               : /lustre/hpc/kemi/ree/PhD/git/ReactivityQM/dep/xtb-6.5.1/bin/xtb --gfn 1 /lustre/hpc/kemi/ree/PhD/git/ReactivityQM/calculations/RaltegravirCLI/reac02prodE07/conf15/RaltegravirCLI_reac02prodE07_conf15_gfn1.xyz --opt --vfukui --chrg -1 --uhf 0 --alpb DMSO

   ID    Z sym.   atoms
    1    6 C      1-4, 6-9, 11, 13, 15-18, 21, 22, 24
    2    9 F      5
    3    7 N      10, 14, 19, 20
    4    8 O      12, 23, 25
    5    1 H      26-47

      * Solvation model:               ALPB
        Solvent                        DMSO
        Solvent mass                       7.8130E+01 g/mol
          :  Hamiltonian                  GFN1-xTB          :
 * total energy  :   -80.1777932 Eh     change        0.1278977E-12 Eh
 * total energy  :   -80.1869336 Eh     change       -0.9140399E-02 Eh
 * total energy  :   -80.1894951 Eh     change       -0.2561449E-02 Eh
 * total energy  :   -80.1900377 Eh     change       -0.5426220E-03 Eh
 * total energy  :   -80.1905055 Eh     change       -0.4678112E-03 Eh
 * total energy  :   -80.1907665 Eh     change       -0.2610097E-03 Eh
 * total energy  :   -80.1909763 Eh     change       -0.2098208E-03 Eh
 * total energy  :   -80.1911343 Eh     change       -0.1579359E-03 Eh
 * total energy  :   -80.1912397 Eh     change       -0.1053850E-03 Eh
 * total energy  :   -80.1913385 Eh     change       -0.9888673E-04 Eh
 * total energy  :   -80.1921196 Eh     change       -0.1278585E-04 Eh
 * total energy  :   -80.1921326 Eh     change       -0.1300230E-04 Eh
 * total energy  :   -80.1921448 Eh     change       -0.1224201E-04 Eh
 * total energy  :   -80.1921566 Eh     change       -0.1174912E-04 Eh
 * total energy  :   -80.1921702 Eh     change       -0.1367024E-04 Eh
 * total energy  :   -80.1921835 Eh     change       -0.1329970E-04 Eh
 * total energy  :   -80.1921916 Eh     change       -0.8045455E-05 Eh
 * total energy  :   -80.1921976 Eh     change       -0.6059977E-05 Eh
 * total energy  :   -80.1922018 Eh     change       -0.4217270E-05 Eh
   *** GEOMETRY OPTIMIZATION CONVERGED AFTER 40 ITERATIONS ***

 final structure:
================
47
 xtb: 6.5.1 (579679a)
C            4.21430109929637        1.45346165194103        0.41894435235364
C            4.77161364696765        0.25823150693263       -0.40629855749154
C            5.62525106064118       -0.62273298480203        0.48159018628723
C            5.19156125534893       -1.84864193125496        0.85331383019291
F            5.97262043900289       -2.56297463167777        1.72278076890717
C            4.03269399625240       -2.48263228504691        0.38291786408058
C            3.30335038383226       -1.78868857184189       -0.60055898974350
C            3.64850406929107       -0.54248483331502       -1.04561651039507
C            2.85025278494489        0.12764281218836       -2.13583255324432
N            1.61749533310240        0.73134057264979       -1.59502751063090
C            0.46685062685631        0.02802496289118       -1.53282535253039
O            0.30331598411855       -1.03073485034861       -2.14689907138899
C           -0.62773738695479        0.61431042862759       -0.70816883779589
N           -1.76304762412579       -0.15522111177194       -0.67802837548679
C           -2.81267356616721        0.18146078269122       -0.00479665000638
C           -3.97424906211152       -0.80643543464635       -0.04572145158685
C           -3.88879064233798       -1.72508840369230        1.18254390157870
C           -3.86310982747482       -1.65683710052006       -1.32310454268891
N           -5.25701854295145       -0.10751624305588       -0.03429237893401
N           -2.85527627309362        1.33361956223166        0.74928644791748
C           -4.00408225844644        1.73471292052032        1.55711257753624
C           -1.77927901782008        2.21717122378915        0.74332011127747
O           -1.80488308578742        3.28727686581523        1.36785277044958
C           -0.63200725760017        1.80416839068616       -0.01473369731077
O            0.41220135098767        2.67850349416204        0.01658659110108
H            5.03071134780458        1.97277131898601        0.92217719596467
H            3.70448736730321        2.16241660561350       -0.23323046665225
H            3.51061835537604        1.09476473834817        1.17067308058923
H            5.40418810486778        0.70471456459340       -1.19713683986048
H            6.54686155034644       -0.20846670284322        0.87112049941371
H            3.76712053999735       -3.47967307235875        0.70435537559513
H            2.45159685797658       -2.29111936141561       -1.05653270806771
H            2.54770690384454       -0.58714977208183       -2.91080465220239
H            3.42471656470201        0.93023329926667       -2.61203468392976
H            1.74932119934669        1.52317733074482       -0.98632537658180
H           -4.00706072967040       -1.15844403636528        2.10458907721429
H           -2.92330116830248       -2.23059717947934        1.20226321684239
H           -4.67709907050666       -2.47493112204717        1.13541926023696
H           -4.70365052116352       -2.34639662745208       -1.37278401358836
H           -2.93296352895263       -2.22517991740416       -1.32441976200403
H           -3.88186081262534       -1.01390681191977       -2.20226197549404
H           -5.42972841880343        0.30592236532176       -0.94131402909241
H           -5.99689172606470       -0.77181886554075        0.14018914539233
H           -4.78155640639723        2.15574591020523        0.92038077497037
H           -3.67144213170001        2.48969250085352        2.27028050737760
H           -4.40751443036278        0.88059505312832        2.09328169073116
H            0.12788466721013        3.44771498869734        0.54488376069238

          :  Hamiltonian                  GFN1-xTB          :
         :: total energy             -80.192201848178 Eh    ::
         :: gradient norm              0.000720684760 Eh/a0 ::
         :: HOMO-LUMO gap              0.168184259973 eV    ::
         :: SCC energy               -81.049793222257 Eh    ::
         :: -> Gsolv                  -0.105088054635 Eh    ::
         :: repulsion energy           0.888145365219 Eh    ::

    * Orbital Energies and Occupations

         #    Occupation            Energy/Eh            Energy/eV
      -------------------------------------------------------------
         1        2.0000           -0.8064679             -21.9451
       ...           ...                  ...                  ...
        56        2.0000           -0.4520948             -12.3021
        57        2.0000           -0.4449463             -12.1076
        58        2.0000           -0.4437018             -12.0737
        59        2.0000           -0.4407362             -11.9930
        60        2.0000           -0.4251572             -11.5691
        61        2.0000           -0.4228684             -11.5068
        62        2.0000           -0.4177014             -11.3662
        63        2.0000           -0.4136056             -11.2548
        64        2.0000           -0.4057661             -11.0415
        65        2.0000           -0.4035977             -10.9825
        66        2.0000           -0.3970999             -10.8056
        67        2.0000           -0.3807002             -10.3594
        68        1.9255           -0.2977107              -8.1011 (HOMO)
        69        0.0745           -0.2915300              -7.9329 (LUMO)
        70                         -0.2534096              -6.8956
        71                         -0.2049089              -5.5759
        72                         -0.1969929              -5.3605
        73                         -0.1284004              -3.4940
        74                         -0.1245720              -3.3898
        75                         -0.1224167              -3.3311
        76                         -0.1170829              -3.1860
        77                         -0.1109294              -3.0185
        78                         -0.0973021              -2.6477
        79                         -0.0936502              -2.5484
       ...                                ...                  ...
       144                          0.7134972              19.4152
      -------------------------------------------------------------
                  HL-Gap            0.0061807 Eh            0.1682 eV

Wiberg/Mayer (AO) data.
largest (>0.10) Wiberg bond orders for each atom

     #   Z sym  total        # sym  WBO       # sym  WBO       # sym  WBO
 ---------------------------------------------------------------------------
     1   6 C    3.981 --    28 H    0.989    26 H    0.986    27 H    0.983
                             2 C    0.968
     2   6 C    3.992 --     3 C    1.006     8 C    1.000     1 C    0.968
                            29 H    0.964
     3   6 C    3.838 --     4 C    1.605     2 C    1.006    30 H    0.974
     4   6 C    3.834 --     3 C    1.605     6 C    1.278     5 F    0.868
     5   9 F    0.980 --     4 C    0.868
     6   6 C    3.804 --     7 C    1.319     4 C    1.278    31 H    0.977
     7   6 C    3.995 --     8 C    1.593     6 C    1.319    32 H    0.971
     8   6 C    3.874 --     7 C    1.593     9 C    1.002     2 C    1.000
     9   6 C    3.941 --     8 C    1.002    34 H    0.979    33 H    0.975
                            10 N    0.916
    10   7 N    3.332 --    11 C    1.255     9 C    0.916    35 H    0.900
                            12 O    0.161
    11   6 C    3.898 --    12 O    1.526    10 N    1.255    13 C    1.020
    12   8 O    1.823 --    11 C    1.526    10 N    0.161
    13   6 C    3.900 --    24 C    1.438    14 N    1.184    11 C    1.020
    14   7 N    3.028 --    15 C    1.582    13 C    1.184
    15   6 C    3.904 --    14 N    1.582    20 N    1.151    16 C    0.975
    16   6 C    3.966 --    18 C    0.989    17 C    0.984    19 N    0.983
                            15 C    0.975
    17   6 C    3.993 --    37 H    0.986    16 C    0.984    38 H    0.984
                            36 H    0.980
    18   6 C    3.995 --    16 C    0.989    39 H    0.987    41 H    0.985
                            40 H    0.982
    19   7 N    2.977 --    16 C    0.983    42 H    0.943    43 H    0.941
    20   7 N    3.440 --    15 C    1.151    22 C    1.101    21 C    0.936
                            23 O    0.117
    21   6 C    3.933 --    46 H    0.979    44 H    0.977    45 H    0.977
                            20 N    0.936
    22   6 C    3.878 --    23 O    1.493    24 C    1.144    20 N    1.101
    23   8 O    1.830 --    22 C    1.493    20 N    0.117
    24   6 C    3.857 --    13 C    1.438    22 C    1.144    25 O    1.043
    25   8 O    2.031 --    24 C    1.043    47 H    0.813
    26   1 H    1.011 --     1 C    0.986
    27   1 H    1.009 --     1 C    0.983
    28   1 H    1.018 --     1 C    0.989
    29   1 H    1.010 --     2 C    0.964
    30   1 H    1.003 --     3 C    0.974
    31   1 H    1.004 --     6 C    0.977
    32   1 H    1.013 --     7 C    0.971
    33   1 H    1.020 --     9 C    0.975
    34   1 H    1.010 --     9 C    0.979
    35   1 H    0.967 --    10 N    0.900
    36   1 H    1.006 --    17 C    0.980
    37   1 H    1.005 --    17 C    0.986
    38   1 H    1.001 --    17 C    0.984
    39   1 H    1.005 --    18 C    0.987
    40   1 H    1.018 --    18 C    0.982
    41   1 H    1.008 --    18 C    0.985
    42   1 H    0.959 --    19 N    0.943
    43   1 H    0.956 --    19 N    0.941
    44   1 H    1.019 --    21 C    0.977
    45   1 H    1.013 --    21 C    0.977
    46   1 H    1.022 --    21 C    0.979
    47   1 H    0.861 --    25 O    0.813
 ---------------------------------------------------------------------------

           -------------------------------------------------
          | TOTAL ENERGY              -80.192201848178 Eh   |
          | GRADIENT NORM               0.000720684760 Eh/α |
          | HOMO-LUMO GAP               0.168184259973 eV   |
           -------------------------------------------------

 * finished run on 2023/06/20 at 15:06:09.810
