   * xtb version 6.5.1 (579679a) compiled by 'ehlert@majestix' on 2022-07-11
          program call               : /lustre/hpc/kemi/ree/PhD/git/ReactivityQM/dep/xtb-6.5.1/bin/xtb --gfn 1 /lustre/hpc/kemi/ree/PhD/git/ReactivityQM/calculations/RaltegravirCLI/reac02prodE08/conf09/RaltegravirCLI_reac02prodE08_conf09_gfn1.xyz --opt --vfukui --chrg -1 --uhf 0 --alpb DMSO

   ID    Z sym.   atoms
    1    6 C      1-5, 7, 9, 11-14, 17, 18, 20, 22-24
    2    7 N      6, 10, 15, 16
    3    8 O      8, 19, 21
    4    9 F      25
    5    1 H      26-47

      * Solvation model:               ALPB
        Solvent                        DMSO
        Solvent mass                       7.8130E+01 g/mol
          :  Hamiltonian                  GFN1-xTB          :
 * total energy  :   -80.1650324 Eh     change       -0.1372058E-09 Eh
 * total energy  :   -80.1745207 Eh     change       -0.9488353E-02 Eh
 * total energy  :   -80.1769457 Eh     change       -0.2424937E-02 Eh
 * total energy  :   -80.1773588 Eh     change       -0.4130808E-03 Eh
 * total energy  :   -80.1777104 Eh     change       -0.3516600E-03 Eh
 * total energy  :   -80.1779168 Eh     change       -0.2064060E-03 Eh
 * total energy  :   -80.1781045 Eh     change       -0.1877109E-03 Eh
 * total energy  :   -80.1782161 Eh     change       -0.1115930E-03 Eh
 * total energy  :   -80.1783034 Eh     change       -0.8728144E-04 Eh
 * total energy  :   -80.1783773 Eh     change       -0.7390732E-04 Eh
 * total energy  :   -80.1797402 Eh     change       -0.2512750E-04 Eh
 * total energy  :   -80.1797550 Eh     change       -0.1474829E-04 Eh
 * total energy  :   -80.1797666 Eh     change       -0.1160131E-04 Eh
 * total energy  :   -80.1797844 Eh     change       -0.1784417E-04 Eh
 * total energy  :   -80.1798029 Eh     change       -0.1845082E-04 Eh
 * total energy  :   -80.1798243 Eh     change       -0.2139145E-04 Eh
 * total energy  :   -80.1798309 Eh     change       -0.6675249E-05 Eh
 * total energy  :   -80.1798376 Eh     change       -0.6689596E-05 Eh
 * total energy  :   -80.1798419 Eh     change       -0.4318759E-05 Eh
   *** GEOMETRY OPTIMIZATION CONVERGED AFTER 70 ITERATIONS ***

 final structure:
================
47
 xtb: 6.5.1 (579679a)
C            5.22578403805290        1.13134931363248       -1.87775438861922
C            5.12574302535412        0.64592088102998       -0.40154183180232
C            3.82507427404242       -0.08601559723751       -0.15297260430812
C            3.75940043035574       -1.42836113751567        0.09115854384605
C            2.42050675863665       -2.13023774679174        0.24393925590803
N            1.32545130060935       -1.21163083919723        0.52451491485373
C            0.20187522281145       -1.17738790936455       -0.22431912582301
O            0.04472418605251       -1.89297865420550       -1.21733024631209
C           -0.85362358266007       -0.23005858415261        0.22803091492143
N           -2.06727241749603       -0.40596635904243       -0.38361514360317
C           -3.10578414152290        0.30719646882462       -0.09239877501629
C           -4.38246345291769       -0.07803213507488       -0.85302758174489
C           -5.29229861506478       -0.92369952833815        0.05185034158526
C           -5.14358488678300        1.11116993367346       -1.45412136270392
N           -3.99645806309237       -0.92965553032791       -1.97554574013564
N           -3.05561620882393        1.30083054239846        0.86552446489173
C           -4.19335555883566        2.12417295804410        1.25911570555760
C           -1.85098400399574        1.60389427047236        1.50697520282137
O           -1.76623509266833        2.52063234814397        2.33735340635718
C           -0.73303371019985        0.78075352800695        1.15941219908749
O            0.42924926460016        1.08685370691764        1.80304166174857
C            4.91226107145854       -2.23114397042701        0.23278234549369
C            6.17677019391131       -1.59707819058503        0.17987326011066
C            6.26005789398971       -0.27313166252311       -0.06690387990569
F            7.49751159362178        0.33850510158929       -0.06324608923665
H            4.40381992943236        1.81075293273967       -2.10426670079025
H            5.17414861518699        0.27864122358059       -2.55544147045958
H            6.16983522126757        1.65366008432275       -2.03727646101325
H            5.18162263947740        1.55611258170906        0.22468980008669
H            2.92317079016924        0.51377325967031       -0.22370047415917
H            2.47961383990978       -2.86748006658031        1.05614744980442
H            2.17578621607078       -2.67303845809506       -0.67870248397986
H            1.38450675718484       -0.67706712110477        1.37482039128361
H           -4.73339744713947       -1.76874206459074        0.45384599663724
H           -6.12645179149193       -1.30323388210869       -0.53747780869599
H           -5.68811601634859       -0.34198940786260        0.88125891148029
H           -4.45058672243709        1.85630173076644       -1.84268987622582
H           -5.80456575071184        1.58204060488566       -0.73125561919209
H           -5.75684006183657        0.74575796673312       -2.27806044468254
H           -3.40221705669006       -0.39543278567213       -2.59999569766316
H           -3.43983071747152       -1.70402195510910       -1.62117036184117
H           -5.08678736014307        1.51664136094141        1.36834171847392
H           -4.36414593401115        2.91174579589228        0.52483577933901
H           -3.95920037287093        2.58407485439094        2.21956225625795
H            0.23817220374544        1.82550606399890        2.40963338329612
H            4.83770135498162       -3.29180115381078        0.43462817468594
H            7.08006114430232       -2.16810277264782        0.37022408939942

          :  Hamiltonian                  GFN1-xTB          :
         :: total energy             -80.179841944304 Eh    ::
         :: gradient norm              0.000480220353 Eh/a0 ::
         :: HOMO-LUMO gap              0.094659657266 eV    ::
         :: SCC energy               -81.035180440354 Eh    ::
         :: -> Gsolv                  -0.098834023798 Eh    ::
         :: repulsion energy           0.884843229384 Eh    ::

    * Orbital Energies and Occupations

         #    Occupation            Energy/Eh            Energy/eV
      -------------------------------------------------------------
         1        2.0000           -0.8030411             -21.8519
       ...           ...                  ...                  ...
        56        2.0000           -0.4576512             -12.4533
        57        2.0000           -0.4434664             -12.0673
        58        2.0000           -0.4413993             -12.0111
        59        2.0000           -0.4370232             -11.8920
        60        2.0000           -0.4249210             -11.5627
        61        2.0000           -0.4221316             -11.4868
        62        2.0000           -0.4189512             -11.4002
        63        2.0000           -0.4110444             -11.1851
        64        2.0000           -0.4061458             -11.0518
        65        2.0000           -0.4011910             -10.9170
        66        2.0000           -0.3954888             -10.7618
        67        2.0000           -0.3815305             -10.3820
        68        1.7237           -0.2931923              -7.9782 (HOMO)
        69        0.2763           -0.2897136              -7.8835 (LUMO)
        70                         -0.2503912              -6.8135
        71                         -0.2006873              -5.4610
        72                         -0.1973415              -5.3699
        73                         -0.1366882              -3.7195
        74                         -0.1291648              -3.5148
        75                         -0.1265736              -3.4442
        76                         -0.1181164              -3.2141
        77                         -0.1100888              -2.9957
        78                         -0.0941377              -2.5616
        79                         -0.0910901              -2.4787
       ...                                ...                  ...
       144                          0.7125720              19.3901
      -------------------------------------------------------------
                  HL-Gap            0.0034787 Eh            0.0947 eV

Wiberg/Mayer (AO) data.
largest (>0.10) Wiberg bond orders for each atom

     #   Z sym  total        # sym  WBO       # sym  WBO       # sym  WBO
 ---------------------------------------------------------------------------
     1   6 C    3.970 --    27 H    0.989    26 H    0.988    28 H    0.987
                             2 C    0.964
     2   6 C    3.992 --    24 C    1.007     3 C    1.006     1 C    0.964
                            29 H    0.960
     3   6 C    3.815 --     4 C    1.599     2 C    1.006    30 H    0.973
     4   6 C    3.984 --     3 C    1.599    22 C    1.300     5 C    0.987
     5   6 C    3.941 --     4 C    0.987    31 H    0.971    32 H    0.967
                             6 N    0.943
     6   7 N    3.326 --     7 C    1.251     5 C    0.943    33 H    0.899
                             8 O    0.162
     7   6 C    3.879 --     8 O    1.530     6 N    1.251     9 C    1.022
     8   8 O    1.810 --     7 C    1.530     6 N    0.162
     9   6 C    3.862 --    20 C    1.421    10 N    1.186     7 C    1.022
    10   7 N    3.040 --    11 C    1.581     9 C    1.186
    11   6 C    3.888 --    10 N    1.581    16 N    1.139    12 C    0.964
    12   6 C    3.970 --    15 N    0.994    14 C    0.993    13 C    0.984
                            11 C    0.964
    13   6 C    3.993 --    34 H    0.985    12 C    0.984    35 H    0.984
                            36 H    0.980
    14   6 C    3.994 --    12 C    0.993    37 H    0.986    39 H    0.983
                            38 H    0.983
    15   7 N    2.959 --    12 C    0.994    40 H    0.947    41 H    0.940
    16   7 N    3.409 --    11 C    1.139    18 C    1.085    17 C    0.942
                            19 O    0.114
    17   6 C    3.937 --    43 H    0.978    42 H    0.978    44 H    0.973
                            16 N    0.942
    18   6 C    3.867 --    19 O    1.490    20 C    1.156    16 N    1.085
    19   8 O    1.823 --    18 C    1.490    16 N    0.114
    20   6 C    3.825 --     9 C    1.421    18 C    1.156    21 O    1.040
    21   8 O    2.022 --    20 C    1.040    45 H    0.815
    22   6 C    3.750 --     4 C    1.300    23 C    1.276    46 H    0.977
    23   6 C    3.989 --    24 C    1.622    22 C    1.276    47 H    0.971
    24   6 C    3.687 --    23 C    1.622     2 C    1.007    25 F    0.858
    25   9 F    0.964 --    24 C    0.858
    26   1 H    1.011 --     1 C    0.988
    27   1 H    1.017 --     1 C    0.989
    28   1 H    1.010 --     1 C    0.987
    29   1 H    1.006 --     2 C    0.960
    30   1 H    1.007 --     3 C    0.973
    31   1 H    1.012 --     5 C    0.971
    32   1 H    1.021 --     5 C    0.967
    33   1 H    0.958 --     6 N    0.899
    34   1 H    1.004 --    13 C    0.985
    35   1 H    1.006 --    13 C    0.984
    36   1 H    1.006 --    13 C    0.980
    37   1 H    1.002 --    14 C    0.986
    38   1 H    1.006 --    14 C    0.983
    39   1 H    1.009 --    14 C    0.983
    40   1 H    0.970 --    15 N    0.947
    41   1 H    0.982 --    15 N    0.940
    42   1 H    1.009 --    17 C    0.978
    43   1 H    1.003 --    17 C    0.978
    44   1 H    1.012 --    17 C    0.973
    45   1 H    0.861 --    21 O    0.815
    46   1 H    1.002 --    22 C    0.977
    47   1 H    1.006 --    23 C    0.971
 ---------------------------------------------------------------------------

           -------------------------------------------------
          | TOTAL ENERGY              -80.179841944304 Eh   |
          | GRADIENT NORM               0.000480220353 Eh/α |
          | HOMO-LUMO GAP               0.094659657266 eV   |
           -------------------------------------------------

 * finished run on 2023/06/20 at 15:06:59.033
