   * xtb version 6.5.1 (579679a) compiled by 'ehlert@majestix' on 2022-07-11
          program call               : /lustre/hpc/kemi/ree/PhD/git/ReactivityQM/dep/xtb-6.5.1/bin/xtb --gfn 1 /lustre/hpc/kemi/ree/PhD/git/ReactivityQM/calculations/R02oxygendeprot/reac01/conf09/R02oxygendeprot_reac01_conf09_gfn1.xyz --opt --vfukui --chrg -1 --uhf 0 --alpb DMSO

   ID    Z sym.   atoms
    1    6 C      1, 3, 5, 7-10, 12, 14, 17, 18, 21, 23
    2    8 O      2, 4, 13, 19, 22, 24
    3    7 N      6, 11, 15, 16, 20
    4    1 H      25-38

      * Solvation model:               ALPB
        Solvent                        DMSO
        Solvent mass                       7.8130E+01 g/mol
          :  Hamiltonian                  GFN1-xTB          :
 * total energy  :   -79.6042951 Eh     change       -0.4476419E-10 Eh
 * total energy  :   -79.6155188 Eh     change       -0.1122370E-01 Eh
 * total energy  :   -79.6194682 Eh     change       -0.3949423E-02 Eh
 * total energy  :   -79.6204273 Eh     change       -0.9590595E-03 Eh
 * total energy  :   -79.6214031 Eh     change       -0.9758148E-03 Eh
 * total energy  :   -79.6220894 Eh     change       -0.6863108E-03 Eh
 * total energy  :   -79.6227242 Eh     change       -0.6348071E-03 Eh
 * total energy  :   -79.6231951 Eh     change       -0.4708749E-03 Eh
 * total energy  :   -79.6234365 Eh     change       -0.2413852E-03 Eh
 * total energy  :   -79.6235469 Eh     change       -0.1104363E-03 Eh
 * total energy  :   -79.6268226 Eh     change       -0.6685407E-05 Eh
 * total energy  :   -79.6268294 Eh     change       -0.6784199E-05 Eh
 * total energy  :   -79.6268364 Eh     change       -0.7004420E-05 Eh
 * total energy  :   -79.6268435 Eh     change       -0.7067408E-05 Eh
 * total energy  :   -79.6268502 Eh     change       -0.6708426E-05 Eh
 * total energy  :   -79.6268564 Eh     change       -0.6197273E-05 Eh
 * total energy  :   -79.6268620 Eh     change       -0.5587124E-05 Eh
 * total energy  :   -79.6268671 Eh     change       -0.5157042E-05 Eh
 * total energy  :   -79.6268688 Eh     change       -0.1698778E-05 Eh
   *** GEOMETRY OPTIMIZATION CONVERGED AFTER 68 ITERATIONS ***

 final structure:
================
38
 xtb: 6.5.1 (579679a)
C           -5.70899749254218        0.18504175686487        1.72028862668713
O           -4.41069731965759       -0.07583710898151        1.20832658459715
C           -4.36234778485238       -0.50580840399857       -0.09166950361508
O           -5.39348444785733       -0.63349277372739       -0.73427533056269
C           -3.00651438041617       -0.76748558839033       -0.54139664195715
N           -2.01586694588841       -0.52677052118005        0.39487552082257
C           -0.78822262476196       -0.73562030643435        0.10349200862921
C            0.30677044275389       -0.51153332154997        1.12594660712086
C            0.77983569997428       -1.86142939605054        1.67428195832149
C           -0.20038485591837        0.38617904592520        2.25746754240496
N            1.45865329774333        0.11515102448500        0.46324337014465
C            1.36148228812734        1.27297816033417       -0.21892180412043
O            0.32825868878746        1.89304936809859       -0.41037237386295
C            2.66595898639865        1.72929445871050       -0.76817040951671
N            2.89127466557705        2.77253625822954       -1.50477799283928
N            4.22497700705301        2.77153973085823       -1.79142301755062
C            4.72984808212636        1.72785539355891       -1.21248956030947
C            6.13794222942153        1.27642299528565       -1.22206376328118
O            3.79739390622860        1.02455340570812       -0.54876206140382
N           -0.39555398823914       -1.22123537106088       -1.12723385173145
C           -1.26535593211703       -1.49331937647916       -2.15074085770620
O           -0.83598200092585       -1.92379417889468       -3.21913895295538
C           -2.72694261605078       -1.23457441513231       -1.85379720409929
O           -3.56394152642100       -1.44886753871156       -2.74924862901011
H           -6.33665424348556       -0.71040315230749        1.66355702272388
H           -6.19449994834909        0.99189441074521        1.16101059392025
H           -5.58772086834752        0.48190347273402        2.76117603071856
H           -0.05147415999068       -2.37350541121614        2.15692894258894
H            1.15708051121846       -2.48515037123194        0.86573306666892
H            1.57357625541451       -1.71326844505072        2.40389359674876
H            0.59347112395299        0.55542307792525        2.98154873330902
H           -1.04075425917612       -0.10114167322374        2.75026767691441
H           -0.53496500741347        1.34338778357071        1.85868685873013
H            2.36767767259795       -0.27475156076955        0.63426840510158
H            6.52037311028010        1.22975074422308       -0.20296519213029
H            6.74051733767343        1.96668796621177       -1.80706264045935
H            6.20494902818727        0.27690770506528       -1.65110073835089
H            0.58032006889262       -1.40256884415344       -1.29096462067746

          :  Hamiltonian                  GFN1-xTB          :
         :: total energy             -79.626868839633 Eh    ::
         :: gradient norm              0.000146637060 Eh/a0 ::
         :: HOMO-LUMO gap              1.622093951198 eV    ::
         :: SCC energy               -80.355344195875 Eh    ::
         :: -> Gsolv                  -0.145047970159 Eh    ::
         :: repulsion energy           0.751768147343 Eh    ::

    * Orbital Energies and Occupations

         #    Occupation            Energy/Eh            Energy/eV
      -------------------------------------------------------------
         1        2.0000           -0.8609133             -23.4266
       ...           ...                  ...                  ...
        52        2.0000           -0.4817672             -13.1096
        53        2.0000           -0.4752337             -12.9318
        54        2.0000           -0.4643189             -12.6348
        55        2.0000           -0.4595716             -12.5056
        56        2.0000           -0.4547291             -12.3738
        57        2.0000           -0.4540312             -12.3548
        58        2.0000           -0.4469694             -12.1627
        59        2.0000           -0.4427021             -12.0465
        60        2.0000           -0.4374258             -11.9030
        61        2.0000           -0.4353382             -11.8462
        62        2.0000           -0.4141278             -11.2690
        63        2.0000           -0.3761394             -10.2353
        64        2.0000           -0.3638512              -9.9009 (HOMO)
        65                         -0.3042403              -8.2788 (LUMO)
        66                         -0.2687147              -7.3121
        67                         -0.2526714              -6.8755
        68                         -0.2364561              -6.4343
        69                         -0.1950743              -5.3082
        70                         -0.1921152              -5.2277
        71                         -0.1396026              -3.7988
        72                         -0.1246449              -3.3918
        73                         -0.1220712              -3.3217
        74                         -0.1138252              -3.0973
        75                         -0.1069930              -2.9114
       ...                                ...                  ...
       124                          0.7663760              20.8542
      -------------------------------------------------------------
                  HL-Gap            0.0596109 Eh            1.6221 eV

Wiberg/Mayer (AO) data.
largest (>0.10) Wiberg bond orders for each atom

     #   Z sym  total        # sym  WBO       # sym  WBO       # sym  WBO
 ---------------------------------------------------------------------------
     1   6 C    3.900 --    27 H    0.987    26 H    0.981    25 H    0.980
                             2 O    0.928
     2   8 O    2.136 --     3 C    1.023     1 C    0.928     4 O    0.108
     3   6 C    3.849 --     4 O    1.590     5 C    1.121     2 O    1.023
     4   8 O    1.866 --     3 C    1.590     2 O    0.108
     5   6 C    3.916 --    23 C    1.268     6 N    1.151     3 C    1.121
                            24 O    0.130
     6   7 N    3.029 --     7 C    1.638     5 C    1.151
     7   6 C    3.933 --     6 N    1.638    20 N    1.092     8 C    0.973
     8   6 C    3.932 --    10 C    0.992     9 C    0.989     7 C    0.973
                            11 N    0.916
     9   6 C    3.991 --     8 C    0.989    29 H    0.984    28 H    0.984
                            30 H    0.984
    10   6 C    3.991 --     8 C    0.992    31 H    0.987    32 H    0.984
                            33 H    0.981
    11   7 N    3.354 --    12 C    1.264     8 C    0.916    34 H    0.895
                            13 O    0.179
    12   6 C    3.920 --    13 O    1.584    11 N    1.264    14 C    0.988
    13   8 O    1.887 --    12 C    1.584    11 N    0.179
    14   6 C    3.870 --    15 N    1.625    19 O    1.048    12 C    0.988
    15   7 N    2.997 --    14 C    1.625    16 N    1.195
    16   7 N    2.981 --    17 C    1.614    15 N    1.195
    17   6 C    3.870 --    16 N    1.614    19 O    1.072    18 C    1.031
    18   6 C    3.987 --    17 C    1.031    36 H    0.983    35 H    0.963
                            37 H    0.963
    19   8 O    2.316 --    17 C    1.072    14 C    1.048
    20   7 N    3.427 --    21 C    1.164     7 C    1.092    38 H    0.898
                            22 O    0.135
    21   6 C    3.878 --    22 O    1.576    20 N    1.164    23 C    0.967
    22   8 O    1.854 --    21 C    1.576    20 N    0.135
    23   6 C    3.943 --    24 O    1.522     5 C    1.268    21 C    0.967
    24   8 O    1.826 --    23 C    1.522     5 C    0.130
    25   1 H    1.014 --     1 C    0.980
    26   1 H    1.014 --     1 C    0.981
    27   1 H    1.016 --     1 C    0.987
    28   1 H    1.003 --     9 C    0.984
    29   1 H    1.000 --     9 C    0.984
    30   1 H    0.998 --     9 C    0.984
    31   1 H    1.003 --    10 C    0.987
    32   1 H    1.013 --    10 C    0.984
    33   1 H    1.014 --    10 C    0.981
    34   1 H    0.937 --    11 N    0.895
    35   1 H    0.997 --    18 C    0.963
    36   1 H    0.999 --    18 C    0.983
    37   1 H    0.997 --    18 C    0.963
    38   1 H    0.949 --    20 N    0.898
 ---------------------------------------------------------------------------

           -------------------------------------------------
          | TOTAL ENERGY              -79.626868839633 Eh   |
          | GRADIENT NORM               0.000146637060 Eh/α |
          | HOMO-LUMO GAP               1.622093951198 eV   |
           -------------------------------------------------

 * finished run on 2023/06/21 at 17:00:37.633
