   * xtb version 6.5.1 (579679a) compiled by 'ehlert@majestix' on 2022-07-11
          program call               : /lustre/hpc/kemi/ree/PhD/git/ReactivityQM/dep/xtb-6.5.1/bin/xtb --gfn 1 /lustre/hpc/kemi/ree/PhD/git/ReactivityQM/calculations/R02methylcation/reac01prodN13/conf04/R02methylcation_reac01prodN13_conf04_gfn1.xyz --opt --vfukui --chrg 0 --uhf 0 --alpb DMSO

   ID    Z sym.   atoms
    1    6 C      1, 3, 5, 7-10, 12, 14, 17-19, 22, 24
    2    8 O      2, 4, 13, 20, 23, 25
    3    7 N      6, 11, 15, 16, 21
    4    1 H      26-42

      * Solvation model:               ALPB
        Solvent                        DMSO
        Solvent mass                       7.8130E+01 g/mol
          :  Hamiltonian                  GFN1-xTB          :
 * total energy  :   -82.9265011 Eh     change       -0.2445404E-09 Eh
 * total energy  :   -82.9362842 Eh     change       -0.9783090E-02 Eh
 * total energy  :   -82.9399505 Eh     change       -0.3666241E-02 Eh
 * total energy  :   -82.9403949 Eh     change       -0.4444900E-03 Eh
 * total energy  :   -82.9406372 Eh     change       -0.2422721E-03 Eh
 * total energy  :   -82.9407485 Eh     change       -0.1112780E-03 Eh
 * total energy  :   -82.9408468 Eh     change       -0.9834450E-04 Eh
 * total energy  :   -82.9409164 Eh     change       -0.6958405E-04 Eh
 * total energy  :   -82.9409654 Eh     change       -0.4896628E-04 Eh
 * total energy  :   -82.9409957 Eh     change       -0.3033958E-04 Eh
 * total energy  :   -82.9410603 Eh     change       -0.1861004E-04 Eh
 * total energy  :   -82.9410853 Eh     change       -0.2501521E-04 Eh
 * total energy  :   -82.9411018 Eh     change       -0.1646027E-04 Eh
 * total energy  :   -82.9411142 Eh     change       -0.1237118E-04 Eh
 * total energy  :   -82.9411263 Eh     change       -0.1219776E-04 Eh
 * total energy  :   -82.9411397 Eh     change       -0.1331416E-04 Eh
 * total energy  :   -82.9411462 Eh     change       -0.6540677E-05 Eh
 * total energy  :   -82.9411514 Eh     change       -0.5195870E-05 Eh
 * total energy  :   -82.9411546 Eh     change       -0.3231253E-05 Eh
   *** GEOMETRY OPTIMIZATION CONVERGED AFTER 21 ITERATIONS ***

 final structure:
================
42
 xtb: 6.5.1 (579679a)
C           -6.84509193357504       -0.67285720332724       -1.07127039138225
O           -5.62872124021759       -0.92658539777532       -0.36708485386329
C           -4.66295377207567       -0.01786219807889       -0.50906627474989
O           -4.79516528606803        0.98093274640765       -1.18759029752697
C           -3.41588356155791       -0.33740241486835        0.23232902545549
N           -2.45385529587484        0.59819016677519        0.08084186730063
C           -1.29421299543919        0.46546460172943        0.65355395846768
C           -0.25773094101059        1.55251606306320        0.50112689210804
C           -0.25793306817250        2.38650929495321        1.79341095454821
C           -0.57222472534761        2.42153864989724       -0.72050413834850
N            1.04799973596351        0.90470295492118        0.32244525124389
C            2.20719091761687        1.59188562315322        0.23838723402651
O            2.34503507487534        2.79498479631441        0.37048321211675
C            3.36357884556781        0.70186302311786       -0.04270557655634
N            4.63573191904249        1.10765378982727       -0.17904853458084
N            5.36499939764151        0.08562290145510       -0.43789290840970
C            4.53698096705352       -1.08979597041574       -0.48599804587412
C            4.95101182827301       -2.08297691017099        0.60177776202083
C            4.56968270251338       -1.70785310689193       -1.88578381805185
O            3.22307154169526       -0.59281480177552       -0.21104402636391
N           -1.00138318940793       -0.59507216291049        1.45208050151099
C           -1.87720818534853       -1.63917627215382        1.70650591899800
O           -1.54082476611222       -2.55381607580480        2.43096465821107
C           -3.22853142183598       -1.52267139404325        1.02884952533263
O           -4.06055839554740       -2.41127108565460        1.19544001424855
H           -7.28635538642234        0.26888743847159       -0.73555568127844
H           -7.51373763300908       -1.50274017297397       -0.85084526544857
H           -6.65289550203456       -0.61625673747371       -2.14563587363196
H            0.43638188552535        3.21951552765799        1.70485590953169
H           -1.26042987917378        2.77572607951488        1.96735937295623
H            0.03511248238868        1.76306099139871        2.63630554750397
H            0.15973071916315        3.22210960161261       -0.80548041871613
H           -1.56674361307843        2.85140714228430       -0.60893595746703
H           -0.54918387396176        1.81348881998086       -1.62319864080268
H            1.07058061572696       -0.07852502043240        0.10765776703750
H            4.90753073419537       -1.59398930121969        1.57239004603327
H            5.96536191924270       -2.42250256558176        0.40774583740943
H            4.27004033981779       -2.93035229464599        0.58941933422312
H            4.24303872814079       -0.96821007482159       -2.61362356417402
H            5.58549179838239       -2.02195189936083       -2.11273574716356
H            3.90303740962683       -2.56621539027633       -1.91380793544648
H           -0.09996789720021       -0.65516576185392        1.89717935955310

          :  Hamiltonian                  GFN1-xTB          :
         :: total energy             -82.941154631766 Eh    ::
         :: gradient norm              0.000689100657 Eh/a0 ::
         :: HOMO-LUMO gap              0.043325927779 eV    ::
         :: SCC energy               -83.707722507233 Eh    ::
         :: -> Gsolv                  -0.070782598331 Eh    ::
         :: repulsion energy           0.792022018002 Eh    ::

    * Orbital Energies and Occupations

         #    Occupation            Energy/Eh            Energy/eV
      -------------------------------------------------------------
         1        2.0000           -0.8818102             -23.9953
       ...           ...                  ...                  ...
        55        2.0000           -0.5126362             -13.9495
        56        2.0000           -0.5102795             -13.8854
        57        2.0000           -0.5071628             -13.8006
        58        2.0000           -0.5030913             -13.6898
        59        2.0000           -0.4906025             -13.3500
        60        2.0000           -0.4866195             -13.2416
        61        2.0000           -0.4816204             -13.1056
        62        2.0000           -0.4739324             -12.8964
        63        2.0000           -0.4676560             -12.7256
        64        2.0000           -0.4669446             -12.7062
        65        2.0000           -0.4599232             -12.5151
        66        2.0000           -0.4237902             -11.5319
        67        1.3961           -0.4072020             -11.0805 (HOMO)
        68        0.6039           -0.4056098             -11.0372 (LUMO)
        69                         -0.3216700              -8.7531
        70                         -0.3098929              -8.4326
        71                         -0.2844445              -7.7401
        72                         -0.2349990              -6.3946
        73                         -0.2221680              -6.0455
        74                         -0.1566954              -4.2639
        75                         -0.1428776              -3.8879
        76                         -0.1374127              -3.7392
        77                         -0.1335952              -3.6353
        78                         -0.1329406              -3.6175
       ...                                ...                  ...
       134                          0.7484944              20.3676
      -------------------------------------------------------------
                  HL-Gap            0.0015922 Eh            0.0433 eV

Wiberg/Mayer (AO) data.
largest (>0.10) Wiberg bond orders for each atom

     #   Z sym  total        # sym  WBO       # sym  WBO       # sym  WBO
 ---------------------------------------------------------------------------
     1   6 C    3.875 --    27 H    0.986    28 H    0.979    26 H    0.979
                             2 O    0.902
     2   8 O    2.194 --     3 C    1.109     1 C    0.902     4 O    0.132
     3   6 C    3.842 --     4 O    1.632     2 O    1.109     5 C    1.023
     4   8 O    1.877 --     3 C    1.632     2 O    0.132
     5   6 C    3.710 --     6 N    1.294    24 C    1.164     3 C    1.023
     6   7 N    2.986 --     7 C    1.481     5 C    1.294
     7   6 C    3.790 --     6 N    1.481    21 N    1.187     8 C    0.987
     8   6 C    3.924 --     7 C    0.987    10 C    0.986     9 C    0.967
                            11 N    0.918
     9   6 C    3.973 --    31 H    0.984    30 H    0.984    29 H    0.976
                             8 C    0.967
    10   6 C    3.983 --     8 C    0.986    34 H    0.985    32 H    0.982
                            33 H    0.982
    11   7 N    3.329 --    12 C    1.251     8 C    0.918    35 H    0.889
                            13 O    0.188
    12   6 C    3.909 --    13 O    1.585    11 N    1.251    14 C    0.991
    13   8 O    1.892 --    12 C    1.585    11 N    0.188
    14   6 C    3.624 --    15 N    1.316    20 O    1.175    12 C    0.991
    15   7 N    2.998 --    16 N    1.542    14 C    1.316
    16   7 N    2.687 --    15 N    1.542    17 C    1.024
    17   6 C    3.834 --    16 N    1.024    18 C    0.939    19 C    0.938
                            20 O    0.870
    18   6 C    3.938 --    36 H    0.982    37 H    0.982    38 H    0.980
                            17 C    0.939
    19   6 C    3.937 --    39 H    0.982    40 H    0.982    41 H    0.980
                            17 C    0.938
    20   8 O    2.199 --    14 C    1.175    17 C    0.870
    21   7 N    3.421 --     7 C    1.187    22 C    1.103    42 H    0.882
                            23 O    0.112
    22   6 C    3.838 --    23 O    1.657    21 N    1.103    24 C    0.948
    23   8 O    1.878 --    22 C    1.657    21 N    0.112
    24   6 C    3.865 --    25 O    1.615     5 C    1.164    22 C    0.948
    25   8 O    1.793 --    24 C    1.615
    26   1 H    1.007 --     1 C    0.979
    27   1 H    1.011 --     1 C    0.986
    28   1 H    1.007 --     1 C    0.979
    29   1 H    1.007 --     9 C    0.976
    30   1 H    1.000 --     9 C    0.984
    31   1 H    1.000 --     9 C    0.984
    32   1 H    1.005 --    10 C    0.982
    33   1 H    1.009 --    10 C    0.982
    34   1 H    1.002 --    10 C    0.985
    35   1 H    0.932 --    11 N    0.889
    36   1 H    0.996 --    18 C    0.982
    37   1 H    0.997 --    18 C    0.982
    38   1 H    0.996 --    18 C    0.980
    39   1 H    0.996 --    19 C    0.982
    40   1 H    0.997 --    19 C    0.982
    41   1 H    0.996 --    19 C    0.980
    42   1 H    0.927 --    21 N    0.882
 ---------------------------------------------------------------------------

           -------------------------------------------------
          | TOTAL ENERGY              -82.941154631766 Eh   |
          | GRADIENT NORM               0.000689100657 Eh/α |
          | HOMO-LUMO GAP               0.043325927779 eV   |
           -------------------------------------------------

 * finished run on 2023/06/21 at 17:46:59.607
