                         Program Version 5.0.1 -  RELEASE  -
|  1> # ORCA input file
|  2> ! SP r2SCAN-3c CPCM
|  3>
|  4> %maxcore 1875.0
|  5> %pal nprocs 4 end
|  6> %cpcm smd true SMDsolvent "DMSO" end
|  7>
|  8> *xyz 1 1
|  9> C      -6.338147   -0.526881   -1.011068
| 10> O      -5.134214   -0.006466   -0.424905
| 11> C      -4.037045   -0.714894   -0.585993
| 12> O      -3.975957   -1.754228   -1.197076
| 13> C      -2.857514   -0.105594    0.124215
| 14> C      -2.972205    0.659744    1.241070
| 15> O      -4.127987    1.045013    1.767277
| 16> C      -1.773130    1.110389    1.933064
| 17> O      -1.806967    1.901123    2.853478
| 18> N      -0.577753    0.527341    1.506459
| 19> C       0.552382    1.042288    2.298569
| 20> C      -0.477136   -0.278173    0.421407
| 21> C       0.765059   -1.178058    0.308846
| 22> C       0.791892   -2.240215   -0.799445
| 23> C       0.885277   -1.952336    1.635041
| 24> N       1.932931   -0.328015    0.097905
| 25> C       1.783985    0.782865   -0.659616
| 26> O       0.677022    1.210976   -0.967516
| 27> C       3.046361    1.439682   -1.013975
| 28> N       3.230510    2.540446   -1.676455
| 29> N       4.571223    2.735301   -1.745217
| 30> C       5.130834    1.741560   -1.121829
| 31> C       6.572246    1.487782   -0.919075
| 32> O       4.218327    0.886700   -0.635604
| 33> N      -1.582765   -0.476778   -0.310789
| 34> C      -1.489817   -0.805897   -1.746304
| 35> H      -7.105720    0.227326   -0.851532
| 36> H      -6.184346   -0.702851   -2.077444
| 37> H      -6.610779   -1.463380   -0.520717
| 38> H      -3.968290    1.593188    2.557880
| 39> H       0.382245    0.789846    3.343910
| 40> H       1.495538    0.641971    1.956760
| 41> H       0.549060    2.127909    2.191474
| 42> H      -0.097045   -2.865154   -0.767778
| 43> H       0.917033   -1.801056   -1.784883
| 44> H       1.658487   -2.874412   -0.615606
| 45> H       1.814881   -2.517555    1.624168
| 46> H       0.052011   -2.649201    1.712021
| 47> H       0.884084   -1.311969    2.510037
| 48> H       2.844227   -0.734490    0.234046
| 49> H       7.154386    2.306883   -1.335113
| 50> H       6.782595    1.387223    0.145678
| 51> H       6.852757    0.552929   -1.404500
| 52> H      -2.273574   -0.257054   -2.263455
| 53> H      -0.529081   -0.462054   -2.113885
| 54> H      -1.625883   -1.870811   -1.913526
| 55> **                         ****END OF INPUT****

CARTESIAN COORDINATES (ANGSTROEM)
---------------------------------
  C     -6.338147   -0.526881   -1.011068
  O     -5.134214   -0.006466   -0.424905
  C     -4.037045   -0.714894   -0.585993
  O     -3.975957   -1.754228   -1.197076
  C     -2.857514   -0.105594    0.124215
  C     -2.972205    0.659744    1.241070
  O     -4.127987    1.045013    1.767277
  C     -1.773130    1.110389    1.933064
  O     -1.806967    1.901123    2.853478
  N     -0.577753    0.527341    1.506459
  C      0.552382    1.042288    2.298569
  C     -0.477136   -0.278173    0.421407
  C      0.765059   -1.178058    0.308846
  C      0.791892   -2.240215   -0.799445
  C      0.885277   -1.952336    1.635041
  N      1.932931   -0.328015    0.097905
  C      1.783985    0.782865   -0.659616
  O      0.677022    1.210976   -0.967516
  C      3.046361    1.439682   -1.013975
  N      3.230510    2.540446   -1.676455
  N      4.571223    2.735301   -1.745217
  C      5.130834    1.741560   -1.121829
  C      6.572246    1.487782   -0.919075
  O      4.218327    0.886700   -0.635604
  N     -1.582765   -0.476778   -0.310789
  C     -1.489817   -0.805897   -1.746304
  H     -7.105720    0.227326   -0.851532
  H     -6.184346   -0.702851   -2.077444
  H     -6.610779   -1.463380   -0.520717
  H     -3.968290    1.593188    2.557880
  H      0.382245    0.789846    3.343910
  H      1.495538    0.641971    1.956760
  H      0.549060    2.127909    2.191474
  H     -0.097045   -2.865154   -0.767778
  H      0.917033   -1.801056   -1.784883
  H      1.658487   -2.874412   -0.615606
  H      1.814881   -2.517555    1.624168
  H      0.052011   -2.649201    1.712021
  H      0.884084   -1.311969    2.510037
  H      2.844227   -0.734490    0.234046
  H      7.154386    2.306883   -1.335113
  H      6.782595    1.387223    0.145678
  H      6.852757    0.552929   -1.404500
  H     -2.273574   -0.257054   -2.263455
  H     -0.529081   -0.462054   -2.113885
  H     -1.625883   -1.870811   -1.913526

 Total Charge           Charge          ....    1
 Multiplicity           Mult            ....    1
 Number of Electrons    NEL             ....  192
 Basis Dimension        Dim             ....  649

ORBITAL ENERGIES
----------------

  NO   OCC          E(Eh)            E(eV)
   0   2.0000     -19.075645      -519.0747
   1   2.0000     -19.020416      -517.5718
   2   2.0000     -19.018558      -517.5213
   3   2.0000     -18.968333      -516.1546
   4   2.0000     -18.966452      -516.1034
   5   2.0000     -18.957151      -515.8503
   6   2.0000     -14.277341      -388.5062
   7   2.0000     -14.271432      -388.3454
   8   2.0000     -14.222639      -387.0177
   9   2.0000     -14.216512      -386.8510
  10   2.0000     -14.205380      -386.5480
  11   2.0000     -10.194514      -277.4068
  12   2.0000     -10.187379      -277.2127
  13   2.0000     -10.179259      -276.9917
  14   2.0000     -10.176521      -276.9172
  15   2.0000     -10.156539      -276.3735
  16   2.0000     -10.155309      -276.3400
  17   2.0000     -10.147879      -276.1378
  18   2.0000     -10.137419      -275.8532
  19   2.0000     -10.128363      -275.6068
  20   2.0000     -10.085300      -274.4350
  21   2.0000     -10.078171      -274.2410
  22   2.0000     -10.076860      -274.2053
  23   2.0000     -10.049320      -273.4559
  24   2.0000     -10.040552      -273.2173
  25   2.0000     -10.036220      -273.0994
  26   2.0000      -1.166074       -31.7305
  27   2.0000      -1.100339       -29.9418
  28   2.0000      -1.084827       -29.5196
  29   2.0000      -1.058907       -28.8143
  30   2.0000      -1.050188       -28.5771
  31   2.0000      -1.021915       -27.8077
  32   2.0000      -1.005645       -27.3650
  33   2.0000      -0.986916       -26.8554
  34   2.0000      -0.950445       -25.8629
  35   2.0000      -0.935980       -25.4693
  36   2.0000      -0.843701       -22.9583
  37   2.0000      -0.818375       -22.2691
  38   2.0000      -0.783143       -21.3104
  39   2.0000      -0.753151       -20.4943
  40   2.0000      -0.723942       -19.6995
  41   2.0000      -0.721294       -19.6274
  42   2.0000      -0.699398       -19.0316
  43   2.0000      -0.685061       -18.6415
  44   2.0000      -0.673220       -18.3192
  45   2.0000      -0.664600       -18.0847
  46   2.0000      -0.656360       -17.8605
  47   2.0000      -0.614095       -16.7104
  48   2.0000      -0.604537       -16.4503
  49   2.0000      -0.594613       -16.1803
  50   2.0000      -0.593405       -16.1474
  51   2.0000      -0.562635       -15.3101
  52   2.0000      -0.550170       -14.9709
  53   2.0000      -0.544496       -14.8165
  54   2.0000      -0.519261       -14.1298
  55   2.0000      -0.505402       -13.7527
  56   2.0000      -0.501399       -13.6437
  57   2.0000      -0.494805       -13.4643
  58   2.0000      -0.477241       -12.9864
  59   2.0000      -0.470825       -12.8118
  60   2.0000      -0.466393       -12.6912
  61   2.0000      -0.461856       -12.5677
  62   2.0000      -0.455533       -12.3957
  63   2.0000      -0.451915       -12.2972
  64   2.0000      -0.449744       -12.2382
  65   2.0000      -0.436854       -11.8874
  66   2.0000      -0.432858       -11.7787
  67   2.0000      -0.425914       -11.5897
  68   2.0000      -0.416308       -11.3283
  69   2.0000      -0.409559       -11.1447
  70   2.0000      -0.407424       -11.0866
  71   2.0000      -0.399202       -10.8628
  72   2.0000      -0.397804       -10.8248
  73   2.0000      -0.390820       -10.6348
  74   2.0000      -0.386264       -10.5108
  75   2.0000      -0.385102       -10.4792
  76   2.0000      -0.378119       -10.2891
  77   2.0000      -0.373388       -10.1604
  78   2.0000      -0.372513       -10.1366
  79   2.0000      -0.368809       -10.0358
  80   2.0000      -0.365325        -9.9410
  81   2.0000      -0.356040        -9.6883
  82   2.0000      -0.353859        -9.6290
  83   2.0000      -0.348777        -9.4907
  84   2.0000      -0.333357        -9.0711
  85   2.0000      -0.330934        -9.0052
  86   2.0000      -0.324009        -8.8167
  87   2.0000      -0.301642        -8.2081
  88   2.0000      -0.291371        -7.9286
  89   2.0000      -0.285331        -7.7642
  90   2.0000      -0.281110        -7.6494
  91   2.0000      -0.275010        -7.4834
  92   2.0000      -0.271021        -7.3749
  93   2.0000      -0.266639        -7.2556
  94   2.0000      -0.261539        -7.1168
  95   2.0000      -0.236940        -6.4475
  96   0.0000      -0.113954        -3.1009
  97   0.0000      -0.105347        -2.8666
  98   0.0000      -0.098364        -2.6766
  99   0.0000      -0.028712        -0.7813
 100   0.0000      -0.019304        -0.5253

MULLIKEN ATOMIC CHARGES
-----------------------
   0 C :   -0.312812
   1 O :   -0.144262
   2 C :    0.223884
   3 O :   -0.405634
   4 C :    0.045961
   5 C :    0.044992
   6 O :   -0.351371
   7 C :    0.250981
   8 O :   -0.447081
   9 N :    0.338565
  10 C :   -0.479836
  11 C :   -0.173300
  12 C :   -0.098741
  13 C :   -0.583696
  14 C :   -0.439266
  15 N :   -0.143969
  16 C :   -0.045760
  17 O :   -0.409523
  18 C :    0.354211
  19 N :   -0.140142
  20 N :   -0.282349
  21 C :    0.417332
  22 C :   -0.627778
  23 O :   -0.049711
  24 N :    0.503390
  25 C :   -0.430252
  26 H :    0.183716
  27 H :    0.182103
  28 H :    0.183524
  29 H :    0.372171
  30 H :    0.218219
  31 H :    0.237140
  32 H :    0.213664
  33 H :    0.216271
  34 H :    0.196556
  35 H :    0.200763
  36 H :    0.205165
  37 H :    0.210953
  38 H :    0.187849
  39 H :    0.331811
  40 H :    0.207562
  41 H :    0.203320
  42 H :    0.205108
  43 H :    0.202001
  44 H :    0.204641
  45 H :    0.223628
Sum of atomic charges:    1.0000000

LOEWDIN ATOMIC CHARGES
----------------------
   0 C :   -0.026844
   1 O :   -0.553634
   2 C :    0.399114
   3 O :   -0.413548
   4 C :    0.246412
   5 C :    0.296159
   6 O :   -0.411558
   7 C :    0.398657
   8 O :   -0.429711
   9 N :   -0.617526
  10 C :   -0.060245
  11 C :    0.469156
  12 C :    0.117196
  13 C :   -0.331455
  14 C :   -0.320935
  15 N :   -0.589896
  16 C :    0.400611
  17 O :   -0.433650
  18 C :    0.413735
  19 N :   -0.319850
  20 N :   -0.348764
  21 C :    0.388652
  22 C :   -0.314425
  23 O :   -0.383940
  24 N :   -0.651987
  25 C :   -0.055031
  26 H :    0.190642
  27 H :    0.187243
  28 H :    0.186505
  29 H :    0.317679
  30 H :    0.209079
  31 H :    0.218415
  32 H :    0.215327
  33 H :    0.180397
  34 H :    0.178003
  35 H :    0.183253
  36 H :    0.184007
  37 H :    0.185982
  38 H :    0.181655
  39 H :    0.308967
  40 H :    0.192851
  41 H :    0.193847
  42 H :    0.194668
  43 H :    0.213821
  44 H :    0.206984
  45 H :    0.203981

  Mayer bond orders larger than 0.100000
B(  0-C ,  1-O ) :   0.8229 B(  0-C , 26-H ) :   0.9603 B(  0-C , 27-H ) :   0.9519
B(  0-C , 28-H ) :   0.9495 B(  1-O ,  2-C ) :   1.1732 B(  2-C ,  3-O ) :   1.8234
B(  2-C ,  4-C ) :   0.9461 B(  4-C ,  5-C ) :   1.5033 B(  4-C ,  6-O ) :   0.1202
B(  4-C , 24-N ) :   1.1383 B(  5-C ,  6-O ) :   1.0463 B(  5-C ,  7-C ) :   0.9736
B(  6-O , 29-H ) :   0.8183 B(  7-C ,  8-O ) :   1.8094 B(  7-C ,  9-N ) :   1.0342
B(  9-N , 10-C ) :   0.8106 B(  9-N , 11-C ) :   1.3168 B(  9-N , 24-N ) :   0.1111
B( 10-C , 30-H ) :   0.9280 B( 10-C , 31-H ) :   0.9192 B( 10-C , 32-H ) :   0.9164
B( 11-C , 12-C ) :   0.7137 B( 11-C , 17-O ) :   0.1757 B( 11-C , 24-N ) :   1.3169
B( 12-C , 13-C ) :   0.9470 B( 12-C , 14-C ) :   1.0311 B( 12-C , 15-N ) :   0.6798
B( 13-C , 33-H ) :   0.9657 B( 13-C , 34-H ) :   0.9421 B( 13-C , 35-H ) :   0.9302
B( 14-C , 36-H ) :   0.9533 B( 14-C , 37-H ) :   0.9595 B( 14-C , 38-H ) :   0.9098
B( 15-N , 16-C ) :   1.1983 B( 15-N , 39-H ) :   0.8946 B( 16-C , 17-O ) :   1.6062
B( 16-C , 18-C ) :   0.9526 B( 16-C , 20-N ) :   0.1359 B( 18-C , 19-N ) :   1.7415
B( 18-C , 21-C ) :   0.1457 B( 18-C , 23-O ) :   1.0974 B( 19-N , 20-N ) :   1.2563
B( 20-N , 21-C ) :   1.5805 B( 21-C , 22-C ) :   0.8202 B( 21-C , 23-O ) :   1.0630
B( 22-C , 40-H ) :   0.9880 B( 22-C , 41-H ) :   0.9442 B( 22-C , 42-H ) :   0.9386
B( 24-N , 25-C ) :   0.7984 B( 25-C , 43-H ) :   0.9188 B( 25-C , 44-H ) :   0.9236
B( 25-C , 45-H ) :   0.9230

Dispersion correction           -0.022226932
FINAL SINGLE POINT ENERGY     -1308.359985522423

DIPOLE MOMENT
-------------
                                X             Y             Z
Electronic contribution:     -4.16740      11.70283       0.71328
Nuclear contribution   :      5.70294     -15.28330       0.88556
                        -----------------------------------------
Total Dipole Moment    :      1.53554      -3.58047       1.59884
                        -----------------------------------------
Magnitude (a.u.)       :      4.21117
Magnitude (Debye)      :     10.70394

Rotational constants in cm-1:     0.014745     0.003563     0.003389
Rotational constants in MHz :   442.049708   106.828596   101.597645

                             ****ORCA TERMINATED NORMALLY****
TOTAL RUN TIME: 0 days 0 hours 1 minutes 38 seconds 304 msec
