   * xtb version 6.5.1 (579679a) compiled by 'ehlert@majestix' on 2022-07-11
          program call               : /lustre/hpc/kemi/ree/PhD/git/ReactivityQM/dep/xtb-6.5.1/bin/xtb --gfn 1 /lustre/hpc/kemi/ree/PhD/git/ReactivityQM/calculations/R03/reac02prodN05/conf05/R03_reac02prodN05_conf05_gfn1.xyz --opt --vfukui --chrg 1 --uhf 0 --alpb DMSO

   ID    Z sym.   atoms
    1    6 C      1, 3, 5, 6, 8, 11-15, 17, 19, 22, 23, 26
    2    8 O      2, 4, 7, 9, 18, 24
    3    7 N      10, 16, 20, 21, 25
    4    1 H      27-46

      * Solvation model:               ALPB
        Solvent                        DMSO
        Solvent mass                       7.8130E+01 g/mol
          :  Hamiltonian                  GFN1-xTB          :
 * total energy  :   -86.3087396 Eh     change       -0.4823164E-10 Eh
 * total energy  :   -86.3285359 Eh     change       -0.1979634E-01 Eh
 * total energy  :   -86.3359193 Eh     change       -0.7383312E-02 Eh
 * total energy  :   -86.3380580 Eh     change       -0.2138717E-02 Eh
 * total energy  :   -86.3397860 Eh     change       -0.1727977E-02 Eh
 * total energy  :   -86.3410018 Eh     change       -0.1215895E-02 Eh
 * total energy  :   -86.3421919 Eh     change       -0.1190078E-02 Eh
 * total energy  :   -86.3432377 Eh     change       -0.1045759E-02 Eh
 * total energy  :   -86.3440567 Eh     change       -0.8190297E-03 Eh
 * total energy  :   -86.3446370 Eh     change       -0.5803054E-03 Eh
 * total energy  :   -86.3498062 Eh     change       -0.3112265E-04 Eh
 * total energy  :   -86.3498168 Eh     change       -0.1058875E-04 Eh
 * total energy  :   -86.3498234 Eh     change       -0.6660502E-05 Eh
 * total energy  :   -86.3498301 Eh     change       -0.6683673E-05 Eh
 * total energy  :   -86.3498380 Eh     change       -0.7927572E-05 Eh
 * total energy  :   -86.3498463 Eh     change       -0.8240124E-05 Eh
 * total energy  :   -86.3498541 Eh     change       -0.7779493E-05 Eh
 * total energy  :   -86.3498599 Eh     change       -0.5822976E-05 Eh
 * total energy  :   -86.3498638 Eh     change       -0.3958916E-05 Eh
   *** GEOMETRY OPTIMIZATION CONVERGED AFTER 62 ITERATIONS ***

 final structure:
================
46
 xtb: 6.5.1 (579679a)
C           -6.33814686317070       -0.52688128988195       -1.01106824437950
O           -5.13421359829313       -0.00646597692117       -0.42490542504905
C           -4.03704516906254       -0.71489436298106       -0.58599321861264
O           -3.97595734476236       -1.75422843300606       -1.19707631615286
C           -2.85751373075099       -0.10559379865526        0.12421501150049
C           -2.97220477258120        0.65974421180555        1.24106962885982
O           -4.12798665446190        1.04501259671937        1.76727675527876
C           -1.77312956212032        1.11038872901842        1.93306428173391
O           -1.80696663055456        1.90112280587956        2.85347842476527
N           -0.57775311150141        0.52734074521744        1.50645856668716
C            0.55238162717714        1.04228833096160        2.29856938295789
C           -0.47713617801194       -0.27817325617445        0.42140663009856
C            0.76505871570305       -1.17805839821188        0.30884604719320
C            0.79189235563647       -2.24021523449929       -0.79944501329660
C            0.88527705161189       -1.95233557079569        1.63504109471895
N            1.93293059786236       -0.32801458872081        0.09790507419425
C            1.78398528291987        0.78286512636789       -0.65961582137270
O            0.67702166096457        1.21097571145789       -0.96751622348353
C            3.04636130621551        1.43968189685177       -1.01397502165182
N            3.23050965741495        2.54044635713859       -1.67645536608039
N            4.57122251455275        2.73530129613196       -1.74521746697655
C            5.13083369595512        1.74156024495011       -1.12182864146388
C            6.57224633515230        1.48778179922353       -0.91907462263623
O            4.21832679639423        0.88669975475864       -0.63560402764255
N           -1.58276539221436       -0.47677759787586       -0.31078914580108
C           -1.48981705198955       -0.80589713262424       -1.74630394840585
H           -7.10571995830596        0.22732563782414       -0.85153179186948
H           -6.18434599901130       -0.70285085047445       -2.07744354538922
H           -6.61077925490652       -1.46337954550666       -0.52071668306254
H           -3.96829043282078        1.59318789665155        2.55788037193955
H            0.38224534978794        0.78984627352408        3.34390979361535
H            1.49553768481476        0.64197149811509        1.95675961362926
H            0.54906024734422        2.12790885926707        2.19147422903707
H           -0.09704462676413       -2.86515400289461       -0.76777781513537
H            0.91703324377238       -1.80105597567279       -1.78488316365153
H            1.65848683028801       -2.87441156242972       -0.61560608723579
H            1.81488142602457       -2.51755523822774        1.62416788889954
H            0.05201068876138       -2.64920137868138        1.71202129508334
H            0.88408429334170       -1.31196925669752        2.51003683563582
H            2.84422695976296       -0.73449011504397        0.23404643910048
H            7.15438628664949        2.30688347179183       -1.33511319714738
H            6.78259544420449        1.38722286261431        0.14567796597485
H            6.85275737440475        0.55292863832196       -1.40450046191455
H           -2.27357396339995       -0.25705394677108       -2.26345485358717
H           -0.52908101947966       -0.46205418911424       -2.11388478632840
H           -1.62588311256098       -1.87081104273279       -1.91352644258260

          :  Hamiltonian                  GFN1-xTB          :
         :: total energy             -86.349863843665 Eh    ::
         :: gradient norm              0.000553862271 Eh/a0 ::
         :: HOMO-LUMO gap              2.852562262252 eV    ::
         :: SCC energy               -87.183238435498 Eh    ::
         :: -> Gsolv                  -0.109559718332 Eh    ::
         :: repulsion energy           0.864535111956 Eh    ::

    * Orbital Energies and Occupations

         #    Occupation            Energy/Eh            Energy/eV
      -------------------------------------------------------------
         1        2.0000           -0.8812463             -23.9799
       ...           ...                  ...                  ...
        58        2.0000           -0.5316334             -14.4665
        59        2.0000           -0.5255135             -14.2999
        60        2.0000           -0.5197395             -14.1428
        61        2.0000           -0.5189101             -14.1203
        62        2.0000           -0.5166826             -14.0597
        63        2.0000           -0.5129219             -13.9573
        64        2.0000           -0.4991521             -13.5826
        65        2.0000           -0.4942063             -13.4480
        66        2.0000           -0.4907753             -13.3547
        67        2.0000           -0.4828950             -13.1402
        68        2.0000           -0.4706191             -12.8062
        69        2.0000           -0.4666599             -12.6985
        70        2.0000           -0.4649213             -12.6512 (HOMO)
        71                         -0.3600916              -9.7986 (LUMO)
        72                         -0.3528362              -9.6012
        73                         -0.3357244              -9.1355
        74                         -0.2787256              -7.5845
        75                         -0.2686681              -7.3108
        76                         -0.2200296              -5.9873
        77                         -0.2139410              -5.8216
        78                         -0.1573686              -4.2822
        79                         -0.1561867              -4.2501
        80                         -0.1496752              -4.0729
        81                         -0.1487414              -4.0475
       ...                                ...                  ...
       144                          0.7108358              19.3428
      -------------------------------------------------------------
                  HL-Gap            0.1048297 Eh            2.8526 eV

Wiberg/Mayer (AO) data.
largest (>0.10) Wiberg bond orders for each atom

     #   Z sym  total        # sym  WBO       # sym  WBO       # sym  WBO
 ---------------------------------------------------------------------------
     1   6 C    3.851 --    27 H    0.985    28 H    0.979    29 H    0.978
                             2 O    0.877
     2   8 O    2.233 --     3 C    1.159     1 C    0.877     4 O    0.144
     3   6 C    3.865 --     4 O    1.656     2 O    1.159     5 C    0.975
     4   8 O    1.948 --     3 C    1.656     2 O    0.144
     5   6 C    3.925 --     6 C    1.533    25 N    1.081     3 C    0.975
     6   6 C    3.929 --     5 C    1.533     7 O    1.133     8 C    1.049
     7   8 O    2.105 --     6 C    1.133    30 H    0.793
     8   6 C    3.907 --     9 O    1.630    10 N    1.082     6 C    1.049
     9   8 O    1.955 --     8 C    1.630    10 N    0.119
    10   7 N    3.526 --    12 C    1.267     8 C    1.082    11 C    0.907
                             9 O    0.119
    11   6 C    3.894 --    32 H    0.975    31 H    0.973    33 H    0.966
                            10 N    0.907
    12   6 C    3.897 --    25 N    1.339    10 N    1.267    13 C    0.970
    13   6 C    3.932 --    14 C    0.990    15 C    0.972    12 C    0.970
                            16 N    0.937
    14   6 C    3.982 --    13 C    0.990    34 H    0.980    35 H    0.978
                            36 H    0.975
    15   6 C    3.980 --    38 H    0.982    39 H    0.977    37 H    0.976
                            13 C    0.972
    16   7 N    3.343 --    17 C    1.241    13 C    0.937    40 H    0.879
                            18 O    0.157
    17   6 C    3.908 --    18 O    1.548    16 N    1.241    19 C    1.019
    18   8 O    1.954 --    17 C    1.548    16 N    0.157
    19   6 C    3.880 --    20 N    1.602    24 O    1.047    17 C    1.019
    20   7 N    3.007 --    19 C    1.602    21 N    1.218
    21   7 N    2.983 --    22 C    1.590    20 N    1.218
    22   6 C    3.862 --    21 N    1.590    24 O    1.078    23 C    1.034
    23   6 C    3.983 --    22 C    1.034    41 H    0.981    42 H    0.961
                            43 H    0.958
    24   8 O    2.321 --    22 C    1.078    19 C    1.047
    25   7 N    3.539 --    12 C    1.339     5 C    1.081    26 C    0.898
    26   6 C    3.891 --    44 H    0.975    45 H    0.973    46 H    0.971
                            25 N    0.898
    27   1 H    1.007 --     1 C    0.985
    28   1 H    1.004 --     1 C    0.979
    29   1 H    1.003 --     1 C    0.978
    30   1 H    0.828 --     7 O    0.793
    31   1 H    0.999 --    11 C    0.973
    32   1 H    1.003 --    11 C    0.975
    33   1 H    0.998 --    11 C    0.966
    34   1 H    0.996 --    14 C    0.980
    35   1 H    0.999 --    14 C    0.978
    36   1 H    0.996 --    14 C    0.975
    37   1 H    0.992 --    15 C    0.976
    38   1 H    0.996 --    15 C    0.982
    39   1 H    0.997 --    15 C    0.977
    40   1 H    0.919 --    16 N    0.879
    41   1 H    0.997 --    23 C    0.981
    42   1 H    0.995 --    23 C    0.961
    43   1 H    0.995 --    23 C    0.958
    44   1 H    0.998 --    26 C    0.975
    45   1 H    1.009 --    26 C    0.973
    46   1 H    1.009 --    26 C    0.971
 ---------------------------------------------------------------------------

           -------------------------------------------------
          | TOTAL ENERGY              -86.349863843665 Eh   |
          | GRADIENT NORM               0.000553862271 Eh/α |
          | HOMO-LUMO GAP               2.852562262252 eV   |
           -------------------------------------------------

 * finished run on 2023/06/20 at 15:40:23.083
