   * xtb version 6.5.1 (579679a) compiled by 'ehlert@majestix' on 2022-07-11
          program call               : /lustre/hpc/kemi/ree/PhD/git/ReactivityQM/dep/xtb-6.5.1/bin/xtb --gfn 1 /lustre/hpc/kemi/ree/PhD/git/ReactivityQM/calculations/R02methylcation/reac01prodE09/conf16/R02methylcation_reac01prodE09_conf16_gfn1.xyz --opt --vfukui --chrg -2 --uhf 0 --alpb DMSO

   ID    Z sym.   atoms
    1    6 C      1, 3, 5, 7-10, 12, 14, 16, 17, 20, 22, 24
    2    8 O      2, 4, 13, 15, 23, 25
    3    7 N      6, 11, 18, 19, 21
    4    1 H      26-42

      * Solvation model:               ALPB
        Solvent                        DMSO
        Solvent mass                       7.8130E+01 g/mol
          :  Hamiltonian                  GFN1-xTB          :
 * total energy  :   -83.5978017 Eh     change       -0.2008520E-08 Eh
 * total energy  :   -83.6119495 Eh     change       -0.1414782E-01 Eh
 * total energy  :   -83.6172334 Eh     change       -0.5283897E-02 Eh
 * total energy  :   -83.6146478 Eh     change        0.2585538E-02 Eh
 * total energy  :   -83.6190476 Eh     change       -0.4399755E-02 Eh
 * total energy  :   -83.6211771 Eh     change       -0.2129486E-02 Eh
 * total energy  :   -83.6251993 Eh     change       -0.4022190E-02 Eh
 * total energy  :   -83.6269455 Eh     change       -0.1746249E-02 Eh
 * total energy  :   -83.6292670 Eh     change       -0.2321484E-02 Eh
 * total energy  :   -83.6311251 Eh     change       -0.1858065E-02 Eh
 * total energy  :   -83.6348626 Eh     change       -0.2326319E-04 Eh
 * total energy  :   -83.6348859 Eh     change       -0.2322810E-04 Eh
 * total energy  :   -83.6348828 Eh     change        0.3070069E-05 Eh
 * total energy  :   -83.6348985 Eh     change       -0.1573415E-04 Eh
 * total energy  :   -83.6349152 Eh     change       -0.1666758E-04 Eh
 * total energy  :   -83.6349290 Eh     change       -0.1378592E-04 Eh
 * total energy  :   -83.6349375 Eh     change       -0.8533907E-05 Eh
 * total energy  :   -83.6349443 Eh     change       -0.6781530E-05 Eh
 * total energy  :   -83.6349490 Eh     change       -0.4667960E-05 Eh
   *** GEOMETRY OPTIMIZATION CONVERGED AFTER 44 ITERATIONS ***

 final structure:
================
42
 xtb: 6.5.1 (579679a)
C           -5.81998692197153        0.91116201742305        1.96492950147318
O           -4.67538127426529        0.51532370456593        1.22742773543345
C           -4.81311106860503        0.54610375224792       -0.13860784427011
O           -5.87376569279725        0.89972416336141       -0.63562403204455
C           -3.61021569475434        0.12658133389473       -0.83059083997837
N           -2.54912673489041       -0.22704318846270       -0.01262683219103
C           -1.43960730631053       -0.61868835164817       -0.52219797552822
C           -0.29164358257785       -1.09856829197999        0.34940248123508
C           -0.37748177241285       -0.42829779751233        1.72956181518261
C           -0.45045820282121       -2.62487181710840        0.48125110443121
N            0.95030064581927       -0.76289902481688       -0.35115218433641
C            2.20281659773833       -1.01198367127973        0.35777249391659
O            2.31601622596883       -2.01452307642583        1.13300531987641
C            3.15651514611826       -0.05598464071144        0.16737995315907
O            3.06176919787174        1.00619204821015       -0.78294484755710
C            4.31862509209394        1.43762062398653       -0.92964640727121
C            4.57390441923088        2.57126147390692       -1.86334778040409
N            5.22635011732905        0.84464992941970       -0.25247207750484
N            4.57631607795644       -0.19465626662286        0.50621095199781
C            4.83585401610529        0.05929049894718        1.93243798502962
N           -1.26323800953661       -0.71802555922699       -1.88680834595964
C           -2.22050213281363       -0.40588454855933       -2.80930330838718
O           -1.97820284524913       -0.52194181337343       -4.01246128227155
C           -3.54318988183252        0.06555763787110       -2.24755612247995
O           -4.46070969525357        0.35840246063528       -3.04027958228442
H           -6.67135454770141        0.25790130555104        1.74582170631245
H           -6.10035953779955        1.94310201279925        1.72840839312600
H           -5.56391101774311        0.83530163941446        3.02104355789389
H            0.38444522552238       -0.83570315919055        2.39273178154492
H           -1.36141002848100       -0.60628439544304        2.16378795077781
H           -0.22861367065916        0.64717677293942        1.63396254029274
H           -0.27884369671316       -3.09783807220433       -0.48539178726325
H            0.25979629303504       -3.02832598081605        1.20062974172841
H           -1.46167476276787       -2.85946516246481        0.81555323581754
H            0.92618654426812        0.21630038537026       -0.62655281956813
H            4.27678806676176        2.30158523144864       -2.87672173573587
H            3.99203620657197        3.44120738162478       -1.56050821580305
H            5.63134327877957        2.82341853499003       -1.85262093266338
H            4.34694976151576       -0.73255135058002        2.49981380503249
H            4.44755807227171        1.03345004866781        2.24700929321251
H            5.91120847346564        0.02360474123572        2.10285471238524
H           -0.36198838047152       -1.02138253008391       -2.23126310635735

          :  Hamiltonian                  GFN1-xTB          :
         :: total energy             -83.634948961055 Eh    ::
         :: gradient norm              0.000413699309 Eh/a0 ::
         :: HOMO-LUMO gap              0.780651980679 eV    ::
         :: SCC energy               -84.377792400122 Eh    ::
         :: -> Gsolv                  -0.260690794197 Eh    ::
         :: repulsion energy           0.768286672305 Eh    ::

    * Orbital Energies and Occupations

         #    Occupation            Energy/Eh            Energy/eV
      -------------------------------------------------------------
         1        2.0000           -0.7889271             -21.4678
       ...           ...                  ...                  ...
        56        2.0000           -0.4470120             -12.1638
        57        2.0000           -0.4418951             -12.0246
        58        2.0000           -0.4276960             -11.6382
        59        2.0000           -0.4243694             -11.5477
        60        2.0000           -0.4188938             -11.3987
        61        2.0000           -0.4111589             -11.1882
        62        2.0000           -0.4005785             -10.9003
        63        2.0000           -0.3818783             -10.3914
        64        2.0000           -0.3797792             -10.3343
        65        2.0000           -0.3656234              -9.9491
        66        2.0000           -0.3570772              -9.7166
        67        2.0000           -0.3519187              -9.5762
        68        2.0000           -0.2878854              -7.8338 (HOMO)
        69        0.0000           -0.2591970              -7.0531 (LUMO)
        70                         -0.2208624              -6.0100
        71                         -0.2052997              -5.5865
        72                         -0.1855948              -5.0503
        73                         -0.1290469              -3.5115
        74                         -0.1202913              -3.2733
        75                         -0.1179537              -3.2097
        76                         -0.0969892              -2.6392
        77                         -0.0920204              -2.5040
        78                         -0.0900065              -2.4492
        79                         -0.0876443              -2.3849
       ...                                ...                  ...
       134                          0.7699128              20.9504
      -------------------------------------------------------------
                  HL-Gap            0.0286884 Eh            0.7807 eV

Wiberg/Mayer (AO) data.
largest (>0.10) Wiberg bond orders for each atom

     #   Z sym  total        # sym  WBO       # sym  WBO       # sym  WBO
 ---------------------------------------------------------------------------
     1   6 C    3.903 --    28 H    0.987    26 H    0.980    27 H    0.980
                             2 O    0.932
     2   8 O    2.132 --     3 C    1.016     1 C    0.932     4 O    0.106
     3   6 C    3.848 --     4 O    1.582     5 C    1.131     2 O    1.016
     4   8 O    1.860 --     3 C    1.582     2 O    0.106
     5   6 C    3.919 --    24 C    1.273     6 N    1.146     3 C    1.131
                            25 O    0.130
     6   7 N    3.021 --     7 C    1.632     5 C    1.146
     7   6 C    3.926 --     6 N    1.632    21 N    1.096     8 C    0.976
     8   6 C    3.966 --     9 C    0.988    10 C    0.980     7 C    0.976
                            11 N    0.966
     9   6 C    3.996 --     8 C    0.988    31 H    0.987    30 H    0.985
                            29 H    0.984
    10   6 C    3.993 --    34 H    0.988    32 H    0.987     8 C    0.980
                            33 H    0.977
    11   7 N    3.075 --     8 C    0.966    12 C    0.947    35 H    0.941
    12   6 C    3.932 --    14 C    1.519    13 O    1.337    11 N    0.947
    13   8 O    1.701 --    12 C    1.337    14 C    0.172
    14   6 C    3.659 --    12 C    1.519    19 N    0.947    15 O    0.873
                            13 O    0.172
    15   8 O    2.190 --    16 C    1.088    14 C    0.873    18 N    0.133
    16   6 C    3.906 --    18 N    1.709    15 O    1.088    17 C    1.014
    17   6 C    3.995 --    16 C    1.014    38 H    0.987    37 H    0.973
                            36 H    0.973
    18   7 N    2.947 --    16 C    1.709    19 N    0.987    15 O    0.133
    19   7 N    3.063 --    18 N    0.987    20 C    0.969    14 C    0.947
    20   6 C    3.981 --    41 H    0.989    39 H    0.987    40 H    0.984
                            19 N    0.969
    21   7 N    3.438 --    22 C    1.178     7 C    1.096    42 H    0.892
                            23 O    0.136
    22   6 C    3.883 --    23 O    1.559    21 N    1.178    24 C    0.971
    23   8 O    1.838 --    22 C    1.559    21 N    0.136
    24   6 C    3.944 --    25 O    1.510     5 C    1.273    22 C    0.971
    25   8 O    1.814 --    24 C    1.510     5 C    0.130
    26   1 H    1.015 --     1 C    0.980
    27   1 H    1.015 --     1 C    0.980
    28   1 H    1.017 --     1 C    0.987
    29   1 H    1.016 --     9 C    0.984
    30   1 H    1.019 --     9 C    0.985
    31   1 H    1.008 --     9 C    0.987
    32   1 H    1.012 --    10 C    0.987
    33   1 H    1.032 --    10 C    0.977
    34   1 H    1.010 --    10 C    0.988
    35   1 H    0.981 --    11 N    0.941
    36   1 H    1.004 --    17 C    0.973
    37   1 H    1.003 --    17 C    0.973
    38   1 H    1.006 --    17 C    0.987
    39   1 H    1.033 --    20 C    0.987
    40   1 H    1.021 --    20 C    0.984
    41   1 H    1.025 --    20 C    0.989
    42   1 H    0.963 --    21 N    0.892
 ---------------------------------------------------------------------------

           -------------------------------------------------
          | TOTAL ENERGY              -83.634948961055 Eh   |
          | GRADIENT NORM               0.000413699309 Eh/α |
          | HOMO-LUMO GAP               0.780651980679 eV   |
           -------------------------------------------------

 * finished run on 2023/06/21 at 17:18:58.401
