   * xtb version 6.5.1 (579679a) compiled by 'ehlert@majestix' on 2022-07-11
          program call               : /lustre/hpc/kemi/ree/PhD/git/ReactivityQM/dep/xtb-6.5.1/bin/xtb --gfn 1 /lustre/hpc/kemi/ree/PhD/git/ReactivityQM/calculations/R03/reac02prodN19/conf08/R03_reac02prodN19_conf08_gfn1.xyz --opt --vfukui --chrg 1 --uhf 0 --alpb DMSO

   ID    Z sym.   atoms
    1    6 C      1, 3, 5, 7-10, 12, 14, 17, 18, 21, 22, 24, 25
    2    8 O      2, 4, 13, 19, 23, 26
    3    7 N      6, 11, 15, 16, 20
    4    1 H      27-46

      * Solvation model:               ALPB
        Solvent                        DMSO
        Solvent mass                       7.8130E+01 g/mol
          :  Hamiltonian                  GFN1-xTB          :
 * total energy  :   -86.3294035 Eh     change       -0.2590639E-10 Eh
 * total energy  :   -86.3502767 Eh     change       -0.2087316E-01 Eh
 * total energy  :   -86.3582322 Eh     change       -0.7955519E-02 Eh
 * total energy  :   -86.3604196 Eh     change       -0.2187449E-02 Eh
 * total energy  :   -86.3621167 Eh     change       -0.1697100E-02 Eh
 * total energy  :   -86.3630735 Eh     change       -0.9567562E-03 Eh
 * total energy  :   -86.3638670 Eh     change       -0.7935313E-03 Eh
 * total energy  :   -86.3645262 Eh     change       -0.6592370E-03 Eh
 * total energy  :   -86.3650080 Eh     change       -0.4817731E-03 Eh
 * total energy  :   -86.3652772 Eh     change       -0.2691582E-03 Eh
 * total energy  :   -86.3672205 Eh     change       -0.1510491E-04 Eh
 * total energy  :   -86.3672345 Eh     change       -0.1400566E-04 Eh
 * total energy  :   -86.3672464 Eh     change       -0.1195935E-04 Eh
 * total energy  :   -86.3672567 Eh     change       -0.1028683E-04 Eh
 * total energy  :   -86.3672657 Eh     change       -0.8964218E-05 Eh
 * total energy  :   -86.3672733 Eh     change       -0.7618836E-05 Eh
 * total energy  :   -86.3672803 Eh     change       -0.6961936E-05 Eh
 * total energy  :   -86.3672871 Eh     change       -0.6810111E-05 Eh
 * total energy  :   -86.3672900 Eh     change       -0.2953177E-05 Eh
   *** GEOMETRY OPTIMIZATION CONVERGED AFTER 44 ITERATIONS ***

 final structure:
================
46
 xtb: 6.5.1 (579679a)
C           -4.79798230377018        1.82807121361044       -3.06622935979476
O           -3.70651415166010        1.46975459775859       -2.20266287472715
C           -3.92884408129457        0.51586696273313       -1.32985289726589
O           -4.98135462585936       -0.08054456966789       -1.21436936246302
C           -2.75449818353984        0.21191635052871       -0.45494226938705
N           -1.61169283314226        0.87922592496135       -0.66262825080432
C           -0.55777592333735        0.66745135443763        0.07550737540206
C            0.67319840739678        1.48648270045134       -0.27349295188909
C            0.53487854060931        2.01852393594904       -1.70800712821656
C            0.82531619544012        2.65915064434813        0.70189664712837
N            1.86510685109643        0.64611500386493       -0.20970776329944
C            1.86038510747432       -0.58707778157199       -0.77151047327641
O            0.85804374188236       -1.11750121060075       -1.22304223680429
C            3.17843432539390       -1.24978978981209       -0.72131210217506
N            3.50789353691969       -2.41987904856139       -1.17301180294470
N            4.82004030527812       -2.60373483226577       -0.86568696286536
C            5.21356969901540       -1.53577564225560       -0.24184958947779
C            6.55423906112156       -1.24445027404949        0.30863308763256
O            4.22169899164088       -0.63876006630829       -0.11922204363520
N           -0.61557219321061       -0.20683024818247        1.13136682266619
C            0.47919615610619       -0.42269922532594        2.08271997562654
C           -1.71958742370772       -0.95187789922018        1.36013300503943
O           -1.60774674168336       -1.78223926945676        2.37135439153451
C           -2.65870822643801       -2.65794629891699        2.81304654414590
C           -2.85678271607001       -0.75649355393500        0.53689537675531
O           -3.95238489426322       -1.47541795780462        0.75191895026850
H           -5.09740712148886        0.96219597168565       -3.65966982732499
H           -5.64264083881591        2.16975978243203       -2.46538959761207
H           -4.43249474033665        2.62743330206312       -3.70663492410628
H            0.36627943170600        1.19287092098346       -2.39799264014462
H            1.45062312620072        2.53733183405216       -1.98317312046804
H           -0.30273681294775        2.71026608023090       -1.76925936167410
H            1.69368335308019        3.25132671272891        0.41918462253552
H           -0.06257482712764        3.28745991990915        0.65287931053608
H            0.95500321196506        2.31434639430652        1.72460718459809
H            2.73515308022712        1.07533527134139        0.05719734573373
H            7.20339972827808       -2.10691483506480        0.17541713351748
H            6.47208387543233       -1.00380089115444        1.36822657083278
H            6.98355215049934       -0.38020154282307       -0.19873679998978
H            1.28922157901055        0.26748784251498        1.89169868155837
H            0.08689459484558       -0.27169804343787        3.08667159736819
H            0.82835921351488       -1.44948660698938        1.98021075154851
H           -2.24001672015128       -3.19482336600563        3.66341287563277
H           -3.52859882662184       -2.07880197473901        3.12315408123104
H           -2.92966016660304       -3.35612822693455        2.02026272335180
H           -4.67067891206767       -1.20550356578505        0.12198928570207

          :  Hamiltonian                  GFN1-xTB          :
         :: total energy             -86.367290033845 Eh    ::
         :: gradient norm              0.000189257606 Eh/a0 ::
         :: HOMO-LUMO gap              2.314594807180 eV    ::
         :: SCC energy               -87.195600613128 Eh    ::
         :: -> Gsolv                  -0.103801042116 Eh    ::
         :: repulsion energy           0.857796577127 Eh    ::

    * Orbital Energies and Occupations

         #    Occupation            Energy/Eh            Energy/eV
      -------------------------------------------------------------
         1        2.0000           -0.8907113             -24.2375
       ...           ...                  ...                  ...
        58        2.0000           -0.5258547             -14.3092
        59        2.0000           -0.5231151             -14.2347
        60        2.0000           -0.5179718             -14.0947
        61        2.0000           -0.5148974             -14.0111
        62        2.0000           -0.5142824             -13.9943
        63        2.0000           -0.5087140             -13.8428
        64        2.0000           -0.4917878             -13.3822
        65        2.0000           -0.4845710             -13.1858
        66        2.0000           -0.4826838             -13.1345
        67        2.0000           -0.4743667             -12.9082
        68        2.0000           -0.4712943             -12.8246
        69        2.0000           -0.4616502             -12.5621
        70        2.0000           -0.4596508             -12.5077 (HOMO)
        71                         -0.3745910             -10.1931 (LUMO)
        72                         -0.3295515              -8.9676
        73                         -0.3248300              -8.8391
        74                         -0.2851768              -7.7601
        75                         -0.2644997              -7.1974
        76                         -0.2118258              -5.7641
        77                         -0.2007819              -5.4636
        78                         -0.1648986              -4.4871
        79                         -0.1545490              -4.2055
        80                         -0.1483967              -4.0381
        81                         -0.1454432              -3.9577
       ...                                ...                  ...
       144                          0.7051284              19.1875
      -------------------------------------------------------------
                  HL-Gap            0.0850598 Eh            2.3146 eV

Wiberg/Mayer (AO) data.
largest (>0.10) Wiberg bond orders for each atom

     #   Z sym  total        # sym  WBO       # sym  WBO       # sym  WBO
 ---------------------------------------------------------------------------
     1   6 C    3.849 --    29 H    0.985    28 H    0.977    27 H    0.977
                             2 O    0.876
     2   8 O    2.243 --     3 C    1.173     1 C    0.876     4 O    0.142
     3   6 C    3.856 --     4 O    1.622     2 O    1.173     5 C    0.986
     4   8 O    1.969 --     3 C    1.622     2 O    0.142
     5   6 C    3.969 --    25 C    1.373     6 N    1.301     3 C    0.986
     6   7 N    3.052 --     7 C    1.499     5 C    1.301
     7   6 C    3.910 --     6 N    1.499    20 N    1.180     8 C    0.980
     8   6 C    3.934 --     9 C    0.984     7 C    0.980    10 C    0.978
                            11 N    0.933
     9   6 C    3.984 --     8 C    0.984    31 H    0.984    32 H    0.983
                            30 H    0.982
    10   6 C    3.985 --    34 H    0.982    35 H    0.979    33 H    0.979
                             8 C    0.978
    11   7 N    3.335 --    12 C    1.233     8 C    0.933    36 H    0.885
                            13 O    0.168
    12   6 C    3.913 --    13 O    1.584    11 N    1.233    14 C    1.004
    13   8 O    1.896 --    12 C    1.584    11 N    0.168
    14   6 C    3.877 --    15 N    1.614    19 O    1.047    12 C    1.004
    15   7 N    3.004 --    14 C    1.614    16 N    1.206
    16   7 N    2.982 --    17 C    1.602    15 N    1.206
    17   6 C    3.865 --    16 N    1.602    19 O    1.074    18 C    1.033
    18   6 C    3.985 --    17 C    1.033    37 H    0.982    38 H    0.963
                            39 H    0.960
    19   8 O    2.317 --    17 C    1.074    14 C    1.047
    20   7 N    3.582 --    22 C    1.265     7 C    1.180    21 C    0.912
    21   6 C    3.894 --    40 H    0.974    41 H    0.969    42 H    0.967
                            20 N    0.912
    22   6 C    3.896 --    20 N    1.265    25 C    1.214    23 O    1.162
    23   8 O    2.249 --    22 C    1.162    24 C    0.861
    24   6 C    3.829 --    43 H    0.981    44 H    0.976    45 H    0.976
                            23 O    0.861
    25   6 C    3.933 --     5 C    1.373    22 C    1.214    26 O    1.133
    26   8 O    2.094 --    25 C    1.133    46 H    0.745
    27   1 H    1.002 --     1 C    0.977
    28   1 H    1.002 --     1 C    0.977
    29   1 H    1.007 --     1 C    0.985
    30   1 H    1.006 --     9 C    0.982
    31   1 H    0.999 --     9 C    0.984
    32   1 H    1.008 --     9 C    0.983
    33   1 H    0.993 --    10 C    0.979
    34   1 H    0.998 --    10 C    0.982
    35   1 H    0.998 --    10 C    0.979
    36   1 H    0.926 --    11 N    0.885
    37   1 H    0.997 --    18 C    0.982
    38   1 H    0.996 --    18 C    0.963
    39   1 H    0.996 --    18 C    0.960
    40   1 H    1.005 --    21 C    0.974
    41   1 H    0.996 --    21 C    0.969
    42   1 H    0.996 --    21 C    0.967
    43   1 H    1.005 --    24 C    0.981
    44   1 H    1.006 --    24 C    0.976
    45   1 H    1.006 --    24 C    0.976
    46   1 H    0.829 --    26 O    0.745
 ---------------------------------------------------------------------------

           -------------------------------------------------
          | TOTAL ENERGY              -86.367290033845 Eh   |
          | GRADIENT NORM               0.000189257606 Eh/α |
          | HOMO-LUMO GAP               2.314594807180 eV   |
           -------------------------------------------------

 * finished run on 2023/06/20 at 15:56:24.001
