   * xtb version 6.5.1 (579679a) compiled by 'ehlert@majestix' on 2022-07-11
          program call               : /lustre/hpc/kemi/ree/PhD/git/ReactivityQM/dep/xtb-6.5.1/bin/xtb --gfn 1 /lustre/hpc/kemi/ree/PhD/git/ReactivityQM/calculations/R02methylcation/reac01prodE01/conf05/R02methylcation_reac01prodE01_conf05_gfn1.xyz --opt --vfukui --chrg -2 --uhf 0 --alpb DMSO

   ID    Z sym.   atoms
    1    6 C      1, 3, 5, 7-10, 12, 13, 15, 18, 19, 22, 24
    2    8 O      2, 4, 14, 20, 23, 25
    3    7 N      6, 11, 16, 17, 21
    4    1 H      26-42

      * Solvation model:               ALPB
        Solvent                        DMSO
        Solvent mass                       7.8130E+01 g/mol
          :  Hamiltonian                  GFN1-xTB          :
 * total energy  :   -83.6325927 Eh     change       -0.2231104E-10 Eh
 * total energy  :   -83.6437950 Eh     change       -0.1120227E-01 Eh
 * total energy  :   -83.6472077 Eh     change       -0.3412735E-02 Eh
 * total energy  :   -83.6480618 Eh     change       -0.8541266E-03 Eh
 * total energy  :   -83.6485525 Eh     change       -0.4906793E-03 Eh
 * total energy  :   -83.6488224 Eh     change       -0.2698806E-03 Eh
 * total energy  :   -83.6490162 Eh     change       -0.1937766E-03 Eh
 * total energy  :   -83.6491273 Eh     change       -0.1111448E-03 Eh
 * total energy  :   -83.6491798 Eh     change       -0.5251589E-04 Eh
 * total energy  :   -83.6492189 Eh     change       -0.3902309E-04 Eh
 * total energy  :   -83.6501868 Eh     change       -0.9691131E-05 Eh
 * total energy  :   -83.6501961 Eh     change       -0.9393274E-05 Eh
 * total energy  :   -83.6501961 Eh     change        0.4953164E-07 Eh
 * total energy  :   -83.6502032 Eh     change       -0.7064981E-05 Eh
 * total energy  :   -83.6502103 Eh     change       -0.7172641E-05 Eh
 * total energy  :   -83.6502154 Eh     change       -0.5040695E-05 Eh
 * total energy  :   -83.6502219 Eh     change       -0.6492781E-05 Eh
 * total energy  :   -83.6502274 Eh     change       -0.5499840E-05 Eh
 * total energy  :   -83.6502316 Eh     change       -0.4235191E-05 Eh
   *** GEOMETRY OPTIMIZATION CONVERGED AFTER 43 ITERATIONS ***

 final structure:
================
42
 xtb: 6.5.1 (579679a)
C            5.68776066318880        1.48201453038444        1.65137164987764
O            4.51799155246834        1.07912813985790        0.95949758798763
C            4.58416557368470        1.15940514381632       -0.41070511572805
O            5.60715041080046        1.56516084926267       -0.94655319877074
C            3.36320429760461        0.71983621394030       -1.05560050236598
N            2.35846947199419        0.29918014466390       -0.19797045147697
C            1.24251537256530       -0.12497112544230       -0.66867839792413
C            0.15529257128259       -0.66142882894415        0.25660577566109
C            0.59817330125427       -2.07920584026526        0.65514398374134
C            0.07994227629951        0.24736789303471        1.49635402340727
N           -1.09994255439290       -0.65897782421718       -0.50302162267336
C           -2.27827567419679       -1.44415548691485        0.11488172013804
C           -2.41721683850293       -2.73570356681388       -0.76297838491334
O           -2.23560231690134       -1.65531551478901        1.39861339927283
C           -3.52973609919667       -0.57987798274035       -0.25494789212207
N           -4.70179340179775       -1.02646401207652       -0.58786332493995
N           -5.55278782279420        0.06187955736142       -0.63317551546662
C           -4.83868023598840        1.08920253080230       -0.31748142572955
C           -5.28377027578442        2.50145926344536       -0.22711615428231
O           -3.55684982786759        0.76045177994427       -0.06512680571635
N            1.01022074290785       -0.19645477561531       -2.02342231280830
C            1.90076652956872        0.19032617691717       -2.98179315756406
O            1.60338443972940        0.10049688888963       -4.17585980391503
C            3.22584494896286        0.70693233424170       -2.46908884666343
O            4.08756895642566        1.07332727157974       -3.29455412604070
H            5.48329879452740        1.37842318274488        2.71649284769733
H            5.93750207788610        2.52419552334504        1.42534396757628
H            6.54050963770237        0.85093216478904        1.37858237624157
H            0.64851101361876       -2.71949948316590       -0.22583143037059
H           -0.09056273252635       -2.51587605611955        1.37709758826097
H            1.59138815704514       -2.03020031476294        1.10390058263476
H            1.06292361858657        0.31148164044996        1.96490149882630
H           -0.23266953746981        1.25022414094683        1.20426975724780
H           -0.63669028772209       -0.14915439885776        2.21389786937982
H           -1.39643913125982        0.31366804000966       -0.56822378398634
H           -1.58637626237277       -3.40610112477494       -0.55483035820214
H           -3.34883593005011       -3.23855601380561       -0.50531539627029
H           -2.42126511487250       -2.48049461355165       -1.82131134577281
H           -6.36020601744808        2.55170123060052       -0.37197268862330
H           -4.79161656027645        3.10271198534355       -0.99158200814015
H           -5.02898626437207        2.91764813567196        0.74698717523499
H            0.10171647768617       -0.53471479919524       -2.31981075272011

          :  Hamiltonian                  GFN1-xTB          :
         :: total energy             -83.650231600422 Eh    ::
         :: gradient norm              0.000424607938 Eh/a0 ::
         :: HOMO-LUMO gap              2.268792719307 eV    ::
         :: SCC energy               -84.383646287369 Eh    ::
         :: -> Gsolv                  -0.260941837062 Eh    ::
         :: repulsion energy           0.759490693873 Eh    ::

    * Orbital Energies and Occupations

         #    Occupation            Energy/Eh            Energy/eV
      -------------------------------------------------------------
         1        2.0000           -0.8163020             -22.2127
       ...           ...                  ...                  ...
        56        2.0000           -0.4422529             -12.0343
        57        2.0000           -0.4391023             -11.9486
        58        2.0000           -0.4321315             -11.7589
        59        2.0000           -0.4260140             -11.5924
        60        2.0000           -0.4212996             -11.4641
        61        2.0000           -0.4120465             -11.2124
        62        2.0000           -0.4073889             -11.0856
        63        2.0000           -0.3975819             -10.8188
        64        2.0000           -0.3725022             -10.1363
        65        2.0000           -0.3624130              -9.8618
        66        2.0000           -0.3495199              -9.5109
        67        2.0000           -0.3426688              -9.3245
        68        2.0000           -0.3406552              -9.2697 (HOMO)
        69                         -0.2572786              -7.0009 (LUMO)
        70                         -0.2237112              -6.0875
        71                         -0.2171925              -5.9101
        72                         -0.2083599              -5.6698
        73                         -0.1835398              -4.9944
        74                         -0.1270174              -3.4563
        75                         -0.1175602              -3.1990
        76                         -0.0962608              -2.6194
        77                         -0.0930003              -2.5307
        78                         -0.0829367              -2.2568
        79                         -0.0793604              -2.1595
       ...                                ...                  ...
       134                          0.7701721              20.9575
      -------------------------------------------------------------
                  HL-Gap            0.0833766 Eh            2.2688 eV

Wiberg/Mayer (AO) data.
largest (>0.10) Wiberg bond orders for each atom

     #   Z sym  total        # sym  WBO       # sym  WBO       # sym  WBO
 ---------------------------------------------------------------------------
     1   6 C    3.904 --    26 H    0.987    28 H    0.980    27 H    0.980
                             2 O    0.933
     2   8 O    2.131 --     3 C    1.014     1 C    0.933     4 O    0.105
     3   6 C    3.849 --     4 O    1.580     5 C    1.133     2 O    1.014
     4   8 O    1.858 --     3 C    1.580     2 O    0.105
     5   6 C    3.920 --    24 C    1.274     6 N    1.145     3 C    1.133
                            25 O    0.130
     6   7 N    3.019 --     7 C    1.628     5 C    1.145
     7   6 C    3.924 --     6 N    1.628    21 N    1.104     8 C    0.971
     8   6 C    3.967 --    10 C    0.985     9 C    0.982    11 N    0.979
                             7 C    0.971
     9   6 C    3.994 --    31 H    0.987    29 H    0.985     8 C    0.982
                            30 H    0.977
    10   6 C    3.995 --    33 H    0.986    32 H    0.985     8 C    0.985
                            34 H    0.980
    11   7 N    3.004 --     8 C    0.979    35 H    0.947    12 C    0.848
    12   6 C    3.936 --    14 O    1.210    13 C    0.940    15 C    0.885
                            11 N    0.848
    13   6 C    3.991 --    38 H    0.991    37 H    0.987    36 H    0.984
                            12 C    0.940
    14   8 O    1.564 --    12 C    1.210
    15   6 C    3.805 --    16 N    1.648    20 O    1.047    12 C    0.885
    16   7 N    2.967 --    15 C    1.648    17 N    1.149
    17   7 N    2.975 --    18 C    1.655    16 N    1.149
    18   6 C    3.888 --    17 N    1.655    20 O    1.063    19 C    1.024
    19   6 C    3.993 --    18 C    1.024    39 H    0.985    41 H    0.972
                            40 H    0.969
    20   8 O    2.302 --    18 C    1.063    15 C    1.047
    21   7 N    3.444 --    22 C    1.181     7 C    1.104    42 H    0.886
                            23 O    0.136
    22   6 C    3.884 --    23 O    1.554    21 N    1.181    24 C    0.973
    23   8 O    1.833 --    22 C    1.554    21 N    0.136
    24   6 C    3.944 --    25 O    1.506     5 C    1.274    22 C    0.973
    25   8 O    1.810 --    24 C    1.506     5 C    0.130
    26   1 H    1.017 --     1 C    0.987
    27   1 H    1.016 --     1 C    0.980
    28   1 H    1.015 --     1 C    0.980
    29   1 H    1.011 --     9 C    0.985
    30   1 H    1.030 --     9 C    0.977
    31   1 H    1.013 --     9 C    0.987
    32   1 H    1.019 --    10 C    0.985
    33   1 H    1.009 --    10 C    0.986
    34   1 H    1.033 --    10 C    0.980
    35   1 H    0.982 --    11 N    0.947
    36   1 H    1.018 --    13 C    0.984
    37   1 H    1.022 --    13 C    0.987
    38   1 H    1.019 --    13 C    0.991
    39   1 H    1.003 --    19 C    0.985
    40   1 H    1.002 --    19 C    0.969
    41   1 H    1.002 --    19 C    0.972
    42   1 H    0.973 --    21 N    0.886
 ---------------------------------------------------------------------------

           -------------------------------------------------
          | TOTAL ENERGY              -83.650231600422 Eh   |
          | GRADIENT NORM               0.000424607938 Eh/α |
          | HOMO-LUMO GAP               2.268792719307 eV   |
           -------------------------------------------------

 * finished run on 2023/06/21 at 17:03:54.854
