   * xtb version 6.5.1 (579679a) compiled by 'ehlert@majestix' on 2022-07-11
          program call               : /lustre/hpc/kemi/ree/PhD/git/ReactivityQM/dep/xtb-6.5.1/bin/xtb --gfn 1 /lustre/hpc/kemi/ree/PhD/git/ReactivityQM/calculations/R02methylcation/reac01prodN03/conf08/R02methylcation_reac01prodN03_conf08_gfn1.xyz --opt --vfukui --chrg 0 --uhf 0 --alpb DMSO

   ID    Z sym.   atoms
    1    6 C      1, 3, 5, 6, 8-11, 13, 15, 18, 19, 22, 24
    2    8 O      2, 4, 14, 20, 23, 25
    3    7 N      7, 12, 16, 17, 21
    4    1 H      26-42

      * Solvation model:               ALPB
        Solvent                        DMSO
        Solvent mass                       7.8130E+01 g/mol
          :  Hamiltonian                  GFN1-xTB          :
 * total energy  :   -82.9827650 Eh     change       -0.6593837E-11 Eh
 * total energy  :   -82.9940813 Eh     change       -0.1131626E-01 Eh
 * total energy  :   -82.9985069 Eh     change       -0.4425612E-02 Eh
 * total energy  :   -82.9994648 Eh     change       -0.9578806E-03 Eh
 * total energy  :   -83.0000263 Eh     change       -0.5615851E-03 Eh
 * total energy  :   -83.0003139 Eh     change       -0.2875900E-03 Eh
 * total energy  :   -83.0004919 Eh     change       -0.1779716E-03 Eh
 * total energy  :   -83.0006021 Eh     change       -0.1101546E-03 Eh
 * total energy  :   -83.0006929 Eh     change       -0.9083952E-04 Eh
 * total energy  :   -83.0007823 Eh     change       -0.8939648E-04 Eh
 * total energy  :   -83.0014084 Eh     change       -0.6162090E-05 Eh
 * total energy  :   -83.0014253 Eh     change       -0.1697086E-04 Eh
 * total energy  :   -83.0014351 Eh     change       -0.9728995E-05 Eh
 * total energy  :   -83.0014519 Eh     change       -0.1682441E-04 Eh
 * total energy  :   -83.0014649 Eh     change       -0.1296397E-04 Eh
 * total energy  :   -83.0014745 Eh     change       -0.9675798E-05 Eh
 * total energy  :   -83.0014818 Eh     change       -0.7230857E-05 Eh
 * total energy  :   -83.0014900 Eh     change       -0.8284630E-05 Eh
 * total energy  :   -83.0014949 Eh     change       -0.4866039E-05 Eh
   *** GEOMETRY OPTIMIZATION CONVERGED AFTER 43 ITERATIONS ***

 final structure:
================
42
 xtb: 6.5.1 (579679a)
C           -4.72937433410210       -1.23502311594764       -1.35985708915649
O           -3.73431308512063       -0.69655285798946       -0.47284100287723
C           -4.08341229271647        0.35047039711718        0.24857176435301
O           -5.16433421823026        0.87200356261255        0.24159824034451
C           -2.91336137422063        0.83334981801674        1.15340656329275
C           -3.32059578012937        2.13411268695810        1.84657824333949
N           -1.78945853699402        1.07720656991979        0.27677913788731
C           -0.89138560990946        0.20141754218044        0.10387242370321
C            0.21958803763277        0.43731671918178       -0.89750430848935
C           -0.09067630795857       -0.40838238938402       -2.14147360380674
C            0.31933815312530        1.92411700518463       -1.24812095811881
N            1.46720391603375       -0.01060179883707       -0.27120976564493
C            2.65376800994675       -0.02707760403962       -0.92512675447399
O            2.81152201642734        0.16300518886180       -2.11570576783895
C            3.76389980485239       -0.32677442958167        0.01438318024249
N            3.66545234735125       -0.44000966680022        1.30511224523006
N            4.92082278152710       -0.68119062966216        1.77488130470778
C            5.70617886179097       -0.69828230227808        0.73997797914009
C            7.16708722114076       -0.93050750453172        0.71684571814204
O            5.03440375391822       -0.47916975519697       -0.39964305686416
N           -0.87115451507504       -1.03377567524601        0.73972383365841
C           -1.72975966577851       -1.39857455859855        1.73309989964638
O           -1.69743718115634       -2.48783714816613        2.25811035962982
C           -2.70524532944161       -0.29111791271681        2.15039492316275
O           -3.29041655569832       -0.34241443853682        3.20043907333257
H           -4.25234157535155       -2.05234454165005       -1.89502902970694
H           -5.06022084965869       -0.46255047674758       -2.05597553589514
H           -5.58109241269626       -1.59883117047151       -0.78205944553445
H           -2.49574630916725        2.49542114510300        2.45653685867284
H           -3.56785798190493        2.88199415395647        1.09632819865897
H           -4.18867566715996        1.95569930736548        2.47905454636209
H           -0.04409903003450       -1.46766504264523       -1.89572245798493
H           -1.09219905556306       -0.16811582637870       -2.49520729491901
H            0.62596036699012       -0.19514702054678       -2.93163502902340
H            1.10367658721432        2.07660984102228       -1.98706769857695
H           -0.63055140310938        2.26527081776027       -1.65582837787442
H            0.54908520801216        2.50227600943074       -0.35470758605930
H            1.49908929855733       -0.04814942767700        0.73722285508455
H            7.55835343258136       -0.90913229855058        1.73198031620436
H            7.38087731000341       -1.90210551241317        0.26945094422634
H            7.65611816955695       -0.16581278968118        0.11458128447678
H           -0.17871820547945       -1.71312187039408        0.46238986935001

          :  Hamiltonian                  GFN1-xTB          :
         :: total energy             -83.001494909512 Eh    ::
         :: gradient norm              0.000930262201 Eh/a0 ::
         :: HOMO-LUMO gap              2.444815865920 eV    ::
         :: SCC energy               -83.789088740238 Eh    ::
         :: -> Gsolv                  -0.051314832610 Eh    ::
         :: repulsion energy           0.814455983482 Eh    ::

    * Orbital Energies and Occupations

         #    Occupation            Energy/Eh            Energy/eV
      -------------------------------------------------------------
         1        2.0000           -0.8654911             -23.5512
       ...           ...                  ...                  ...
        55        2.0000           -0.5131154             -13.9626
        56        2.0000           -0.5096118             -13.8672
        57        2.0000           -0.5077895             -13.8177
        58        2.0000           -0.5044321             -13.7263
        59        2.0000           -0.4983062             -13.5596
        60        2.0000           -0.4848919             -13.1946
        61        2.0000           -0.4737307             -12.8909
        62        2.0000           -0.4665913             -12.6966
        63        2.0000           -0.4632913             -12.6068
        64        2.0000           -0.4595896             -12.5061
        65        2.0000           -0.4545730             -12.3696
        66        2.0000           -0.4512141             -12.2782
        67        2.0000           -0.4430072             -12.0548 (HOMO)
        68                         -0.3531619              -9.6100 (LUMO)
        69                         -0.3140907              -8.5468
        70                         -0.3006585              -8.1813
        71                         -0.2722148              -7.4073
        72                         -0.2585507              -7.0355
        73                         -0.2284673              -6.2169
        74                         -0.2024010              -5.5076
        75                         -0.1480100              -4.0276
        76                         -0.1427062              -3.8832
        77                         -0.1314828              -3.5778
        78                         -0.1264333              -3.4404
       ...                                ...                  ...
       134                          0.7581497              20.6303
      -------------------------------------------------------------
                  HL-Gap            0.0898453 Eh            2.4448 eV

Wiberg/Mayer (AO) data.
largest (>0.10) Wiberg bond orders for each atom

     #   Z sym  total        # sym  WBO       # sym  WBO       # sym  WBO
 ---------------------------------------------------------------------------
     1   6 C    3.854 --    26 H    0.985    27 H    0.980    28 H    0.980
                             2 O    0.876
     2   8 O    2.213 --     3 C    1.149     1 C    0.876     4 O    0.139
     3   6 C    3.843 --     4 O    1.706     2 O    1.149     5 C    0.865
     4   8 O    1.986 --     3 C    1.706     2 O    0.139
     5   6 C    3.963 --     6 C    0.981     7 N    0.977    24 C    0.954
                             3 C    0.865
     6   6 C    3.984 --    29 H    0.985    30 H    0.984    31 H    0.982
                             5 C    0.981
     7   7 N    3.027 --     8 C    1.759     5 C    0.977
     8   6 C    3.928 --     7 N    1.759    21 N    1.068     9 C    0.977
     9   6 C    3.933 --    11 C    0.990     8 C    0.977    10 C    0.976
                            12 N    0.924
    10   6 C    3.987 --    33 H    0.985    32 H    0.984    34 H    0.976
                             9 C    0.976
    11   6 C    3.989 --     9 C    0.990    37 H    0.985    36 H    0.983
                            35 H    0.982
    12   7 N    3.325 --    13 C    1.232     9 C    0.924    38 H    0.894
                            14 O    0.172
    13   6 C    3.914 --    14 O    1.608    12 N    1.232    15 C    0.990
    14   8 O    1.922 --    13 C    1.608    12 N    0.172
    15   6 C    3.876 --    16 N    1.608    20 O    1.065    13 C    0.990
    16   7 N    3.019 --    15 C    1.608    17 N    1.202
    17   7 N    2.981 --    18 C    1.602    16 N    1.202
    18   6 C    3.870 --    17 N    1.602    20 O    1.084    19 C    1.032
    19   6 C    3.986 --    18 C    1.032    39 H    0.982    41 H    0.968
                            40 H    0.959
    20   8 O    2.332 --    18 C    1.084    15 C    1.065
    21   7 N    3.428 --    22 C    1.183     8 C    1.068    42 H    0.880
                            23 O    0.148
    22   6 C    3.892 --    23 O    1.675    21 N    1.183    24 C    0.906
    23   8 O    1.958 --    22 C    1.675    21 N    0.148
    24   6 C    3.848 --    25 O    1.811     5 C    0.954    22 C    0.906
    25   8 O    2.023 --    24 C    1.811
    26   1 H    1.008 --     1 C    0.985
    27   1 H    1.003 --     1 C    0.980
    28   1 H    1.003 --     1 C    0.980
    29   1 H    1.000 --     6 C    0.985
    30   1 H    1.004 --     6 C    0.984
    31   1 H    1.006 --     6 C    0.982
    32   1 H    1.000 --    10 C    0.984
    33   1 H    1.002 --    10 C    0.985
    34   1 H    1.010 --    10 C    0.976
    35   1 H    1.005 --    11 C    0.982
    36   1 H    1.008 --    11 C    0.983
    37   1 H    1.003 --    11 C    0.985
    38   1 H    0.952 --    12 N    0.894
    39   1 H    0.998 --    19 C    0.982
    40   1 H    0.996 --    19 C    0.959
    41   1 H    0.996 --    19 C    0.968
    42   1 H    0.927 --    21 N    0.880
 ---------------------------------------------------------------------------

           -------------------------------------------------
          | TOTAL ENERGY              -83.001494909512 Eh   |
          | GRADIENT NORM               0.000930262201 Eh/α |
          | HOMO-LUMO GAP               2.444815865920 eV   |
           -------------------------------------------------

 * finished run on 2023/06/21 at 17:32:46.032
