   * xtb version 6.5.1 (579679a) compiled by 'ehlert@majestix' on 2022-07-11
          program call               : /lustre/hpc/kemi/ree/PhD/git/ReactivityQM/dep/xtb-6.5.1/bin/xtb --gfn 1 /lustre/hpc/kemi/ree/PhD/git/ReactivityQM/calculations/RaltegravirCLI/reac02/conf05/RaltegravirCLI_reac02_conf05_gfn1.xyz --opt --vfukui --chrg 0 --uhf 0 --alpb DMSO

   ID    Z sym.   atoms
    1    6 C      1, 3-6, 9, 10, 13-17, 19-21, 23
    2    7 N      2, 7, 8, 12
    3    8 O      11, 22, 24
    4    9 F      18
    5    1 H      25-43

      * Solvation model:               ALPB
        Solvent                        DMSO
        Solvent mass                       7.8130E+01 g/mol
          :  Hamiltonian                  GFN1-xTB          :
 * total energy  :   -76.1686473 Eh     change       -0.7460699E-11 Eh
 * total energy  :   -76.1759953 Eh     change       -0.7348009E-02 Eh
 * total energy  :   -76.1776227 Eh     change       -0.1627327E-02 Eh
 * total energy  :   -76.1779209 Eh     change       -0.2982047E-03 Eh
 * total energy  :   -76.1781790 Eh     change       -0.2581011E-03 Eh
 * total energy  :   -76.1782822 Eh     change       -0.1032008E-03 Eh
 * total energy  :   -76.1783483 Eh     change       -0.6614303E-04 Eh
 * total energy  :   -76.1783790 Eh     change       -0.3068674E-04 Eh
 * total energy  :   -76.1784043 Eh     change       -0.2526991E-04 Eh
 * total energy  :   -76.1784166 Eh     change       -0.1232598E-04 Eh
 * total energy  :   -76.1815567 Eh     change       -0.2323154E-04 Eh
 * total energy  :   -76.1815760 Eh     change       -0.1924809E-04 Eh
 * total energy  :   -76.1815870 Eh     change       -0.1097087E-04 Eh
 * total energy  :   -76.1815950 Eh     change       -0.8056646E-05 Eh
 * total energy  :   -76.1816006 Eh     change       -0.5550780E-05 Eh
 * total energy  :   -76.1816057 Eh     change       -0.5162795E-05 Eh
 * total energy  :   -76.1816109 Eh     change       -0.5136650E-05 Eh
 * total energy  :   -76.1816159 Eh     change       -0.5073916E-05 Eh
 * total energy  :   -76.1816195 Eh     change       -0.3552759E-05 Eh
   *** GEOMETRY OPTIMIZATION CONVERGED AFTER 93 ITERATIONS ***

 final structure:
================
43
 xtb: 6.5.1 (579679a)
C           -3.78549828882597       -0.09334328503233        2.19652018502172
N           -2.57420071704315        0.15013779061533        1.41005577948329
C           -2.52470626120678        0.04869033545386        0.04152930179252
C           -3.73420958744113       -0.35826223732087       -0.79206361050275
C           -3.84735850836091       -1.89036101726300       -0.77756651660349
C           -3.52975781167536        0.12167876803675       -2.23937906479709
N           -4.95853782438864        0.22232954009781       -0.25113910907337
N           -1.42539693168911        0.23978472778639       -0.61728508764843
C           -0.26086208959049        0.58936883634862        0.00493289568448
C            0.91796190923357        0.71907794375740       -0.91731860135665
O            0.90902233115261        0.23288442978563       -2.04203317129606
N            1.96468325975984        1.41379601218020       -0.43137143955739
C            3.20358883974854        1.53730416894617       -1.19003955363925
C            4.20180807885540        0.48873219333524       -0.74701095929368
C            5.36773280867593        0.85827195077489       -0.08226622830754
C            6.27633360556210       -0.10332447156322        0.34059570237437
C            5.98770338443827       -1.43178599482871        0.08902818420641
F            6.85814115008345       -2.36986235333355        0.49797717536949
C            4.83874824504917       -1.83460660176484       -0.56905490678488
C            3.94486995171630       -0.86050270107246       -0.98805505106183
C           -0.25231247268485        0.74103253834818        1.36013361524884
O            0.83926097884772        1.07523031721430        2.08316245558640
C           -1.45756783891347        0.52039482312736        2.13536631890223
O           -1.46716573771811        0.64560935828481        3.35970065075293
H           -4.30859061703655       -0.96633764949442        1.81984819265101
H           -4.44183628783566        0.77320832225295        2.13776570591080
H           -3.48890204394693       -0.25966620796079        3.23194941623320
H           -2.91642257755137       -2.33378073194038       -1.12990104767247
H           -4.65766390746046       -2.20218982704304       -1.43492071583291
H           -4.05418360303979       -2.25880668163727        0.22569192877200
H           -2.65701368981007       -0.35816841718160       -2.68105905605389
H           -3.38450663056932        1.20089326414519       -2.25875386452978
H           -4.41050184748632       -0.12724950939876       -2.82840327030208
H           -4.98799478418780        1.21163821922750       -0.46054133415079
H           -5.75553738586604       -0.20790531566258       -0.69841175990108
H            1.96969464385369        1.75648766397187        0.51442158253791
H            3.60493008172379        2.54119344819414       -1.03260667742463
H            2.96246995958656        1.40998195616541       -2.25080436436495
H            5.57412078193582        1.90490970100654        0.10770049274122
H            7.18650445854794        0.17175518211834        0.85701646044085
H            4.65247222881489       -2.88567429952558       -0.74747331269812
H            3.03843248242688       -1.15130384184619       -1.50728809673689
H            0.58224726431450        1.11874065269378        3.02410675587981

          :  Hamiltonian                  GFN1-xTB          :
         :: total energy             -76.181619500467 Eh    ::
         :: gradient norm              0.000462418153 Eh/a0 ::
         :: HOMO-LUMO gap              2.811598014767 eV    ::
         :: SCC energy               -77.028152310186 Eh    ::
         :: -> Gsolv                  -0.048507300610 Eh    ::
         :: repulsion energy           0.873806098577 Eh    ::

    * Orbital Energies and Occupations

         #    Occupation            Energy/Eh            Energy/eV
      -------------------------------------------------------------
         1        2.0000           -0.8637823             -23.5047
       ...           ...                  ...                  ...
        52        2.0000           -0.4995113             -13.5924
        53        2.0000           -0.4931636             -13.4197
        54        2.0000           -0.4846585             -13.1882
        55        2.0000           -0.4732908             -12.8789
        56        2.0000           -0.4669369             -12.7060
        57        2.0000           -0.4642523             -12.6329
        58        2.0000           -0.4513274             -12.2812
        59        2.0000           -0.4481221             -12.1940
        60        2.0000           -0.4396907             -11.9646
        61        2.0000           -0.4347623             -11.8305
        62        2.0000           -0.4321275             -11.7588
        63        2.0000           -0.4198849             -11.4256
        64        2.0000           -0.4126939             -11.2300 (HOMO)
        65                         -0.3093696              -8.4184 (LUMO)
        66                         -0.2733508              -7.4383
        67                         -0.2731804              -7.4336
        68                         -0.2664615              -7.2508
        69                         -0.2269247              -6.1749
        70                         -0.1500324              -4.0826
        71                         -0.1454332              -3.9574
        72                         -0.1316822              -3.5833
        73                         -0.1236419              -3.3645
        74                         -0.1206251              -3.2824
        75                         -0.1162563              -3.1635
       ...                                ...                  ...
       134                          0.7147836              19.4503
      -------------------------------------------------------------
                  HL-Gap            0.1033243 Eh            2.8116 eV

Wiberg/Mayer (AO) data.
largest (>0.10) Wiberg bond orders for each atom

     #   Z sym  total        # sym  WBO       # sym  WBO       # sym  WBO
 ---------------------------------------------------------------------------
     1   6 C    3.922 --    25 H    0.978    27 H    0.976    26 H    0.976
                             2 N    0.928
     2   7 N    3.515 --     3 C    1.172    23 C    1.137     1 C    0.928
                            24 O    0.132
     3   6 C    3.923 --     8 N    1.563     2 N    1.172     4 C    0.976
     4   6 C    3.966 --     6 C    0.988     7 N    0.985     5 C    0.981
                             3 C    0.976
     5   6 C    3.994 --    28 H    0.985    29 H    0.983     4 C    0.981
                            30 H    0.980
     6   6 C    3.994 --     4 C    0.988    33 H    0.986    32 H    0.985
                            31 H    0.983
     7   7 N    2.977 --     4 C    0.985    34 H    0.941    35 H    0.939
     8   7 N    3.030 --     3 C    1.563     9 C    1.199
     9   6 C    3.964 --    21 C    1.510     8 N    1.199    10 C    0.986
    10   6 C    3.906 --    11 O    1.573    12 N    1.266     9 C    0.986
    11   8 O    1.878 --    10 C    1.573    12 N    0.171
    12   7 N    3.347 --    10 C    1.266    13 C    0.942    36 H    0.890
                            11 O    0.171
    13   6 C    3.948 --    14 C    0.994    37 H    0.977    38 H    0.966
                            12 N    0.942
    14   6 C    3.988 --    15 C    1.424    20 C    1.413    13 C    0.994
    15   6 C    3.994 --    16 C    1.438    14 C    1.424    39 H    0.971
                            19 C    0.109
    16   6 C    3.991 --    15 C    1.438    17 C    1.405    40 H    0.969
                            20 C    0.112
    17   6 C    3.860 --    16 C    1.405    19 C    1.397    18 F    0.924
    18   9 F    1.052 --    17 C    0.924
    19   6 C    3.992 --    20 C    1.449    17 C    1.397    41 H    0.970
                            15 C    0.109
    20   6 C    3.993 --    19 C    1.449    14 C    1.413    42 H    0.970
                            16 C    0.112
    21   6 C    3.916 --     9 C    1.510    23 C    1.094    22 O    1.067
    22   8 O    2.058 --    21 C    1.067    43 H    0.802
    23   6 C    3.917 --    24 O    1.534     2 N    1.137    21 C    1.094
    24   8 O    1.885 --    23 C    1.534     2 N    0.132
    25   1 H    1.022 --     1 C    0.978
    26   1 H    1.018 --     1 C    0.976
    27   1 H    1.009 --     1 C    0.976
    28   1 H    1.004 --     5 C    0.985
    29   1 H    1.000 --     5 C    0.983
    30   1 H    1.005 --     5 C    0.980
    31   1 H    1.015 --     6 C    0.983
    32   1 H    1.007 --     6 C    0.985
    33   1 H    1.004 --     6 C    0.986
    34   1 H    0.957 --     7 N    0.941
    35   1 H    0.954 --     7 N    0.939
    36   1 H    0.946 --    12 N    0.890
    37   1 H    1.004 --    13 C    0.977
    38   1 H    1.011 --    13 C    0.966
    39   1 H    1.000 --    15 C    0.971
    40   1 H    0.998 --    16 C    0.969
    41   1 H    0.998 --    19 C    0.970
    42   1 H    1.007 --    20 C    0.970
    43   1 H    0.847 --    22 O    0.802
 ---------------------------------------------------------------------------

           -------------------------------------------------
          | TOTAL ENERGY              -76.181619500467 Eh   |
          | GRADIENT NORM               0.000462418153 Eh/α |
          | HOMO-LUMO GAP               2.811598014767 eV   |
           -------------------------------------------------

 * finished run on 2023/06/20 at 14:51:55.151
