   * xtb version 6.5.1 (579679a) compiled by 'ehlert@majestix' on 2022-07-11
          program call               : /lustre/hpc/kemi/ree/PhD/git/ReactivityQM/dep/xtb-6.5.1/bin/xtb --gfn 1 /lustre/hpc/kemi/ree/PhD/git/ReactivityQM/calculations/R01/reac01prodN07/conf04/R01_reac01prodN07_conf04_gfn1.xyz --opt --vfukui --chrg 1 --uhf 0 --alpb DMSO

   ID    Z sym.   atoms
    1    6 C      1, 3, 5, 8-10
    2    8 O      2, 4, 11
    3    7 N      6, 7
    4    1 H      12-20

      * Solvation model:               ALPB
        Solvent                        DMSO
        Solvent mass                       7.8130E+01 g/mol
          :  Hamiltonian                  GFN1-xTB          :
 * total energy  :   -37.5560559 Eh     change       -0.3716139E-11 Eh
 * total energy  :   -37.5687551 Eh     change       -0.1269925E-01 Eh
 * total energy  :   -37.5735923 Eh     change       -0.4837188E-02 Eh
 * total energy  :   -37.5742621 Eh     change       -0.6697388E-03 Eh
 * total energy  :   -37.5746258 Eh     change       -0.3637363E-03 Eh
 * total energy  :   -37.5746764 Eh     change       -0.5057256E-04 Eh
 * total energy  :   -37.5747117 Eh     change       -0.3534040E-04 Eh
 * total energy  :   -37.5747308 Eh     change       -0.1913437E-04 Eh
 * total energy  :   -37.5747415 Eh     change       -0.1070804E-04 Eh
 * total energy  :   -37.5747459 Eh     change       -0.4353405E-05 Eh
   *** GEOMETRY OPTIMIZATION CONVERGED AFTER 10 ITERATIONS ***

 final structure:
================
20
 xtb: 6.5.1 (579679a)
C            4.11614860821689        0.28374590341265       -0.45051877638111
O            2.73636818457941       -0.11188512480621       -0.58728051381988
C            1.84833817826226        0.56243971153526        0.08478493721653
O            2.01661507538743        1.48920334537448        0.81760018686494
C            0.45050622791425       -0.01015573614317       -0.19006118599010
N            0.15921168847865       -1.07487125928917       -1.01323825175005
N           -1.08873917285491       -1.24132490968099       -0.97829293601302
C           -1.69392895766541       -0.28610348961761       -0.12305315915539
C           -2.65110991619586        0.62721235507793       -0.90593409133559
C           -2.38806426934039       -0.96837963107988        1.06651728209438
O           -0.58608739457339        0.47444976699677        0.34378716899295
H            4.68030958640553       -0.35648089571179       -1.12406796149971
H            4.21991720940578        1.33443513174969       -0.72470174336039
H            4.43045209988040        0.13923443365237        0.58409435432993
H           -3.02718289398827        1.39315003338496       -0.23173489446933
H           -3.47163469401978        0.02415203812441       -1.28649415663847
H           -2.10988460503293        1.08793295920083       -1.72943519803643
H           -3.20598803487054       -1.57632103186915        0.68830147777912
H           -2.76849641556011       -0.19830794246479        1.73343902449338
H           -1.66675150442916       -1.59212465784683        1.58994143667804

          :  Hamiltonian                  GFN1-xTB          :
         :: total energy             -37.574745895373 Eh    ::
         :: gradient norm              0.000844146531 Eh/a0 ::
         :: HOMO-LUMO gap              1.771898401164 eV    ::
         :: SCC energy               -37.910562345007 Eh    ::
         :: -> Gsolv                  -0.081312786866 Eh    ::
         :: repulsion energy           0.344235613913 Eh    ::

    * Orbital Energies and Occupations

         #    Occupation            Energy/Eh            Energy/eV
      -------------------------------------------------------------
         1        2.0000           -0.9572276             -26.0475
       ...           ...                  ...                  ...
        18        2.0000           -0.6146182             -16.7246
        19        2.0000           -0.6120978             -16.6560
        20        2.0000           -0.6110727             -16.6281
        21        2.0000           -0.5875262             -15.9874
        22        2.0000           -0.5858533             -15.9419
        23        2.0000           -0.5797601             -15.7761
        24        2.0000           -0.5749920             -15.6463
        25        2.0000           -0.5683656             -15.4660
        26        2.0000           -0.5556613             -15.1203
        27        2.0000           -0.5529671             -15.0470
        28        2.0000           -0.5429063             -14.7732
        29        2.0000           -0.5362240             -14.5914
        30        2.0000           -0.5246670             -14.2769 (HOMO)
        31                         -0.4595509             -12.5050 (LUMO)
        32                         -0.3775058             -10.2725
        33                         -0.2805504              -7.6342
        34                         -0.1700177              -4.6264
        35                         -0.1641756              -4.4674
        36                         -0.1606981              -4.3728
        37                         -0.1201516              -3.2695
        38                         -0.1122177              -3.0536
        39                         -0.0984728              -2.6796
        40                         -0.0957862              -2.6065
        41                         -0.0933772              -2.5409
       ...                                ...                  ...
        62                          0.7393251              20.1181
      -------------------------------------------------------------
                  HL-Gap            0.0651161 Eh            1.7719 eV

Wiberg/Mayer (AO) data.
largest (>0.10) Wiberg bond orders for each atom

     #   Z sym  total        # sym  WBO       # sym  WBO       # sym  WBO
 ---------------------------------------------------------------------------
     1   6 C    3.820 --    12 H    0.983    13 H    0.972    14 H    0.971
                             2 O    0.854
     2   8 O    2.261 --     3 C    1.194     1 C    0.854     4 O    0.173
     3   6 C    3.881 --     4 O    1.720     2 O    1.194     5 C    0.897
     4   8 O    2.012 --     3 C    1.720     2 O    0.173
     5   6 C    3.788 --    11 O    1.393     6 N    1.199     3 C    0.897
     6   7 N    3.022 --     7 N    1.678     5 C    1.199
     7   7 N    2.995 --     6 N    1.678     8 C    1.074
     8   6 C    3.813 --     7 N    1.074    10 C    0.884     9 C    0.884
                            11 O    0.868
     9   6 C    3.942 --    17 H    0.978    16 H    0.975    15 H    0.974
                             8 C    0.884
    10   6 C    3.942 --    20 H    0.978    18 H    0.975    19 H    0.974
                             8 C    0.884
    11   8 O    2.442 --     5 C    1.393     8 C    0.868
    12   1 H    1.002 --     1 C    0.983
    13   1 H    0.996 --     1 C    0.972
    14   1 H    0.995 --     1 C    0.971
    15   1 H    0.989 --     9 C    0.974
    16   1 H    0.989 --     9 C    0.975
    17   1 H    0.989 --     9 C    0.978
    18   1 H    0.989 --    10 C    0.975
    19   1 H    0.989 --    10 C    0.974
    20   1 H    0.989 --    10 C    0.978
 ---------------------------------------------------------------------------

           -------------------------------------------------
          | TOTAL ENERGY              -37.574745895373 Eh   |
          | GRADIENT NORM               0.000844146531 Eh/α |
          | HOMO-LUMO GAP               1.771898401164 eV   |
           -------------------------------------------------

 * finished run on 2023/06/20 at 14:56:43.769
