   * xtb version 6.5.1 (579679a) compiled by 'ehlert@majestix' on 2022-07-11
          program call               : /lustre/hpc/kemi/ree/PhD/git/ReactivityQM/dep/xtb-6.5.1/bin/xtb --gfn 1 /lustre/hpc/kemi/ree/PhD/git/ReactivityQM/calculations/R02deprot/reac01prodN03/conf07/R02deprot_reac01prodN03_conf07_gfn1.xyz --opt --vfukui --chrg 0 --uhf 0 --alpb DMSO

   ID    Z sym.   atoms
    1    6 C      1, 3, 5, 7-10, 12, 14, 17, 18, 21, 22, 24
    2    8 O      2, 4, 13, 19, 23, 25
    3    7 N      6, 11, 15, 16, 20
    4    1 H      26-42

      * Solvation model:               ALPB
        Solvent                        DMSO
        Solvent mass                       7.8130E+01 g/mol
          :  Hamiltonian                  GFN1-xTB          :
 * total energy  :   -82.9974736 Eh     change       -0.1436717E-10 Eh
 * total energy  :   -83.0068770 Eh     change       -0.9403432E-02 Eh
 * total energy  :   -83.0101825 Eh     change       -0.3305432E-02 Eh
 * total energy  :   -83.0108419 Eh     change       -0.6594745E-03 Eh
 * total energy  :   -83.0114475 Eh     change       -0.6055814E-03 Eh
 * total energy  :   -83.0118053 Eh     change       -0.3577838E-03 Eh
 * total energy  :   -83.0121353 Eh     change       -0.3300257E-03 Eh
 * total energy  :   -83.0123788 Eh     change       -0.2434935E-03 Eh
 * total energy  :   -83.0125043 Eh     change       -0.1254764E-03 Eh
 * total energy  :   -83.0125647 Eh     change       -0.6036675E-04 Eh
 * total energy  :   -83.0131137 Eh     change       -0.3134450E-04 Eh
 * total energy  :   -83.0131226 Eh     change       -0.8946999E-05 Eh
 * total energy  :   -83.0131419 Eh     change       -0.1926992E-04 Eh
 * total energy  :   -83.0131476 Eh     change       -0.5755464E-05 Eh
 * total energy  :   -83.0131577 Eh     change       -0.1001705E-04 Eh
 * total energy  :   -83.0131623 Eh     change       -0.4613178E-05 Eh
 * total energy  :   -83.0131725 Eh     change       -0.1025252E-04 Eh
 * total energy  :   -83.0131781 Eh     change       -0.5565356E-05 Eh
 * total energy  :   -83.0131827 Eh     change       -0.4570070E-05 Eh
   *** GEOMETRY OPTIMIZATION CONVERGED AFTER 37 ITERATIONS ***

 final structure:
================
42
 xtb: 6.5.1 (579679a)
C           -4.78376135322239       -3.08481420436607       -1.06963573154164
O           -3.78438538350244       -2.10093042047484       -0.78107248169630
C           -3.74843510072484       -1.04494086293491       -1.58079129572169
O           -4.51531896292714       -0.89052444321174       -2.51554402553598
C           -2.69145669096901       -0.06465885417893       -1.24226618605692
N           -1.88842457782422       -0.33865777578825       -0.17296850742402
C           -0.94185111743842        0.47494921904098        0.16983562277261
C           -0.14745995159331        0.08050824743528        1.40941303519420
C           -0.48721072449569       -1.36677418415796        1.79456651546487
C           -0.51324232666045        1.02147038853789        2.56667419377933
N            1.28346095925733        0.14345163232702        1.08469526649257
C            2.25924582991908       -0.09486503857382        1.99152579905852
O            2.09779176626123       -0.22999936640442        3.19151344757958
C            3.60536931035283       -0.15429725353109        1.36815416599483
N            4.73524089074762       -0.41090724390128        1.95012437701777
N            5.69334213161844       -0.37795581682956        0.98215629900621
C            5.09033726922575       -0.10286284455745       -0.13211343376624
C            5.69456263428589        0.05679557953941       -1.47260666898517
O            3.76629504805334        0.04971826857453        0.04164479558115
N           -0.71356459464135        1.64155361387053       -0.51109716012213
C            0.32371566928901        2.62466558878517       -0.18655304418299
C           -1.47855908932689        2.02724645460797       -1.61226104148646
O           -1.24872585571936        3.08210435857611       -2.18483524133580
C           -2.52857741587544        1.08115730386945       -1.97933688482799
O           -3.27771795568213        1.41383077256846       -3.03188553717039
H           -5.77798587029173       -2.63681360586719       -1.00613850450263
H           -4.67185574083559       -3.86966642179038       -0.32469470221891
H           -4.63153718586066       -3.48684796623162       -2.07371914745670
H            0.09511916771864       -1.65785416719922        2.66709916838621
H           -1.54702064662566       -1.44741280368496        2.02834158158238
H           -0.25644845348767       -2.03698857500870        0.96856725843749
H           -1.59563004249001        1.01948325991436        2.68980843455396
H           -0.05445789736008        0.67583110031683        3.49095965935400
H           -0.18516042386893        2.03967003556766        2.37274837502905
H            1.53161369952447        0.07083214771935        0.11134019713767
H            6.72784490003514       -0.28219731924674       -1.45155938665437
H            5.66645322259536        1.10593509655617       -1.76937675736788
H            5.13061427474117       -0.51635801122583       -2.20723218460280
H           -0.15973405581727        3.55154168546147        0.12358887501050
H            0.97661568785547        2.26256442089092        0.59690095153699
H            0.90423154464952        2.81423782016911       -1.08955164919900
H           -3.95333358889289        0.71916818483526       -3.20441844711492

          :  Hamiltonian                  GFN1-xTB          :
         :: total energy             -83.013182666884 Eh    ::
         :: gradient norm              0.000712453535 Eh/a0 ::
         :: HOMO-LUMO gap              2.791473105906 eV    ::
         :: SCC energy               -83.793472942499 Eh    ::
         :: -> Gsolv                  -0.054984893819 Eh    ::
         :: repulsion energy           0.806625984013 Eh    ::

    * Orbital Energies and Occupations

         #    Occupation            Energy/Eh            Energy/eV
      -------------------------------------------------------------
         1        2.0000           -0.8668958             -23.5894
       ...           ...                  ...                  ...
        55        2.0000           -0.5063111             -13.7774
        56        2.0000           -0.5015038             -13.6466
        57        2.0000           -0.4991505             -13.5826
        58        2.0000           -0.4885647             -13.2945
        59        2.0000           -0.4813650             -13.0986
        60        2.0000           -0.4745254             -12.9125
        61        2.0000           -0.4686029             -12.7513
        62        2.0000           -0.4624497             -12.5839
        63        2.0000           -0.4584843             -12.4760
        64        2.0000           -0.4531038             -12.3296
        65        2.0000           -0.4484264             -12.2023
        66        2.0000           -0.4441732             -12.0866
        67        2.0000           -0.4273521             -11.6288 (HOMO)
        68                         -0.3247674              -8.8374 (LUMO)
        69                         -0.3130932              -8.5197
        70                         -0.2845887              -7.7441
        71                         -0.2580179              -7.0210
        72                         -0.2418156              -6.5801
        73                         -0.2011513              -5.4736
        74                         -0.1579764              -4.2988
        75                         -0.1428957              -3.8884
        76                         -0.1397620              -3.8031
        77                         -0.1376029              -3.7444
        78                         -0.1252230              -3.4075
       ...                                ...                  ...
       134                          0.7288248              19.8323
      -------------------------------------------------------------
                  HL-Gap            0.1025847 Eh            2.7915 eV

Wiberg/Mayer (AO) data.
largest (>0.10) Wiberg bond orders for each atom

     #   Z sym  total        # sym  WBO       # sym  WBO       # sym  WBO
 ---------------------------------------------------------------------------
     1   6 C    3.866 --    27 H    0.986    26 H    0.979    28 H    0.979
                             2 O    0.892
     2   8 O    2.217 --     3 C    1.135     1 C    0.892     4 O    0.130
     3   6 C    3.848 --     4 O    1.607     2 O    1.135     5 C    1.019
     4   8 O    1.942 --     3 C    1.607     2 O    0.130
     5   6 C    3.964 --    24 C    1.475     6 N    1.189     3 C    1.019
     6   7 N    3.031 --     7 C    1.568     5 C    1.189
     7   6 C    3.931 --     6 N    1.568    20 N    1.177     8 C    0.976
     8   6 C    3.933 --     9 C    0.990    10 C    0.982     7 C    0.976
                            11 N    0.920
     9   6 C    3.989 --     8 C    0.990    31 H    0.985    30 H    0.984
                            29 H    0.982
    10   6 C    3.988 --    32 H    0.985     8 C    0.982    34 H    0.981
                            33 H    0.977
    11   7 N    3.343 --    12 C    1.241     8 C    0.920    35 H    0.896
                            13 O    0.172
    12   6 C    3.915 --    13 O    1.595    11 N    1.241    14 C    0.993
    13   8 O    1.911 --    12 C    1.595    11 N    0.172
    14   6 C    3.872 --    15 N    1.623    19 O    1.046    12 C    0.993
    15   7 N    3.000 --    14 C    1.623    16 N    1.199
    16   7 N    2.982 --    17 C    1.611    15 N    1.199
    17   6 C    3.868 --    16 N    1.611    19 O    1.071    18 C    1.032
    18   6 C    3.986 --    17 C    1.032    36 H    0.981    38 H    0.968
                            37 H    0.959
    19   8 O    2.315 --    17 C    1.071    14 C    1.046
    20   7 N    3.505 --     7 C    1.177    22 C    1.110    21 C    0.929
                            23 O    0.137
    21   6 C    3.921 --    40 H    0.977    39 H    0.975    41 H    0.975
                            20 N    0.929
    22   6 C    3.913 --    23 O    1.585    20 N    1.110    24 C    1.070
    23   8 O    1.901 --    22 C    1.585    20 N    0.137
    24   6 C    3.922 --     5 C    1.475    25 O    1.123    22 C    1.070
    25   8 O    2.092 --    24 C    1.123    42 H    0.779
    26   1 H    1.006 --     1 C    0.979
    27   1 H    1.010 --     1 C    0.986
    28   1 H    1.006 --     1 C    0.979
    29   1 H    1.006 --     9 C    0.982
    30   1 H    1.012 --     9 C    0.984
    31   1 H    1.008 --     9 C    0.985
    32   1 H    1.002 --    10 C    0.985
    33   1 H    1.011 --    10 C    0.977
    34   1 H    1.001 --    10 C    0.981
    35   1 H    0.940 --    11 N    0.896
    36   1 H    0.998 --    18 C    0.981
    37   1 H    0.996 --    18 C    0.959
    38   1 H    0.996 --    18 C    0.968
    39   1 H    1.003 --    21 C    0.975
    40   1 H    1.009 --    21 C    0.977
    41   1 H    1.005 --    21 C    0.975
    42   1 H    0.852 --    25 O    0.779
 ---------------------------------------------------------------------------

           -------------------------------------------------
          | TOTAL ENERGY              -83.013182666884 Eh   |
          | GRADIENT NORM               0.000712453535 Eh/α |
          | HOMO-LUMO GAP               2.791473105906 eV   |
           -------------------------------------------------

 * finished run on 2023/06/20 at 18:07:51.935
