   * xtb version 6.5.1 (579679a) compiled by 'ehlert@majestix' on 2022-07-11
          program call               : /lustre/hpc/kemi/ree/PhD/git/ReactivityQM/dep/xtb-6.5.1/bin/xtb --gfn 1 /lustre/hpc/kemi/ree/PhD/git/ReactivityQM/calculations/R03/reac02prodN19/conf06/R03_reac02prodN19_conf06_gfn1.xyz --opt --vfukui --chrg 1 --uhf 0 --alpb DMSO

   ID    Z sym.   atoms
    1    6 C      1, 3, 5, 7-10, 12, 14, 17, 18, 21, 22, 24, 25
    2    8 O      2, 4, 13, 19, 23, 26
    3    7 N      6, 11, 15, 16, 20
    4    1 H      27-46

      * Solvation model:               ALPB
        Solvent                        DMSO
        Solvent mass                       7.8130E+01 g/mol
          :  Hamiltonian                  GFN1-xTB          :
 * total energy  :   -86.3205888 Eh     change       -0.1575984E-10 Eh
 * total energy  :   -86.3410711 Eh     change       -0.2048232E-01 Eh
 * total energy  :   -86.3488082 Eh     change       -0.7737120E-02 Eh
 * total energy  :   -86.3507473 Eh     change       -0.1939098E-02 Eh
 * total energy  :   -86.3520830 Eh     change       -0.1335705E-02 Eh
 * total energy  :   -86.3527445 Eh     change       -0.6615249E-03 Eh
 * total energy  :   -86.3533174 Eh     change       -0.5729139E-03 Eh
 * total energy  :   -86.3538642 Eh     change       -0.5467608E-03 Eh
 * total energy  :   -86.3543304 Eh     change       -0.4662239E-03 Eh
 * total energy  :   -86.3547037 Eh     change       -0.3732823E-03 Eh
 * total energy  :   -86.3565559 Eh     change       -0.3137121E-04 Eh
 * total energy  :   -86.3565803 Eh     change       -0.2440137E-04 Eh
 * total energy  :   -86.3566134 Eh     change       -0.3315229E-04 Eh
 * total energy  :   -86.3566358 Eh     change       -0.2233683E-04 Eh
 * total energy  :   -86.3566481 Eh     change       -0.1232624E-04 Eh
 * total energy  :   -86.3566596 Eh     change       -0.1153944E-04 Eh
 * total energy  :   -86.3566671 Eh     change       -0.7454613E-05 Eh
 * total energy  :   -86.3566754 Eh     change       -0.8296234E-05 Eh
 * total energy  :   -86.3566798 Eh     change       -0.4385606E-05 Eh
   *** GEOMETRY OPTIMIZATION CONVERGED AFTER 44 ITERATIONS ***

 final structure:
================
46
 xtb: 6.5.1 (579679a)
C           -0.20870372108784        1.38715669629880       -4.04590030042537
O           -0.35839512227093        0.82586787493734       -2.73118077910315
C           -1.57839934278889        0.72363791609617       -2.26294797173694
O           -2.58014428925541        1.07189543485468       -2.85437557907956
C           -1.64832454047333        0.11315478291792       -0.89886560168094
N           -0.50427863631826       -0.20958199563682       -0.28379886305768
C           -0.48120753191968       -0.78171021956226        0.88781536717578
C            0.90271415187884       -1.03889786353384        1.48021590270455
C            1.27655076955292       -2.52225339299914        1.31377542027183
C            1.03975174593691       -0.54224909911878        2.92891825287659
N            1.82243000914346       -0.24251814783196        0.66354715646320
C            3.16388393166895       -0.24276867068229        0.81044982745909
O            3.79146761851433       -0.91181957707591        1.61386784130043
C            3.82673508982000        0.69630783308289       -0.12769373537243
N            5.09475553675686        0.93457670902939       -0.24805086664864
N            5.22663927819947        1.88596948906819       -1.21432291125807
C            4.03074909080610        2.17173107909202       -1.62379091908565
C            3.63317824620171        3.15111859976061       -2.65770400364866
O            3.09704710422670        1.45260410134835       -0.97745843454502
N           -1.66321029297575       -1.11587282791269        1.50309794835692
C           -1.76680280386508       -1.89588736800729        2.74357596107922
C           -2.85412116865100       -0.74004353058736        0.97854227496770
O           -3.89169115776201       -1.04996528414362        1.71713750809644
C           -5.25561008767960       -0.77006322065395        1.35432334427490
C           -2.87557666888601       -0.09490081511884       -0.28460080209369
O           -4.03452575883015        0.25792433344550       -0.82275460729475
H           -0.67721159910687        0.72940903478343       -4.78025215291680
H            0.86153544415299        1.46329342946120       -4.22422898770374
H           -0.67818284350447        2.37153715771356       -4.08129228170189
H            0.54999551445181       -3.16914819756091        1.79726036798253
H            2.25481065964757       -2.69849715016186        1.75852989951819
H            1.31331239254115       -2.76662856571448        0.25334456672840
H            0.58199554092843        0.43982456775676        3.02920521018644
H            0.58669818043471       -1.22369669627419        3.64165128478039
H            2.09907992936165       -0.46663068460802        3.17109585106290
H            1.40812976155681        0.34653809056034       -0.04549795422185
H            4.51729433009262        3.62157833041580       -3.08189336998000
H            2.98818492656207        3.91155161324044       -2.21807184674669
H            3.07063549117450        2.64954990727262       -3.44458456099870
H           -2.53742161767278       -2.65131941461519        2.60059307144875
H           -2.05785010179989       -1.22829064265128        3.55277247288562
H           -0.82752356299940       -2.38294460530220        2.96449788666585
H           -5.51625160344284       -1.29478952597607        0.43499582794799
H           -5.85076652608611       -1.14380441600135        2.18665064776917
H           -5.40189462738112        0.30359411275953        1.23521613944775
H           -3.88948313885994        0.67545781783948       -1.71181250215451

          :  Hamiltonian                  GFN1-xTB          :
         :: total energy             -86.356679763510 Eh    ::
         :: gradient norm              0.000484440635 Eh/a0 ::
         :: HOMO-LUMO gap              2.114325807420 eV    ::
         :: SCC energy               -87.184518589308 Eh    ::
         :: -> Gsolv                  -0.110244190744 Eh    ::
         :: repulsion energy           0.857021691491 Eh    ::

    * Orbital Energies and Occupations

         #    Occupation            Energy/Eh            Energy/eV
      -------------------------------------------------------------
         1        2.0000           -0.8943482             -24.3365
       ...           ...                  ...                  ...
        58        2.0000           -0.5250809             -14.2882
        59        2.0000           -0.5212125             -14.1829
        60        2.0000           -0.5200125             -14.1503
        61        2.0000           -0.5154348             -14.0257
        62        2.0000           -0.5099588             -13.8767
        63        2.0000           -0.5088470             -13.8464
        64        2.0000           -0.4853641             -13.2074
        65        2.0000           -0.4839230             -13.1682
        66        2.0000           -0.4802028             -13.0670
        67        2.0000           -0.4722254             -12.8499
        68        2.0000           -0.4672108             -12.7135
        69        2.0000           -0.4572799             -12.4432
        70        2.0000           -0.4556228             -12.3981 (HOMO)
        71                         -0.3779228             -10.2838 (LUMO)
        72                         -0.3345775              -9.1043
        73                         -0.3167679              -8.6197
        74                         -0.2872466              -7.8164
        75                         -0.2612757              -7.1097
        76                         -0.2048627              -5.5746
        77                         -0.2033793              -5.5342
        78                         -0.1717764              -4.6743
        79                         -0.1601442              -4.3577
        80                         -0.1549059              -4.2152
        81                         -0.1415593              -3.8520
       ...                                ...                  ...
       144                          0.7249530              19.7270
      -------------------------------------------------------------
                  HL-Gap            0.0777000 Eh            2.1143 eV

Wiberg/Mayer (AO) data.
largest (>0.10) Wiberg bond orders for each atom

     #   Z sym  total        # sym  WBO       # sym  WBO       # sym  WBO
 ---------------------------------------------------------------------------
     1   6 C    3.847 --    28 H    0.984    29 H    0.977    27 H    0.976
                             2 O    0.874
     2   8 O    2.245 --     3 C    1.175     1 C    0.874     4 O    0.143
     3   6 C    3.858 --     4 O    1.625     2 O    1.175     5 C    0.984
     4   8 O    1.972 --     3 C    1.625     2 O    0.143
     5   6 C    3.967 --    25 C    1.374     6 N    1.295     3 C    0.984
     6   7 N    3.074 --     7 C    1.504     5 C    1.295
     7   6 C    3.907 --     6 N    1.504    20 N    1.181     8 C    0.982
     8   6 C    3.935 --     7 C    0.982    10 C    0.980     9 C    0.970
                            11 N    0.940
     9   6 C    3.982 --    32 H    0.983    30 H    0.978    31 H    0.974
                             8 C    0.970
    10   6 C    3.983 --    33 H    0.985     8 C    0.980    34 H    0.978
                            35 H    0.974
    11   7 N    3.341 --    12 C    1.252     8 C    0.940    36 H    0.871
                            13 O    0.177
    12   6 C    3.915 --    13 O    1.585    11 N    1.252    14 C    0.994
    13   8 O    1.907 --    12 C    1.585    11 N    0.177
    14   6 C    3.873 --    15 N    1.623    19 O    1.046    12 C    0.994
    15   7 N    3.001 --    14 C    1.623    16 N    1.199
    16   7 N    2.982 --    17 C    1.612    15 N    1.199
    17   6 C    3.868 --    16 N    1.612    19 O    1.071    18 C    1.032
    18   6 C    3.986 --    17 C    1.032    37 H    0.982    39 H    0.963
                            38 H    0.962
    19   8 O    2.315 --    17 C    1.071    14 C    1.046
    20   7 N    3.573 --    22 C    1.260     7 C    1.181    21 C    0.909
    21   6 C    3.890 --    42 H    0.973    40 H    0.968    41 H    0.967
                            20 N    0.909
    22   6 C    3.895 --    20 N    1.260    25 C    1.209    23 O    1.171
    23   8 O    2.256 --    22 C    1.171    24 C    0.857
    24   6 C    3.825 --    44 H    0.981    45 H    0.976    43 H    0.976
                            23 O    0.857
    25   6 C    3.934 --     5 C    1.374    22 C    1.209    26 O    1.139
    26   8 O    2.100 --    25 C    1.139    46 H    0.743
    27   1 H    1.001 --     1 C    0.976
    28   1 H    1.010 --     1 C    0.984
    29   1 H    1.002 --     1 C    0.977
    30   1 H    1.000 --     9 C    0.978
    31   1 H    1.006 --     9 C    0.974
    32   1 H    1.000 --     9 C    0.983
    33   1 H    0.999 --    10 C    0.985
    34   1 H    1.000 --    10 C    0.978
    35   1 H    1.003 --    10 C    0.974
    36   1 H    0.950 --    11 N    0.871
    37   1 H    0.997 --    18 C    0.982
    38   1 H    0.996 --    18 C    0.962
    39   1 H    0.999 --    18 C    0.963
    40   1 H    0.995 --    21 C    0.968
    41   1 H    0.993 --    21 C    0.967
    42   1 H    1.005 --    21 C    0.973
    43   1 H    1.005 --    24 C    0.976
    44   1 H    1.004 --    24 C    0.981
    45   1 H    1.005 --    24 C    0.976
    46   1 H    0.825 --    26 O    0.743
 ---------------------------------------------------------------------------

           -------------------------------------------------
          | TOTAL ENERGY              -86.356679763510 Eh   |
          | GRADIENT NORM               0.000484440635 Eh/α |
          | HOMO-LUMO GAP               2.114325807420 eV   |
           -------------------------------------------------

 * finished run on 2023/06/20 at 15:56:19.752
