   * xtb version 6.5.1 (579679a) compiled by 'ehlert@majestix' on 2022-07-11
          program call               : /lustre/hpc/kemi/ree/PhD/git/ReactivityQM/dep/xtb-6.5.1/bin/xtb --gfn 1 /lustre/hpc/kemi/ree/PhD/git/ReactivityQM/calculations/RaltegravirCLI/reac02prodN04/conf13/RaltegravirCLI_reac02prodN04_conf13_gfn1.xyz --opt --vfukui --chrg 1 --uhf 0 --alpb DMSO

   ID    Z sym.   atoms
    1    6 C      1, 3-6, 9-11, 14-18, 20-22, 24
    2    7 N      2, 7, 8, 13
    3    8 O      12, 23, 25
    4    9 F      19
    5    1 H      26-47

      * Solvation model:               ALPB
        Solvent                        DMSO
        Solvent mass                       7.8130E+01 g/mol
          :  Hamiltonian                  GFN1-xTB          :
 * total energy  :   -79.4981421 Eh     change       -0.2302158E-10 Eh
 * total energy  :   -79.5131530 Eh     change       -0.1501097E-01 Eh
 * total energy  :   -79.5181790 Eh     change       -0.5025930E-02 Eh
 * total energy  :   -79.5192436 Eh     change       -0.1064606E-02 Eh
 * total energy  :   -79.5200129 Eh     change       -0.7693283E-03 Eh
 * total energy  :   -79.5204683 Eh     change       -0.4553774E-03 Eh
 * total energy  :   -79.5208984 Eh     change       -0.4301421E-03 Eh
 * total energy  :   -79.5212351 Eh     change       -0.3366530E-03 Eh
 * total energy  :   -79.5214558 Eh     change       -0.2207695E-03 Eh
 * total energy  :   -79.5216064 Eh     change       -0.1505771E-03 Eh
 * total energy  :   -79.5242998 Eh     change       -0.7825119E-04 Eh
 * total energy  :   -79.5243599 Eh     change       -0.6005199E-04 Eh
 * total energy  :   -79.5244003 Eh     change       -0.4043386E-04 Eh
 * total energy  :   -79.5244306 Eh     change       -0.3027252E-04 Eh
 * total energy  :   -79.5244505 Eh     change       -0.1989801E-04 Eh
 * total energy  :   -79.5244647 Eh     change       -0.1422378E-04 Eh
 * total energy  :   -79.5244755 Eh     change       -0.1074427E-04 Eh
 * total energy  :   -79.5244809 Eh     change       -0.5403783E-05 Eh
 * total energy  :   -79.5244858 Eh     change       -0.4905899E-05 Eh
   *** GEOMETRY OPTIMIZATION CONVERGED AFTER 40 ITERATIONS ***

 final structure:
================
47
 xtb: 6.5.1 (579679a)
C           -3.55099512940801        1.93802057064155        1.34658905528542
N           -2.36375205197198        1.31538960176647        0.73578081781526
C           -2.39329029157468        0.20556787375606       -0.03044801355971
C           -3.60368749016416       -0.73911231479087        0.03524166909700
C           -4.67425947330497       -0.35707653839426       -0.99673480216763
C           -3.21091897568280       -2.22313039500084       -0.11900318628948
N           -4.17011732708422       -0.59785723470685        1.37300163241424
N           -1.30281506828176       -0.08739887340802       -0.74900052605166
C           -1.37030556937436       -0.95579143092723       -1.93717495911407
C           -0.06705898936288        0.51592118483560       -0.53128431949630
C            1.16341139368521       -0.10780989881605       -1.15858947060388
O            1.24960594592630       -1.31552800268154       -1.32185335504193
N            2.12053556710917        0.76274044424998       -1.48301146919928
C            3.40371983618286        0.29047463500006       -2.01154470997835
C            4.33572300966574       -0.05720806185085       -0.87175137814534
C            4.31471261417615       -1.33579192924102       -0.31834783281545
C            5.14819017297448       -1.65686927549949        0.74313094871523
C            5.99213012189752       -0.67685415293994        1.23466587081493
F            6.80033276143524       -0.97995925878230        2.26166306800973
C            6.03466022044166        0.60284546248775        0.71175310161429
C            5.19341376923064        0.90727580986225       -0.34954118349334
C            0.00218323507672        1.53529124602512        0.36246594105703
O            1.14687134144858        2.14558460116994        0.68181952840345
C           -1.19807232048276        2.04706779810230        0.99462414555331
O           -1.19783079308235        3.03435335977727        1.70256080836512
H           -4.44431504399955        1.66132034625003        0.80315816512098
H           -3.62996066195849        1.62738269227864        2.38609594229326
H           -3.40601538677593        3.01780320865657        1.29641096838627
H           -5.50389706071251       -1.05720601970806       -0.91329700757357
H           -5.04671511602342        0.64974709991367       -0.81912423868436
H           -4.27843129918012       -0.40611546970339       -2.00876320311467
H           -3.19680169844510       -2.54809880826868       -1.15565925981717
H           -2.24588134294217       -2.42086198884051        0.34318607369779
H           -3.96525824784764       -2.81655586087812        0.39643092984559
H           -3.58524087121600       -1.08430688424104        2.03961717484118
H           -5.08503127157459       -1.02643485000951        1.38658024953372
H           -0.73202769463133       -0.51622057253254       -2.70064708143534
H           -2.38693029560356       -0.98210167456369       -2.30880126158471
H           -1.01209879314112       -1.95517286915196       -1.69950698669192
H            2.02608446541938        1.74385574905981       -1.28629662937768
H            3.20685193932393       -0.58698575169598       -2.63377825390964
H            3.81735837722649        1.09045405786472       -2.62803221935403
H            3.63902704164216       -2.08295076039269       -0.71761574520256
H            5.14350144108280       -2.64537475842879        1.18379960006119
H            6.70636513892199        1.34314191892820        1.12674070750132
H            5.20682226149912        1.90389063473894       -0.77357978916929
H            0.97020760945065        2.88064534008469        1.29890348344286

          :  Hamiltonian                  GFN1-xTB          :
         :: total energy             -79.524485770785 Eh    ::
         :: gradient norm              0.000951573819 Eh/a0 ::
         :: HOMO-LUMO gap              2.315443662097 eV    ::
         :: SCC energy               -80.425224152940 Eh    ::
         :: -> Gsolv                  -0.107314464975 Eh    ::
         :: repulsion energy           0.932159498979 Eh    ::

    * Orbital Energies and Occupations

         #    Occupation            Energy/Eh            Energy/eV
      -------------------------------------------------------------
         1        2.0000           -0.8799362             -23.9443
       ...           ...                  ...                  ...
        55        2.0000           -0.5184130             -14.1067
        56        2.0000           -0.5173548             -14.0779
        57        2.0000           -0.5148130             -14.0088
        58        2.0000           -0.5121084             -13.9352
        59        2.0000           -0.5057503             -13.7622
        60        2.0000           -0.5054861             -13.7550
        61        2.0000           -0.4806121             -13.0781
        62        2.0000           -0.4776745             -12.9982
        63        2.0000           -0.4712607             -12.8237
        64        2.0000           -0.4598672             -12.5136
        65        2.0000           -0.4570451             -12.4368
        66        2.0000           -0.4438703             -12.0783
        67        2.0000           -0.4375414             -11.9061 (HOMO)
        68                         -0.3524504              -9.5907 (LUMO)
        69                         -0.3505802              -9.5398
        70                         -0.2789736              -7.5913
        71                         -0.2745644              -7.4713
        72                         -0.2670943              -7.2680
        73                         -0.2094204              -5.6986
        74                         -0.1613498              -4.3906
        75                         -0.1523784              -4.1464
        76                         -0.1511629              -4.1134
        77                         -0.1451903              -3.9508
        78                         -0.1381445              -3.7591
       ...                                ...                  ...
       144                          0.6947893              18.9062
      -------------------------------------------------------------
                  HL-Gap            0.0850910 Eh            2.3154 eV

Wiberg/Mayer (AO) data.
largest (>0.10) Wiberg bond orders for each atom

     #   Z sym  total        # sym  WBO       # sym  WBO       # sym  WBO
 ---------------------------------------------------------------------------
     1   6 C    3.891 --    26 H    0.978    27 H    0.970    28 H    0.969
                             2 N    0.905
     2   7 N    3.541 --     3 C    1.296    24 C    1.073     1 C    0.905
                            25 O    0.117
     3   6 C    3.886 --     8 N    1.355     2 N    1.296     4 C    0.967
     4   6 C    3.954 --     7 N    0.991     6 C    0.981     5 C    0.978
                             3 C    0.967
     5   6 C    3.987 --    29 H    0.979     4 C    0.978    31 H    0.977
                            30 H    0.977
     6   6 C    3.988 --    33 H    0.984     4 C    0.981    32 H    0.979
                            34 H    0.978
     7   7 N    2.975 --     4 C    0.991    35 H    0.935    36 H    0.928
     8   7 N    3.563 --     3 C    1.355    10 C    1.095     9 C    0.905
     9   6 C    3.895 --    38 H    0.977    37 H    0.973    39 H    0.968
                             8 N    0.905
    10   6 C    3.920 --    22 C    1.538     8 N    1.095    11 C    0.959
    11   6 C    3.920 --    12 O    1.569    13 N    1.316    10 C    0.959
    12   8 O    1.914 --    11 C    1.569    13 N    0.184
    13   7 N    3.386 --    11 C    1.316    14 C    0.924    40 H    0.889
                            12 O    0.184
    14   6 C    3.933 --    15 C    0.993    42 H    0.976    41 H    0.971
                            13 N    0.924
    15   6 C    3.987 --    21 C    1.421    16 C    1.417    14 C    0.993
    16   6 C    3.992 --    17 C    1.446    15 C    1.417    43 H    0.969
                            20 C    0.111
    17   6 C    3.992 --    16 C    1.446    18 C    1.399    44 H    0.969
                            21 C    0.110
    18   6 C    3.861 --    20 C    1.401    17 C    1.399    19 F    0.928
    19   9 F    1.057 --    18 C    0.928
    20   6 C    3.991 --    21 C    1.442    18 C    1.401    45 H    0.969
                            16 C    0.111
    21   6 C    3.994 --    20 C    1.442    15 C    1.421    46 H    0.971
                            17 C    0.110
    22   6 C    3.927 --    10 C    1.538    23 O    1.106    24 C    1.066
    23   8 O    2.085 --    22 C    1.106    47 H    0.790
    24   6 C    3.909 --    25 O    1.620     2 N    1.073    22 C    1.066
    25   8 O    1.952 --    24 C    1.620     2 N    0.117
    26   1 H    1.018 --     1 C    0.978
    27   1 H    1.012 --     1 C    0.970
    28   1 H    1.002 --     1 C    0.969
    29   1 H    0.994 --     5 C    0.979
    30   1 H    1.001 --     5 C    0.977
    31   1 H    1.001 --     5 C    0.977
    32   1 H    0.999 --     6 C    0.979
    33   1 H    0.997 --     6 C    0.984
    34   1 H    0.998 --     6 C    0.978
    35   1 H    0.948 --     7 N    0.935
    36   1 H    0.944 --     7 N    0.928
    37   1 H    0.998 --     9 C    0.973
    38   1 H    1.003 --     9 C    0.977
    39   1 H    1.009 --     9 C    0.968
    40   1 H    0.936 --    13 N    0.889
    41   1 H    1.005 --    14 C    0.971
    42   1 H    1.001 --    14 C    0.976
    43   1 H    1.009 --    16 C    0.969
    44   1 H    0.998 --    17 C    0.969
    45   1 H    0.997 --    20 C    0.969
    46   1 H    0.998 --    21 C    0.971
    47   1 H    0.825 --    23 O    0.790
 ---------------------------------------------------------------------------

           -------------------------------------------------
          | TOTAL ENERGY              -79.524485770785 Eh   |
          | GRADIENT NORM               0.000951573819 Eh/α |
          | HOMO-LUMO GAP               2.315443662097 eV   |
           -------------------------------------------------

 * finished run on 2023/06/20 at 15:20:09.863
