   * xtb version 6.5.1 (579679a) compiled by 'ehlert@majestix' on 2022-07-11
          program call               : /lustre/hpc/kemi/ree/PhD/git/ReactivityQM/dep/xtb-6.5.1/bin/xtb --gfn 1 /lustre/hpc/kemi/ree/PhD/git/ReactivityQM/calculations/R01/reac01prodN01/conf02/R01_reac01prodN01_conf02_gfn1.xyz --opt --vfukui --chrg 1 --uhf 0 --alpb DMSO

   ID    Z sym.   atoms
    1    6 C      1, 3, 5, 8, 9, 11
    2    8 O      2, 4, 10
    3    7 N      6, 7
    4    1 H      12-20

      * Solvation model:               ALPB
        Solvent                        DMSO
        Solvent mass                       7.8130E+01 g/mol
          :  Hamiltonian                  GFN1-xTB          :
 * total energy  :   -37.5526059 Eh     change       -0.7844392E-11 Eh
 * total energy  :   -37.5658569 Eh     change       -0.1325106E-01 Eh
 * total energy  :   -37.5719362 Eh     change       -0.6079286E-02 Eh
 * total energy  :   -37.5737834 Eh     change       -0.1847161E-02 Eh
 * total energy  :   -37.5749681 Eh     change       -0.1184715E-02 Eh
 * total energy  :   -37.5755631 Eh     change       -0.5950224E-03 Eh
 * total energy  :   -37.5760325 Eh     change       -0.4694051E-03 Eh
 * total energy  :   -37.5762432 Eh     change       -0.2106599E-03 Eh
 * total energy  :   -37.5763139 Eh     change       -0.7072585E-04 Eh
 * total energy  :   -37.5763726 Eh     change       -0.5873635E-04 Eh
 * total energy  :   -37.5775128 Eh     change       -0.1319297E-03 Eh
 * total energy  :   -37.5775792 Eh     change       -0.6640840E-04 Eh
 * total energy  :   -37.5776153 Eh     change       -0.3609766E-04 Eh
 * total energy  :   -37.5776793 Eh     change       -0.6403504E-04 Eh
 * total energy  :   -37.5777097 Eh     change       -0.3036211E-04 Eh
 * total energy  :   -37.5777330 Eh     change       -0.2328707E-04 Eh
 * total energy  :   -37.5777462 Eh     change       -0.1324446E-04 Eh
 * total energy  :   -37.5777530 Eh     change       -0.6763557E-05 Eh
 * total energy  :   -37.5777557 Eh     change       -0.2749784E-05 Eh
   *** GEOMETRY OPTIMIZATION CONVERGED AFTER 28 ITERATIONS ***

 final structure:
================
20
 xtb: 6.5.1 (579679a)
C            3.35458564649717       -0.49764475372356       -0.74940904372438
O            1.97342735950810       -0.25766762804286       -0.40021359387614
C            1.74319584714465        0.57931291266106        0.58538408995481
O            2.56331671875243        1.16210326650917        1.23603049861466
C            0.27835959610892        0.76597453925043        0.85061212846516
N           -0.23224761009122        1.55413804293223        1.71851326616625
N           -1.58987221276047        1.46355518559827        1.65840948777813
C           -1.91257339649745        0.62017594425385        0.75366667094799
C           -3.24931948244543        0.18807643180133        0.32189766947563
O           -0.74953737919542        0.10719655887369        0.16457434050220
C           -0.62959680240924       -0.89686173262712       -0.89331406671733
H            3.91989374757561       -0.74768034242253        0.14940940898379
H            3.76628652487020        0.39813160187846       -1.21624831326310
H            3.34494992559056       -1.32868586566907       -1.44948375012598
H           -3.39459002165688        0.39761863695627       -0.73829035345433
H           -3.99403283185165        0.72803856013763        0.90495325445034
H           -3.37289647101200       -0.88412503156151        0.47777794131934
H           -0.05214065343140       -1.72560244762790       -0.49060000634405
H           -0.12761913492952       -0.42504479088908       -1.73468511843918
H           -1.63958736976725       -1.20101008828950       -1.14898451071428

          :  Hamiltonian                  GFN1-xTB          :
         :: total energy             -37.577755741391 Eh    ::
         :: gradient norm              0.000552683713 Eh/a0 ::
         :: HOMO-LUMO gap              3.707719562930 eV    ::
         :: SCC energy               -37.927503237918 Eh    ::
         :: -> Gsolv                  -0.097142928583 Eh    ::
         :: repulsion energy           0.358675486493 Eh    ::

    * Orbital Energies and Occupations

         #    Occupation            Energy/Eh            Energy/eV
      -------------------------------------------------------------
         1        2.0000           -0.9756394             -26.5485
       ...           ...                  ...                  ...
        18        2.0000           -0.6107347             -16.6189
        19        2.0000           -0.6024939             -16.3947
        20        2.0000           -0.6020839             -16.3835
        21        2.0000           -0.5857745             -15.9397
        22        2.0000           -0.5846488             -15.9091
        23        2.0000           -0.5728566             -15.5882
        24        2.0000           -0.5641648             -15.3517
        25        2.0000           -0.5486258             -14.9289
        26        2.0000           -0.5414965             -14.7349
        27        2.0000           -0.5312113             -14.4550
        28        2.0000           -0.5286414             -14.3851
        29        2.0000           -0.5200691             -14.1518
        30        2.0000           -0.5136054             -13.9759 (HOMO)
        31                         -0.3773492             -10.2682 (LUMO)
        32                         -0.3204010              -8.7186
        33                         -0.2585872              -7.0365
        34                         -0.1968659              -5.3570
        35                         -0.1794667              -4.8835
        36                         -0.1547994              -4.2123
        37                         -0.1294830              -3.5234
        38                         -0.1216700              -3.3108
        39                         -0.1213919              -3.3032
        40                         -0.1049758              -2.8565
        41                         -0.0900120              -2.4494
       ...                                ...                  ...
        62                          0.7329717              19.9452
      -------------------------------------------------------------
                  HL-Gap            0.1362562 Eh            3.7077 eV

Wiberg/Mayer (AO) data.
largest (>0.10) Wiberg bond orders for each atom

     #   Z sym  total        # sym  WBO       # sym  WBO       # sym  WBO
 ---------------------------------------------------------------------------
     1   6 C    3.827 --    14 H    0.983    12 H    0.978    13 H    0.976
                             2 O    0.856
     2   8 O    2.236 --     3 C    1.157     1 C    0.856     4 O    0.153
     3   6 C    3.878 --     4 O    1.694     2 O    1.157     5 C    0.960
     4   8 O    1.977 --     3 C    1.694     2 O    0.153
     5   6 C    3.809 --     6 N    1.710     3 C    0.960    10 O    0.879
     6   7 N    3.041 --     5 C    1.710     7 N    1.159
     7   7 N    3.025 --     8 C    1.688     6 N    1.159
     8   6 C    3.800 --     7 N    1.688     9 C    1.046    10 O    0.877
     9   6 C    3.967 --     8 C    1.046    16 H    0.968    15 H    0.949
                            17 H    0.947
    10   8 O    2.651 --     5 C    0.879     8 C    0.877    11 C    0.746
    11   6 C    3.722 --    20 H    0.972    18 H    0.968    19 H    0.968
                            10 O    0.746
    12   1 H    1.000 --     1 C    0.978
    13   1 H    0.999 --     1 C    0.976
    14   1 H    1.003 --     1 C    0.983
    15   1 H    0.986 --     9 C    0.949
    16   1 H    0.988 --     9 C    0.968
    17   1 H    0.986 --     9 C    0.947
    18   1 H    0.994 --    11 C    0.968
    19   1 H    0.995 --    11 C    0.968
    20   1 H    0.989 --    11 C    0.972
 ---------------------------------------------------------------------------

           -------------------------------------------------
          | TOTAL ENERGY              -37.577755741391 Eh   |
          | GRADIENT NORM               0.000552683713 Eh/α |
          | HOMO-LUMO GAP               3.707719562930 eV   |
           -------------------------------------------------

 * finished run on 2023/06/20 at 14:54:41.373
