   * xtb version 6.5.1 (579679a) compiled by 'ehlert@majestix' on 2022-07-11
          program call               : /lustre/hpc/kemi/ree/PhD/git/ReactivityQM/dep/xtb-6.5.1/bin/xtb --gfn 1 /lustre/hpc/kemi/ree/PhD/git/ReactivityQM/calculations/RaltegravirCLI/reac01prodE02/conf05/RaltegravirCLI_reac01prodE02_conf05_gfn1.xyz --opt --vfukui --chrg -1 --uhf 0 --alpb DMSO

   ID    Z sym.   atoms
    1    6 C      1-3, 6, 7
    2    7 N      4, 5
    3    8 O      8, 10
    4   17 Cl     9
    5    1 H      11-16

      * Solvation model:               ALPB
        Solvent                        DMSO
        Solvent mass                       7.8130E+01 g/mol
          :  Hamiltonian                  GFN1-xTB          :
 * total energy  :   -34.1680069 Eh     change       -0.1350031E-12 Eh
 * total energy  :   -34.1708253 Eh     change       -0.2818496E-02 Eh
 * total energy  :   -34.1723359 Eh     change       -0.1510575E-02 Eh
 * total energy  :   -34.1726204 Eh     change       -0.2845207E-03 Eh
 * total energy  :   -34.1727515 Eh     change       -0.1311006E-03 Eh
 * total energy  :   -34.1727706 Eh     change       -0.1907911E-04 Eh
 * total energy  :   -34.1727774 Eh     change       -0.6770759E-05 Eh
 * total energy  :   -34.1727784 Eh     change       -0.9904130E-06 Eh
 * total energy  :   -34.1727799 Eh     change       -0.1501749E-05 Eh
   *** GEOMETRY OPTIMIZATION CONVERGED AFTER 9 ITERATIONS ***

 final structure:
================
16
 xtb: 6.5.1 (579679a)
C           -1.38576021353653        1.25471617572166        0.45427224538594
C           -0.62525785620209        0.01998910753396       -0.04599003896388
C           -1.43226991966757       -1.26493312302417        0.18021103668498
N           -0.33320523073351        0.17214171558449       -1.48194034769192
N            0.93419513827600        0.16547305690610       -1.63928263596940
C            1.56552337628407        0.02241585783144       -0.45632945645416
C            2.93416011269337       -0.02883357619447       -0.30749263829835
O            3.82006712115852        0.04863895278673       -1.14816447346777
Cl           3.44781915410904       -0.25063519158110        1.44204784831099
O            0.64095564854818       -0.07337068141163        0.58845122735735
H           -2.32356455602534        1.35249482398808       -0.08821371943759
H           -0.78092867682279        2.14426959086248        0.28581581091388
H           -1.59222159716439        1.16076850348396        1.51857304079087
H           -0.86710777061268       -2.11755143568323       -0.19273061763974
H           -2.37901108570966       -1.20334140041360       -0.35185772480788
H           -1.62339264459459       -1.40224337639073        1.24262944328667

          :  Hamiltonian                  GFN1-xTB          :
         :: total energy             -34.172779887245 Eh    ::
         :: gradient norm              0.000451706203 Eh/a0 ::
         :: HOMO-LUMO gap              2.080833644892 eV    ::
         :: SCC energy               -34.430504922117 Eh    ::
         :: -> Gsolv                  -0.087503155152 Eh    ::
         :: repulsion energy           0.265365525048 Eh    ::

    * Orbital Energies and Occupations

         #    Occupation            Energy/Eh            Energy/eV
      -------------------------------------------------------------
         1        2.0000           -0.8671510             -23.5964
       ...           ...                  ...                  ...
        16        2.0000           -0.5172790             -14.0759
        17        2.0000           -0.5013999             -13.6438
        18        2.0000           -0.4936147             -13.4319
        19        2.0000           -0.4918281             -13.3833
        20        2.0000           -0.4830548             -13.1446
        21        2.0000           -0.4602655             -12.5245
        22        2.0000           -0.4560750             -12.4104
        23        2.0000           -0.4473619             -12.1733
        24        2.0000           -0.4451478             -12.1131
        25        2.0000           -0.4351679             -11.8415
        26        2.0000           -0.4255445             -11.5797
        27        2.0000           -0.3879821             -10.5575
        28        2.0000           -0.3399673              -9.2510 (HOMO)
        29                         -0.2634981              -7.1701 (LUMO)
        30                         -0.1692480              -4.6055
        31                         -0.1482837              -4.0350
        32                         -0.1101306              -2.9968
        33                         -0.1043894              -2.8406
        34                         -0.0630472              -1.7156
        35                         -0.0518556              -1.4111
        36                         -0.0338606              -0.9214
        37                         -0.0314478              -0.8557
        38                          0.0014107               0.0384
        39                          0.0016264               0.0443
       ...                                ...                  ...
        57                          0.7573642              20.6089
      -------------------------------------------------------------
                  HL-Gap            0.0764692 Eh            2.0808 eV

Wiberg/Mayer (AO) data.
largest (>0.10) Wiberg bond orders for each atom

     #   Z sym  total        # sym  WBO       # sym  WBO       # sym  WBO
 ---------------------------------------------------------------------------
     1   6 C    3.993 --    11 H    0.987    13 H    0.986    12 H    0.985
                             2 C    0.980
     2   6 C    3.897 --     1 C    0.980     3 C    0.980     4 N    0.972
                            10 O    0.924
     3   6 C    3.993 --    15 H    0.987    16 H    0.986    14 H    0.985
                             2 C    0.980
     4   7 N    2.947 --     5 N    1.581     2 C    0.972     7 C    0.119
                             6 C    0.117
     5   7 N    3.025 --     4 N    1.581     6 C    1.286
     6   6 C    3.857 --     7 C    1.358     5 N    1.286    10 O    0.945
                             4 N    0.117     8 O    0.109
     7   6 C    3.903 --     8 O    1.571     6 C    1.358     9 Cl   0.780
                             4 N    0.119
     8   8 O    1.914 --     7 C    1.571     9 Cl   0.113     6 C    0.109
     9  17 Cl   0.954 --     7 C    0.780     8 O    0.113
    10   8 O    2.060 --     6 C    0.945     2 C    0.924
    11   1 H    1.008 --     1 C    0.987
    12   1 H    1.011 --     1 C    0.985
    13   1 H    1.006 --     1 C    0.986
    14   1 H    1.011 --     3 C    0.985
    15   1 H    1.008 --     3 C    0.987
    16   1 H    1.007 --     3 C    0.986
 ---------------------------------------------------------------------------

           -------------------------------------------------
          | TOTAL ENERGY              -34.172779887245 Eh   |
          | GRADIENT NORM               0.000451706203 Eh/α |
          | HOMO-LUMO GAP               2.080833644892 eV   |
           -------------------------------------------------

 * finished run on 2023/06/20 at 14:52:31.705
