   * xtb version 6.5.1 (579679a) compiled by 'ehlert@majestix' on 2022-07-11
          program call               : /lustre/hpc/kemi/ree/PhD/git/ReactivityQM/dep/xtb-6.5.1/bin/xtb --gfn 1 /lustre/hpc/kemi/ree/PhD/git/ReactivityQM/calculations/R02deprot/reac01prodN06/conf13/R02deprot_reac01prodN06_conf13_gfn1.xyz --opt --vfukui --chrg 0 --uhf 0 --alpb DMSO

   ID    Z sym.   atoms
    1    6 C      1, 3, 5, 6, 8, 11-14, 16, 18, 21, 22, 25
    2    8 O      2, 4, 7, 9, 17, 23
    3    7 N      10, 15, 19, 20, 24
    4    1 H      26-42

      * Solvation model:               ALPB
        Solvent                        DMSO
        Solvent mass                       7.8130E+01 g/mol
          :  Hamiltonian                  GFN1-xTB          :
 * total energy  :   -82.9830805 Eh     change       -0.3265654E-10 Eh
 * total energy  :   -82.9959260 Eh     change       -0.1284551E-01 Eh
 * total energy  :   -83.0010267 Eh     change       -0.5100649E-02 Eh
 * total energy  :   -83.0021715 Eh     change       -0.1144848E-02 Eh
 * total energy  :   -83.0030175 Eh     change       -0.8460086E-03 Eh
 * total energy  :   -83.0035560 Eh     change       -0.5384389E-03 Eh
 * total energy  :   -83.0039373 Eh     change       -0.3813563E-03 Eh
 * total energy  :   -83.0041431 Eh     change       -0.2058152E-03 Eh
 * total energy  :   -83.0042441 Eh     change       -0.1010027E-03 Eh
 * total energy  :   -83.0043050 Eh     change       -0.6087345E-04 Eh
 * total energy  :   -83.0051033 Eh     change       -0.1464034E-04 Eh
 * total energy  :   -83.0051125 Eh     change       -0.9179761E-05 Eh
 * total energy  :   -83.0051192 Eh     change       -0.6695480E-05 Eh
 * total energy  :   -83.0051305 Eh     change       -0.1126830E-04 Eh
 * total energy  :   -83.0051363 Eh     change       -0.5802472E-05 Eh
 * total energy  :   -83.0051451 Eh     change       -0.8807320E-05 Eh
 * total energy  :   -83.0051447 Eh     change        0.3693061E-06 Eh
 * total energy  :   -83.0051497 Eh     change       -0.4984680E-05 Eh
 * total energy  :   -83.0051539 Eh     change       -0.4250134E-05 Eh
   *** GEOMETRY OPTIMIZATION CONVERGED AFTER 43 ITERATIONS ***

 final structure:
================
42
 xtb: 6.5.1 (579679a)
C            2.67540224682057        3.09639639499324       -1.73710254036587
O            2.24176041197141        1.93042622796819       -1.02245889146501
C            3.17678666305354        1.02938119395031       -0.74626992641290
O            4.33640231106224        1.17319476601686       -1.09246416735841
C            2.71063101244784       -0.20215692145561       -0.07006437551219
C            3.48136459146719       -1.33434484680589       -0.15093043876192
O            4.68688385583614       -1.37956872732625       -0.71171819335410
C            2.97319342819756       -2.62307194468745        0.37723672717527
O            3.66279449690693       -3.62950599300881        0.43919517874681
N            1.65743466604966       -2.60500963787172        0.76594283301878
C            0.96104896405739       -1.51018515875213        0.85239069019961
C           -0.46836530789193       -1.71734537765924        1.34709818681655
C           -0.53476854751120       -1.56537572404478        2.87073319057544
C           -0.93322639536361       -3.13315733956986        0.96644332296352
N           -1.37881437905907       -0.75547642264375        0.72907821776972
C           -1.44981381251641       -0.61468406998489       -0.61336186476705
O           -0.71116874040571       -1.17296173789714       -1.40754165709205
C           -2.51354473389752        0.32686864294050       -1.03701993126235
N           -2.86807668526526        0.63713094835567       -2.24491610286284
N           -3.88962953771293        1.53237940496828       -2.13719116610241
C           -4.09520147265149        1.71493221933875       -0.87005469849157
C           -5.09101540817602        2.59882199417171       -0.22710535146308
O           -3.25822932999803        0.98015897043323       -0.11863250593084
N            1.46126205517710       -0.28802752508664        0.55354261855727
C            0.80789222642219        0.95027609518801        0.97279293843286
H            3.05581507654916        2.80983308045848       -2.71978925459659
H            3.46198475540685        3.60349083513104       -1.17542306610600
H            1.80322780871551        3.73845714591102       -1.83604327978777
H            4.96774960746955       -0.48803065215754       -1.01995167330398
H           -1.53724952152835       -1.81054884650671        3.21724685179969
H            0.17628571432649       -2.24979481827833        3.33226059766628
H           -0.29906577452473       -0.55232754045448        3.18756043970309
H           -0.33627256130914       -3.87290195661180        1.49664702984451
H           -0.82545486172590       -3.29305284668285       -0.10539234456836
H           -1.97853605679913       -3.25021513342441        1.24404574161988
H           -2.07116876139036       -0.31520152169641        1.30875202206779
H           -5.73370482617885        3.04308624339012       -0.98383927123359
H           -5.69229623201622        2.02692375657099        0.47973143896956
H           -4.58118112965674        3.38749336455293        0.32674017868845
H            0.16456238224711        0.75422694626688        1.82211178311837
H            0.21347863726283        1.36512972004468        0.16026410836455
H            1.57082316413420        1.66433579195698        1.27319660470145

          :  Hamiltonian                  GFN1-xTB          :
         :: total energy             -83.005153944953 Eh    ::
         :: gradient norm              0.000788995883 Eh/a0 ::
         :: HOMO-LUMO gap              2.719015682692 eV    ::
         :: SCC energy               -83.782607191718 Eh    ::
         :: -> Gsolv                  -0.071645001006 Eh    ::
         :: repulsion energy           0.805360696885 Eh    ::

    * Orbital Energies and Occupations

         #    Occupation            Energy/Eh            Energy/eV
      -------------------------------------------------------------
         1        2.0000           -0.8668490             -23.5882
       ...           ...                  ...                  ...
        55        2.0000           -0.5061926             -13.7742
        56        2.0000           -0.5044936             -13.7280
        57        2.0000           -0.4988329             -13.5739
        58        2.0000           -0.4893515             -13.3159
        59        2.0000           -0.4818009             -13.1105
        60        2.0000           -0.4744593             -12.9107
        61        2.0000           -0.4705022             -12.8030
        62        2.0000           -0.4674949             -12.7212
        63        2.0000           -0.4612684             -12.5518
        64        2.0000           -0.4537051             -12.3459
        65        2.0000           -0.4500334             -12.2460
        66        2.0000           -0.4243812             -11.5480
        67        2.0000           -0.4229868             -11.5101 (HOMO)
        68                         -0.3230648              -8.7910 (LUMO)
        69                         -0.3133804              -8.5275
        70                         -0.2902563              -7.8983
        71                         -0.2577246              -7.0130
        72                         -0.2388699              -6.5000
        73                         -0.2009702              -5.4687
        74                         -0.1657622              -4.5106
        75                         -0.1426112              -3.8806
        76                         -0.1417415              -3.8570
        77                         -0.1394497              -3.7946
        78                         -0.1310821              -3.5669
       ...                                ...                  ...
       134                          0.7237248              19.6936
      -------------------------------------------------------------
                  HL-Gap            0.0999220 Eh            2.7190 eV

Wiberg/Mayer (AO) data.
largest (>0.10) Wiberg bond orders for each atom

     #   Z sym  total        # sym  WBO       # sym  WBO       # sym  WBO
 ---------------------------------------------------------------------------
     1   6 C    3.858 --    28 H    0.986    27 H    0.979    26 H    0.979
                             2 O    0.883
     2   8 O    2.218 --     3 C    1.124     1 C    0.883     4 O    0.125
     3   6 C    3.855 --     4 O    1.603     2 O    1.124     5 C    1.035
     4   8 O    1.949 --     3 C    1.603     2 O    0.125
     5   6 C    3.925 --     6 C    1.506    24 N    1.075     3 C    1.035
     6   6 C    3.912 --     5 C    1.506     7 O    1.135     8 C    1.019
     7   8 O    2.099 --     6 C    1.135    29 H    0.772
     8   6 C    3.917 --     9 O    1.606    10 N    1.157     6 C    1.019
     9   8 O    1.887 --     8 C    1.606    10 N    0.102
    10   7 N    3.015 --    11 C    1.512     8 C    1.157     9 O    0.102
    11   6 C    3.931 --    10 N    1.512    24 N    1.252    12 C    0.972
    12   6 C    3.935 --    13 C    0.985    14 C    0.984    11 C    0.972
                            15 N    0.929
    13   6 C    3.989 --    12 C    0.985    31 H    0.983    30 H    0.981
                            32 H    0.976
    14   6 C    3.988 --    35 H    0.986    12 C    0.984    33 H    0.983
                            34 H    0.981
    15   7 N    3.345 --    16 C    1.247    12 C    0.929    36 H    0.891
                            17 O    0.174
    16   6 C    3.917 --    17 O    1.587    15 N    1.247    18 C    0.995
    17   8 O    1.890 --    16 C    1.587    15 N    0.174
    18   6 C    3.873 --    19 N    1.621    23 O    1.047    16 C    0.995
    19   7 N    3.000 --    18 C    1.621    20 N    1.199
    20   7 N    2.982 --    21 C    1.610    19 N    1.199
    21   6 C    3.867 --    20 N    1.610    23 O    1.072    22 C    1.032
    22   6 C    3.986 --    21 C    1.032    37 H    0.982    38 H    0.965
                            39 H    0.960
    23   8 O    2.316 --    21 C    1.072    18 C    1.047
    24   7 N    3.515 --    11 C    1.252     5 C    1.075    25 C    0.928
    25   6 C    3.926 --    42 H    0.980    40 H    0.975    41 H    0.975
                            24 N    0.928
    26   1 H    1.006 --     1 C    0.979
    27   1 H    1.005 --     1 C    0.979
    28   1 H    1.008 --     1 C    0.986
    29   1 H    0.851 --     7 O    0.772
    30   1 H    0.997 --    13 C    0.981
    31   1 H    1.001 --    13 C    0.983
    32   1 H    1.001 --    13 C    0.976
    33   1 H    1.014 --    14 C    0.983
    34   1 H    1.011 --    14 C    0.981
    35   1 H    1.002 --    14 C    0.986
    36   1 H    0.933 --    15 N    0.891
    37   1 H    0.998 --    22 C    0.982
    38   1 H    0.996 --    22 C    0.965
    39   1 H    0.996 --    22 C    0.960
    40   1 H    1.008 --    25 C    0.975
    41   1 H    1.011 --    25 C    0.975
    42   1 H    1.003 --    25 C    0.980
 ---------------------------------------------------------------------------

           -------------------------------------------------
          | TOTAL ENERGY              -83.005153944953 Eh   |
          | GRADIENT NORM               0.000788995883 Eh/α |
          | HOMO-LUMO GAP               2.719015682692 eV   |
           -------------------------------------------------

 * finished run on 2023/06/20 at 18:12:25.018
