   * xtb version 6.5.1 (579679a) compiled by 'ehlert@majestix' on 2022-07-11
          program call               : /lustre/hpc/kemi/ree/PhD/git/ReactivityQM/dep/xtb-6.5.1/bin/xtb --gfn 1 /lustre/hpc/kemi/ree/PhD/git/ReactivityQM/calculations/R02/reac01prodE08/conf06/R02_reac01prodE08_conf06_gfn1.xyz --opt --vfukui --chrg -1 --uhf 0 --alpb DMSO

   ID    Z sym.   atoms
    1    6 C      1, 3, 5, 7-10, 12, 14, 15, 18, 19, 22, 24
    2    8 O      2, 4, 13, 20, 23, 25
    3    7 N      6, 11, 16, 17, 21
    4    1 H      26-43

      * Solvation model:               ALPB
        Solvent                        DMSO
        Solvent mass                       7.8130E+01 g/mol
          :  Hamiltonian                  GFN1-xTB          :
 * total energy  :   -83.8459890 Eh     change       -0.1307399E-11 Eh
 * total energy  :   -83.8576445 Eh     change       -0.1165550E-01 Eh
 * total energy  :   -83.8621142 Eh     change       -0.4469654E-02 Eh
 * total energy  :   -83.8626845 Eh     change       -0.5703148E-03 Eh
 * total energy  :   -83.8629618 Eh     change       -0.2773533E-03 Eh
 * total energy  :   -83.8630703 Eh     change       -0.1084438E-03 Eh
 * total energy  :   -83.8631609 Eh     change       -0.9057757E-04 Eh
 * total energy  :   -83.8632268 Eh     change       -0.6593510E-04 Eh
 * total energy  :   -83.8632895 Eh     change       -0.6267191E-04 Eh
 * total energy  :   -83.8633463 Eh     change       -0.5680322E-04 Eh
 * total energy  :   -83.8639928 Eh     change       -0.1234128E-04 Eh
 * total energy  :   -83.8640051 Eh     change       -0.1230435E-04 Eh
 * total energy  :   -83.8640141 Eh     change       -0.9001128E-05 Eh
 * total energy  :   -83.8640223 Eh     change       -0.8277776E-05 Eh
 * total energy  :   -83.8640304 Eh     change       -0.8097739E-05 Eh
 * total energy  :   -83.8640388 Eh     change       -0.8405373E-05 Eh
 * total energy  :   -83.8640474 Eh     change       -0.8536377E-05 Eh
 * total energy  :   -83.8640536 Eh     change       -0.6206484E-05 Eh
 * total energy  :   -83.8640570 Eh     change       -0.3436303E-05 Eh
   *** GEOMETRY OPTIMIZATION CONVERGED AFTER 42 ITERATIONS ***

 final structure:
================
43
 xtb: 6.5.1 (579679a)
C           -6.44001032015013        1.69998758898051       -0.18833652987385
O           -5.27101469784559        1.06544437776826       -0.71013186371861
C           -4.26978815624869        0.86056130850528        0.19059333323955
O           -4.39156564732198        1.19205175046543        1.35842364545733
C           -3.07999763617205        0.22782809485082       -0.37659424734325
N           -2.07476993292480        0.04269261622028        0.55223556190732
C           -0.96409041141553       -0.49787422576161        0.19598491380410
C            0.12085814091667       -0.76645973894915        1.21950106701255
C            0.10123502254683       -2.27166299034226        1.53166150499538
C           -0.13639431611469        0.05975141901887        2.48455431017048
N            1.40080154234919       -0.38584782926684        0.61523891462236
C            2.58307095621615       -0.51945127442451        1.26562910246397
O            2.72987444628067       -1.15898162845815        2.29947465174239
C            3.78763668252930        0.11333082010212        0.53553207454252
C            4.70392845882695        0.80056009085393        1.56013622704054
N            4.48698603028474       -0.96340705432584       -0.16613338505742
N            4.47608513587800       -0.62628270582188       -1.47475904896928
C            3.85832042151148        0.48877811747770       -1.64126165433425
C            3.64875959859248        1.23050225276287       -2.91090315052090
O            3.36273229594695        1.03208269688552       -0.46263530180694
N           -0.72948755281154       -0.91174218090356       -1.08533207861433
C           -1.66393775400140       -0.79933106168838       -2.11276702943396
O           -1.38718105574640       -1.21079665682634       -3.23812283803446
C           -2.90295032464374       -0.18433912841189       -1.69523012435718
O           -3.83120799080048       -0.06387970172049       -2.67472352931355
H           -6.18548210635755        2.68053358406781        0.22337942303924
H           -6.88663276320587        1.08466325303243        0.59750511572191
H           -7.13627585517036        1.81198396133120       -1.01642580929919
H            0.80253159541688       -2.50656683970802        2.32983759764446
H           -0.90067918464457       -2.55950204538815        1.84726635111670
H            0.36856411877701       -2.84111268766225        0.64257453039683
H           -0.11034908088483        1.12215412199375        2.24644815646433
H            0.62128803135543       -0.15861559283913        3.23489852191054
H           -1.11891998153746       -0.18554709855760        2.88497622558651
H            1.36073516325476        0.33882417657135       -0.08872199743650
H            4.18926683953427        1.64642106602967        2.01179360430720
H            4.97543461989694        0.08376587337365        2.33267994686165
H            5.60260314266800        1.15224444906143        1.05836767651013
H            4.12486408777723        2.21150564822216       -2.86414596103017
H            4.07976793004794        0.66490939181360       -3.73487386400021
H            2.58503590899655        1.38543395517227       -3.09910664294814
H            0.15470734787967       -1.33769428450110       -1.32299817385672
H           -4.64435174947509        0.36054411099178       -2.35548722660365

          :  Hamiltonian                  GFN1-xTB          :
         :: total energy             -83.864057028180 Eh    ::
         :: gradient norm              0.000521585422 Eh/a0 ::
         :: HOMO-LUMO gap              0.078842754315 eV    ::
         :: SCC energy               -84.619713492663 Eh    ::
         :: -> Gsolv                  -0.108932543710 Eh    ::
         :: repulsion energy           0.782614969145 Eh    ::

    * Orbital Energies and Occupations

         #    Occupation            Energy/Eh            Energy/eV
      -------------------------------------------------------------
         1        2.0000           -0.8189099             -22.2837
       ...           ...                  ...                  ...
        56        2.0000           -0.4810922             -13.0912
        57        2.0000           -0.4751432             -12.9293
        58        2.0000           -0.4607985             -12.5390
        59        2.0000           -0.4598762             -12.5139
        60        2.0000           -0.4367298             -11.8840
        61        2.0000           -0.4360261             -11.8649
        62        2.0000           -0.4303147             -11.7095
        63        2.0000           -0.4268276             -11.6146
        64        2.0000           -0.4234141             -11.5217
        65        2.0000           -0.4118307             -11.2065
        66        2.0000           -0.4061192             -11.0511
        67        2.0000           -0.3835267             -10.4363
        68        1.6425           -0.3091107              -8.4113 (HOMO)
        69        0.3575           -0.3062132              -8.3325 (LUMO)
        70                         -0.2588133              -7.0427
        71                         -0.2321437              -6.3170
        72                         -0.2165460              -5.8925
        73                         -0.1932490              -5.2586
        74                         -0.1341825              -3.6513
        75                         -0.1276923              -3.4747
        76                         -0.1200299              -3.2662
        77                         -0.1160425              -3.1577
        78                         -0.1104596              -3.0058
        79                         -0.1016840              -2.7670
       ...                                ...                  ...
       136                          0.7119488              19.3731
      -------------------------------------------------------------
                  HL-Gap            0.0028974 Eh            0.0788 eV

Wiberg/Mayer (AO) data.
largest (>0.10) Wiberg bond orders for each atom

     #   Z sym  total        # sym  WBO       # sym  WBO       # sym  WBO
 ---------------------------------------------------------------------------
     1   6 C    3.879 --    28 H    0.987    27 H    0.981    26 H    0.980
                             2 O    0.903
     2   8 O    2.151 --     3 C    1.032     1 C    0.903     4 O    0.111
     3   6 C    3.773 --     4 O    1.599     5 C    1.076     2 O    1.032
     4   8 O    1.833 --     3 C    1.599     2 O    0.111
     5   6 C    3.862 --    24 C    1.390     6 N    1.153     3 C    1.076
     6   7 N    3.015 --     7 C    1.608     5 C    1.153
     7   6 C    3.909 --     6 N    1.608    21 N    1.151     8 C    0.979
     8   6 C    3.945 --    10 C    0.992     9 C    0.980     7 C    0.979
                            11 N    0.930
     9   6 C    3.990 --    30 H    0.987    31 H    0.985     8 C    0.980
                            29 H    0.978
    10   6 C    3.993 --     8 C    0.992    32 H    0.986    34 H    0.984
                            33 H    0.984
    11   7 N    3.305 --    12 C    1.236     8 C    0.930    35 H    0.898
                            13 O    0.150
    12   6 C    3.853 --    13 O    1.594    11 N    1.236    14 C    0.913
    13   8 O    1.888 --    12 C    1.594    11 N    0.150
    14   6 C    3.890 --    16 N    0.987    15 C    0.967    20 O    0.916
                            12 C    0.913
    15   6 C    3.971 --    36 H    0.987    38 H    0.986    37 H    0.985
                            14 C    0.967
    16   7 N    2.452 --    17 N    1.223    14 C    0.987    18 C    0.109
    17   7 N    3.003 --    18 C    1.623    16 N    1.223
    18   6 C    3.748 --    17 N    1.623    19 C    1.023    20 O    0.963
                            16 N    0.109
    19   6 C    3.994 --    18 C    1.023    40 H    0.986    41 H    0.973
                            39 H    0.972
    20   8 O    2.078 --    18 C    0.963    14 C    0.916
    21   7 N    3.375 --     7 C    1.151    22 C    1.076    42 H    0.894
                            23 O    0.115
    22   6 C    3.855 --    23 O    1.540    24 C    1.128    21 N    1.076
    23   8 O    1.810 --    22 C    1.540    21 N    0.115
    24   6 C    3.786 --     5 C    1.390    22 C    1.128    25 O    1.067
    25   8 O    2.023 --    24 C    1.067    43 H    0.813
    26   1 H    1.010 --     1 C    0.980
    27   1 H    1.010 --     1 C    0.981
    28   1 H    1.012 --     1 C    0.987
    29   1 H    1.016 --     9 C    0.978
    30   1 H    1.004 --     9 C    0.987
    31   1 H    1.004 --     9 C    0.985
    32   1 H    1.006 --    10 C    0.986
    33   1 H    1.010 --    10 C    0.984
    34   1 H    1.013 --    10 C    0.984
    35   1 H    0.954 --    11 N    0.898
    36   1 H    1.006 --    15 C    0.987
    37   1 H    1.014 --    15 C    0.985
    38   1 H    1.011 --    15 C    0.986
    39   1 H    1.000 --    19 C    0.972
    40   1 H    1.006 --    19 C    0.986
    41   1 H    1.000 --    19 C    0.973
    42   1 H    0.943 --    21 N    0.894
    43   1 H    0.866 --    25 O    0.813
 ---------------------------------------------------------------------------

           -------------------------------------------------
          | TOTAL ENERGY              -83.864057028180 Eh   |
          | GRADIENT NORM               0.000521585422 Eh/α |
          | HOMO-LUMO GAP               0.078842754315 eV   |
           -------------------------------------------------

 * finished run on 2023/06/20 at 15:06:50.335
