                         Program Version 5.0.1 -  RELEASE  -
|  1> # ORCA input file
|  2> ! SP r2SCAN-3c CPCM
|  3>
|  4> %maxcore 1875.0
|  5> %pal nprocs 4 end
|  6> %cpcm smd true SMDsolvent "DMSO" end
|  7>
|  8> *xyz 1 1
|  9> C      -2.726850    3.968830    1.681943
| 10> O      -3.075935    2.778344    0.956969
| 11> C      -2.185748    1.980857    0.403711
| 12> C      -0.779590    2.127012    0.432111
| 13> O      -0.217860    3.163868    1.041852
| 14> C      -0.032305    1.137666   -0.196018
| 15> C       1.457704    1.213720   -0.191653
| 16> O       2.037922    2.150469    0.364894
| 17> N       2.071075    0.218739   -0.825960
| 18> C       3.528602    0.129944   -0.901006
| 19> C       4.066764   -0.675011    0.262376
| 20> C       4.428330   -2.008172    0.089973
| 21> C       4.909707   -2.751732    1.159125
| 22> C       5.013703   -2.134921    2.392424
| 23> F       5.476298   -2.846960    3.430891
| 24> C       4.659127   -0.813282    2.598690
| 25> C       4.182482   -0.084096    1.519394
| 26> N      -0.619642    0.095694   -0.798755
| 27> C      -1.921143   -0.024101   -0.841627
| 28> C      -2.461057   -1.280102   -1.507376
| 29> C      -3.001061   -2.222075   -0.420281
| 30> C      -1.324616   -1.978266   -2.269804
| 31> N      -3.534538   -0.935253   -2.432555
| 32> N      -2.716747    0.918986   -0.246081
| 33> C      -4.185287    0.857401   -0.248337
| 34> H      -2.113941    3.719240    2.548692
| 35> H      -3.676656    4.396038    2.002313
| 36> H      -2.198461    4.667965    1.032964
| 37> H       0.781882    3.069286    0.947485
| 38> H       1.513650   -0.521247   -1.223766
| 39> H       3.922338    1.150357   -0.878405
| 40> H       3.782167   -0.339857   -1.853103
| 41> H       4.335873   -2.471883   -0.884520
| 42> H       5.194804   -3.788707    1.038726
| 43> H       4.752772   -0.368324    3.580814
| 44> H       3.895418    0.951891    1.653508
| 45> H      -2.217471   -2.439894    0.303707
| 46> H      -3.847754   -1.778282    0.098793
| 47> H      -3.323521   -3.153780   -0.882348
| 48> H      -0.544457   -2.300074   -1.582595
| 49> H      -1.724902   -2.848125   -2.787581
| 50> H      -0.891168   -1.299293   -3.001230
| 51> H      -3.930348   -1.788024   -2.805311
| 52> H      -3.154113   -0.405027   -3.204610
| 53> H      -4.568217    1.832911   -0.543385
| 54> H      -4.524017    0.622954    0.759472
| 55> H      -4.513211    0.104316   -0.958810
| 56> **                         ****END OF INPUT****

CARTESIAN COORDINATES (ANGSTROEM)
---------------------------------
  C     -2.726850    3.968830    1.681943
  O     -3.075935    2.778344    0.956969
  C     -2.185748    1.980857    0.403711
  C     -0.779590    2.127012    0.432111
  O     -0.217860    3.163868    1.041852
  C     -0.032305    1.137666   -0.196018
  C      1.457704    1.213720   -0.191653
  O      2.037922    2.150469    0.364894
  N      2.071075    0.218739   -0.825960
  C      3.528602    0.129944   -0.901006
  C      4.066764   -0.675011    0.262376
  C      4.428330   -2.008172    0.089973
  C      4.909707   -2.751732    1.159125
  C      5.013703   -2.134921    2.392424
  F      5.476298   -2.846960    3.430891
  C      4.659127   -0.813282    2.598690
  C      4.182482   -0.084096    1.519394
  N     -0.619642    0.095694   -0.798755
  C     -1.921143   -0.024101   -0.841627
  C     -2.461057   -1.280102   -1.507376
  C     -3.001061   -2.222075   -0.420281
  C     -1.324616   -1.978266   -2.269804
  N     -3.534538   -0.935253   -2.432555
  N     -2.716747    0.918986   -0.246081
  C     -4.185287    0.857401   -0.248337
  H     -2.113941    3.719240    2.548692
  H     -3.676656    4.396038    2.002313
  H     -2.198461    4.667965    1.032964
  H      0.781882    3.069286    0.947485
  H      1.513650   -0.521247   -1.223766
  H      3.922338    1.150357   -0.878405
  H      3.782167   -0.339857   -1.853103
  H      4.335873   -2.471883   -0.884520
  H      5.194804   -3.788707    1.038726
  H      4.752772   -0.368324    3.580814
  H      3.895418    0.951891    1.653508
  H     -2.217471   -2.439894    0.303707
  H     -3.847754   -1.778282    0.098793
  H     -3.323521   -3.153780   -0.882348
  H     -0.544457   -2.300074   -1.582595
  H     -1.724902   -2.848125   -2.787581
  H     -0.891168   -1.299293   -3.001230
  H     -3.930348   -1.788024   -2.805311
  H     -3.154113   -0.405027   -3.204610
  H     -4.568217    1.832911   -0.543385
  H     -4.524017    0.622954    0.759472
  H     -4.513211    0.104316   -0.958810

 Total Charge           Charge          ....    1
 Multiplicity           Mult            ....    1
 Number of Electrons    NEL             ....  184
 Basis Dimension        Dim             ....  625

ORBITAL ENERGIES
----------------

  NO   OCC          E(Eh)            E(eV)
   0   2.0000     -24.505426      -666.8266
   1   2.0000     -19.046035      -518.2690
   2   2.0000     -19.004807      -517.1471
   3   2.0000     -18.954825      -515.7870
   4   2.0000     -14.287367      -388.7790
   5   2.0000     -14.207659      -386.6101
   6   2.0000     -14.194830      -386.2610
   7   2.0000     -14.143393      -384.8613
   8   2.0000     -10.199050      -277.5303
   9   2.0000     -10.160481      -276.4807
  10   2.0000     -10.150934      -276.2210
  11   2.0000     -10.149963      -276.1945
  12   2.0000     -10.122467      -275.4463
  13   2.0000     -10.118319      -275.3335
  14   2.0000     -10.096260      -274.7332
  15   2.0000     -10.095135      -274.7026
  16   2.0000     -10.078065      -274.2381
  17   2.0000     -10.070457      -274.0311
  18   2.0000     -10.050116      -273.4776
  19   2.0000     -10.045759      -273.3590
  20   2.0000     -10.044706      -273.3303
  21   2.0000     -10.044058      -273.3127
  22   2.0000     -10.043973      -273.3104
  23   2.0000     -10.025873      -272.8179
  24   2.0000     -10.017024      -272.5771
  25   2.0000      -1.197153       -32.5762
  26   2.0000      -1.110402       -30.2156
  27   2.0000      -1.065703       -28.9993
  28   2.0000      -1.033541       -28.1241
  29   2.0000      -1.017482       -27.6871
  30   2.0000      -0.932373       -25.3712
  31   2.0000      -0.912020       -24.8173
  32   2.0000      -0.877542       -23.8791
  33   2.0000      -0.838879       -22.8271
  34   2.0000      -0.802032       -21.8244
  35   2.0000      -0.756562       -20.5871
  36   2.0000      -0.738848       -20.1051
  37   2.0000      -0.730640       -19.8817
  38   2.0000      -0.728790       -19.8314
  39   2.0000      -0.721246       -19.6261
  40   2.0000      -0.679085       -18.4788
  41   2.0000      -0.662800       -18.0357
  42   2.0000      -0.657279       -17.8855
  43   2.0000      -0.647528       -17.6201
  44   2.0000      -0.599547       -16.3145
  45   2.0000      -0.590875       -16.0785
  46   2.0000      -0.581850       -15.8329
  47   2.0000      -0.566741       -15.4218
  48   2.0000      -0.562700       -15.3119
  49   2.0000      -0.543101       -14.7785
  50   2.0000      -0.529227       -14.4010
  51   2.0000      -0.518784       -14.1168
  52   2.0000      -0.510021       -13.8784
  53   2.0000      -0.504315       -13.7231
  54   2.0000      -0.480201       -13.0669
  55   2.0000      -0.467741       -12.7279
  56   2.0000      -0.466153       -12.6847
  57   2.0000      -0.462156       -12.5759
  58   2.0000      -0.456253       -12.4153
  59   2.0000      -0.450327       -12.2540
  60   2.0000      -0.438799       -11.9403
  61   2.0000      -0.433501       -11.7962
  62   2.0000      -0.430534       -11.7154
  63   2.0000      -0.426434       -11.6039
  64   2.0000      -0.422669       -11.5014
  65   2.0000      -0.414623       -11.2825
  66   2.0000      -0.414577       -11.2812
  67   2.0000      -0.402288       -10.9468
  68   2.0000      -0.397671       -10.8212
  69   2.0000      -0.390370       -10.6225
  70   2.0000      -0.383818       -10.4442
  71   2.0000      -0.382229       -10.4010
  72   2.0000      -0.376502       -10.2451
  73   2.0000      -0.364992        -9.9319
  74   2.0000      -0.360261        -9.8032
  75   2.0000      -0.354392        -9.6435
  76   2.0000      -0.351031        -9.5520
  77   2.0000      -0.348317        -9.4782
  78   2.0000      -0.346682        -9.4337
  79   2.0000      -0.339517        -9.2387
  80   2.0000      -0.337892        -9.1945
  81   2.0000      -0.334173        -9.0933
  82   2.0000      -0.321326        -8.7437
  83   2.0000      -0.315444        -8.5837
  84   2.0000      -0.303780        -8.2663
  85   2.0000      -0.288262        -7.8440
  86   2.0000      -0.260422        -7.0865
  87   2.0000      -0.253418        -6.8959
  88   2.0000      -0.250677        -6.8213
  89   2.0000      -0.240506        -6.5445
  90   2.0000      -0.229347        -6.2408
  91   2.0000      -0.217573        -5.9205
  92   0.0000      -0.124004        -3.3743
  93   0.0000      -0.071681        -1.9505
  94   0.0000      -0.046327        -1.2606
  95   0.0000      -0.035708        -0.9717
  96   0.0000      -0.010855        -0.2954

MULLIKEN ATOMIC CHARGES
-----------------------
   0 C :   -0.301934
   1 O :   -0.177105
   2 C :    0.137949
   3 C :    0.088549
   4 O :   -0.383645
   5 C :    0.265604
   6 C :    0.061023
   7 O :   -0.541052
   8 N :   -0.074315
   9 C :   -0.369823
  10 C :    0.098585
  11 C :   -0.203838
  12 C :   -0.286318
  13 C :    0.363292
  14 F :   -0.233992
  15 C :   -0.315322
  16 C :   -0.162116
  17 N :   -0.132772
  18 C :    0.089202
  19 C :    0.197400
  20 C :   -0.506426
  21 C :   -0.581323
  22 N :   -0.685136
  23 N :    0.278795
  24 C :   -0.444729
  25 H :    0.191930
  26 H :    0.188221
  27 H :    0.191653
  28 H :    0.402573
  29 H :    0.320018
  30 H :    0.207278
  31 H :    0.190700
  32 H :    0.189347
  33 H :    0.197585
  34 H :    0.198003
  35 H :    0.197280
  36 H :    0.188536
  37 H :    0.180392
  38 H :    0.186969
  39 H :    0.178928
  40 H :    0.177801
  41 H :    0.181674
  42 H :    0.299570
  43 H :    0.292763
  44 H :    0.199646
  45 H :    0.211930
  46 H :    0.246654
Sum of atomic charges:    1.0000000

LOEWDIN ATOMIC CHARGES
----------------------
   0 C :    0.000680
   1 O :   -0.557031
   2 C :    0.457450
   3 C :    0.286327
   4 O :   -0.467573
   5 C :    0.255376
   6 C :    0.378086
   7 O :   -0.513789
   8 N :   -0.558452
   9 C :    0.009561
  10 C :   -0.080729
  11 C :   -0.140943
  12 C :   -0.157933
  13 C :    0.202633
  14 F :   -0.294211
  15 C :   -0.156364
  16 C :   -0.138300
  17 N :   -0.540361
  18 C :    0.396756
  19 C :    0.064890
  20 C :   -0.346040
  21 C :   -0.356985
  22 N :   -0.701922
  23 N :   -0.568260
  24 C :   -0.064872
  25 H :    0.193613
  26 H :    0.194047
  27 H :    0.193353
  28 H :    0.326005
  29 H :    0.302268
  30 H :    0.212391
  31 H :    0.206340
  32 H :    0.188066
  33 H :    0.194804
  34 H :    0.194761
  35 H :    0.193474
  36 H :    0.174377
  37 H :    0.172823
  38 H :    0.174226
  39 H :    0.170509
  40 H :    0.166821
  41 H :    0.172121
  42 H :    0.259541
  43 H :    0.256613
  44 H :    0.212247
  45 H :    0.205893
  46 H :    0.227708

  Mayer bond orders larger than 0.100000
B(  0-C ,  1-O ) :   0.8151 B(  0-C , 25-H ) :   0.9443 B(  0-C , 26-H ) :   0.9523
B(  0-C , 27-H ) :   0.9441 B(  1-O ,  2-C ) :   1.2742 B(  2-C ,  3-C ) :   1.1580
B(  2-C , 23-N ) :   1.3945 B(  3-C ,  4-O ) :   1.0640 B(  3-C ,  5-C ) :   1.2425
B(  3-C , 18-C ) :   0.1068 B(  4-O , 28-H ) :   0.7038 B(  5-C ,  6-C ) :   0.9822
B(  5-C , 17-N ) :   1.1286 B(  6-C ,  7-O ) :   1.6209 B(  6-C ,  8-N ) :   1.3271
B(  7-O , 28-H ) :   0.1231 B(  8-N ,  9-C ) :   0.8262 B(  8-N , 29-H ) :   0.8821
B(  9-C , 10-C ) :   0.8530 B(  9-C , 30-H ) :   0.9746 B(  9-C , 31-H ) :   0.9684
B( 10-C , 11-C ) :   1.4101 B( 10-C , 16-C ) :   1.3781 B( 11-C , 12-C ) :   1.3654
B( 11-C , 32-H ) :   0.9441 B( 12-C , 13-C ) :   1.4048 B( 12-C , 33-H ) :   0.9347
B( 13-C , 14-F ) :   0.8847 B( 13-C , 15-C ) :   1.3876 B( 15-C , 16-C ) :   1.3776
B( 15-C , 34-H ) :   0.9338 B( 16-C , 35-H ) :   0.9396 B( 17-N , 18-C ) :   1.5491
B( 17-N , 19-C ) :  -0.1025 B( 18-C , 19-C ) :   0.8946 B( 18-C , 23-N ) :   1.2479
B( 19-C , 20-C ) :   0.9446 B( 19-C , 21-C ) :   0.9696 B( 19-C , 22-N ) :   0.7646
B( 20-C , 36-H ) :   0.9699 B( 20-C , 37-H ) :   0.9377 B( 20-C , 38-H ) :   0.9604
B( 21-C , 39-H ) :   0.9744 B( 21-C , 40-H ) :   0.9653 B( 21-C , 41-H ) :   0.9608
B( 22-N , 42-H ) :   0.9111 B( 22-N , 43-H ) :   0.9093 B( 23-N , 24-C ) :   0.8440
B( 24-C , 44-H ) :   0.9282 B( 24-C , 45-H ) :   0.9253 B( 24-C , 46-H ) :   0.9020

Dispersion correction           -0.020990156
FINAL SINGLE POINT ENERGY     -1205.231842608261

DIPOLE MOMENT
-------------
                                X             Y             Z
Electronic contribution:     21.89914       3.56415      12.03336
Nuclear contribution   :    -26.83039      -2.63938     -14.13113
                        -----------------------------------------
Total Dipole Moment    :     -4.93124       0.92477      -2.09777
                        -----------------------------------------
Magnitude (a.u.)       :      5.43811
Magnitude (Debye)      :     13.82257

Rotational constants in cm-1:     0.011000     0.003722     0.003176
Rotational constants in MHz :   329.785751   111.571378    95.228290

                             ****ORCA TERMINATED NORMALLY****
TOTAL RUN TIME: 0 days 0 hours 2 minutes 18 seconds 60 msec
