   * xtb version 6.5.1 (579679a) compiled by 'ehlert@majestix' on 2022-07-11
          program call               : /lustre/hpc/kemi/ree/PhD/git/ReactivityQM/dep/xtb-6.5.1/bin/xtb --gfn 1 /lustre/hpc/kemi/ree/PhD/git/ReactivityQM/calculations/RaltegravirCLI/reac02prodN17/conf05/RaltegravirCLI_reac02prodN17_conf05_gfn1.xyz --opt --vfukui --chrg 1 --uhf 0 --alpb DMSO

   ID    Z sym.   atoms
    1    6 C      1, 3, 4, 6, 7, 10-14, 16, 17, 19-22, 25
    2    8 O      2, 5, 8
    3    7 N      9, 18, 23, 24
    4    9 F      15
    5    1 H      26-47

      * Solvation model:               ALPB
        Solvent                        DMSO
        Solvent mass                       7.8130E+01 g/mol
          :  Hamiltonian                  GFN1-xTB          :
 * total energy  :   -79.5115096 Eh     change       -0.6082246E-11 Eh
 * total energy  :   -79.5300222 Eh     change       -0.1851255E-01 Eh
 * total energy  :   -79.5362351 Eh     change       -0.6212912E-02 Eh
 * total energy  :   -79.5374588 Eh     change       -0.1223654E-02 Eh
 * total energy  :   -79.5382533 Eh     change       -0.7945207E-03 Eh
 * total energy  :   -79.5385459 Eh     change       -0.2926450E-03 Eh
 * total energy  :   -79.5387553 Eh     change       -0.2094136E-03 Eh
 * total energy  :   -79.5389474 Eh     change       -0.1920290E-03 Eh
 * total energy  :   -79.5391254 Eh     change       -0.1780303E-03 Eh
 * total energy  :   -79.5392942 Eh     change       -0.1687975E-03 Eh
 * total energy  :   -79.5404048 Eh     change       -0.1550809E-04 Eh
 * total energy  :   -79.5404271 Eh     change       -0.2233692E-04 Eh
 * total energy  :   -79.5404482 Eh     change       -0.2111787E-04 Eh
 * total energy  :   -79.5404654 Eh     change       -0.1715985E-04 Eh
 * total energy  :   -79.5404813 Eh     change       -0.1593015E-04 Eh
 * total energy  :   -79.5404982 Eh     change       -0.1691631E-04 Eh
 * total energy  :   -79.5405088 Eh     change       -0.1056013E-04 Eh
 * total energy  :   -79.5405149 Eh     change       -0.6065773E-05 Eh
 * total energy  :   -79.5405181 Eh     change       -0.3187262E-05 Eh
   *** GEOMETRY OPTIMIZATION CONVERGED AFTER 38 ITERATIONS ***

 final structure:
================
47
 xtb: 6.5.1 (579679a)
C           -2.72685037626937        3.96883012901085        1.68194303762586
O           -3.07593540265668        2.77834417519817        0.95696879014476
C           -2.18574843221541        1.98085696629270        0.40371091883474
C           -0.77959033504781        2.12701177602017        0.43211127164360
O           -0.21785994699690        3.16386848080839        1.04185157873167
C           -0.03230513505719        1.13766646254007       -0.19601817637135
C            1.45770429856385        1.21371969724263       -0.19165346940754
O            2.03792183040472        2.15046892324560        0.36489359587915
N            2.07107489994805        0.21873922028851       -0.82596041558972
C            3.52860219025654        0.12994447493319       -0.90100636678390
C            4.06676430202283       -0.67501086391522        0.26237637587452
C            4.42832981888845       -2.00817182968735        0.08997289020286
C            4.90970716856088       -2.75173237685662        1.15912514160746
C            5.01370313418467       -2.13492071118789        2.39242449026228
F            5.47629775913918       -2.84696049444914        3.43089075532949
C            4.65912705020773       -0.81328243874629        2.59868967132763
C            4.18248162301404       -0.08409635736448        1.51939390008050
N           -0.61964206287692        0.09569429466357       -0.79875544741258
C           -1.92114252925658       -0.02410080667903       -0.84162717239135
C           -2.46105742672653       -1.28010216460208       -1.50737573147671
C           -3.00106126937939       -2.22207533223831       -0.42028137664739
C           -1.32461559130245       -1.97826648630383       -2.26980444213317
N           -3.53453784343242       -0.93525251412942       -2.43255504765924
N           -2.71674723849529        0.91898633360547       -0.24608074779969
C           -4.18528691830283        0.85740084196858       -0.24833700579264
H           -2.11394124928643        3.71923991761269        2.54869194257503
H           -3.67665608203426        4.39603820881011        2.00231255815054
H           -2.19846121652684        4.66796486133514        1.03296402562999
H            0.78188189459571        3.06928581740236        0.94748517121811
H            1.51365048284107       -0.52124695749775       -1.22376577285364
H            3.92233798526152        1.15035689222376       -0.87840464716714
H            3.78216746817278       -0.33985679644402       -1.85310251844884
H            4.33587301083234       -2.47188253644971       -0.88451963693131
H            5.19480423280971       -3.78870723735705        1.03872630627904
H            4.75277245474061       -0.36832449321101        3.58081413361683
H            3.89541814874605        0.95189065025547        1.65350757949206
H           -2.21747122823446       -2.43989375611416        0.30370656516159
H           -3.84775426901432       -1.77828189225364        0.09879258765353
H           -3.32352079126046       -3.15378030900472       -0.88234817255280
H           -0.54445744088436       -2.30007352242113       -1.58259529261187
H           -1.72490232090729       -2.84812526456662       -2.78758058079790
H           -0.89116797540196       -1.29929266069125       -3.00122979967904
H           -3.93034765012252       -1.78802428849957       -2.80531079177134
H           -3.15411266585534       -0.40502663826895       -3.20461038400986
H           -4.56821711261930        1.83291093029109       -0.54338468245342
H           -4.52401709015280        0.62295370616098        0.75947167987531
H           -4.51321115287479        0.10431596902622       -0.95881028845321

          :  Hamiltonian                  GFN1-xTB          :
         :: total energy             -79.540518057383 Eh    ::
         :: gradient norm              0.000603660076 Eh/a0 ::
         :: HOMO-LUMO gap              1.825455904018 eV    ::
         :: SCC energy               -80.431296906088 Eh    ::
         :: -> Gsolv                  -0.095801861063 Eh    ::
         :: repulsion energy           0.920631104907 Eh    ::

    * Orbital Energies and Occupations

         #    Occupation            Energy/Eh            Energy/eV
      -------------------------------------------------------------
         1        2.0000           -0.8829835             -24.0272
       ...           ...                  ...                  ...
        55        2.0000           -0.5146996             -14.0057
        56        2.0000           -0.5138515             -13.9826
        57        2.0000           -0.5128502             -13.9554
        58        2.0000           -0.5113250             -13.9139
        59        2.0000           -0.5023143             -13.6687
        60        2.0000           -0.4932211             -13.4212
        61        2.0000           -0.4781320             -13.0106
        62        2.0000           -0.4705691             -12.8048
        63        2.0000           -0.4667469             -12.7008
        64        2.0000           -0.4600930             -12.5198
        65        2.0000           -0.4563450             -12.4178
        66        2.0000           -0.4431034             -12.0575
        67        2.0000           -0.4309844             -11.7277 (HOMO)
        68                         -0.3639001              -9.9022 (LUMO)
        69                         -0.3228711              -8.7858
        70                         -0.2782459              -7.5715
        71                         -0.2744371              -7.4678
        72                         -0.2684870              -7.3059
        73                         -0.1900626              -5.1719
        74                         -0.1586249              -4.3164
        75                         -0.1516242              -4.1259
        76                         -0.1503009              -4.0899
        77                         -0.1373984              -3.7388
        78                         -0.1351550              -3.6778
       ...                                ...                  ...
       144                          0.6642045              18.0739
      -------------------------------------------------------------
                  HL-Gap            0.0670843 Eh            1.8255 eV

Wiberg/Mayer (AO) data.
largest (>0.10) Wiberg bond orders for each atom

     #   Z sym  total        # sym  WBO       # sym  WBO       # sym  WBO
 ---------------------------------------------------------------------------
     1   6 C    3.835 --    27 H    0.982    28 H    0.977    26 H    0.977
                             2 O    0.865
     2   8 O    2.238 --     3 C    1.150     1 C    0.865
     3   6 C    3.895 --    24 N    1.258     4 C    1.226     2 O    1.150
     4   6 C    3.935 --     6 C    1.363     3 C    1.226     5 O    1.137
     5   8 O    2.083 --     4 C    1.137    29 H    0.718
     6   6 C    3.964 --     4 C    1.363    18 N    1.303     7 C    0.997
     7   6 C    3.915 --     8 O    1.512     9 N    1.331     6 C    0.997
     8   8 O    1.939 --     7 C    1.512     9 N    0.178    29 H    0.105
     9   7 N    3.409 --     7 C    1.331    10 C    0.926    30 H    0.891
                             8 O    0.178
    10   6 C    3.932 --    11 C    0.991    32 H    0.975    31 H    0.969
                             9 N    0.926
    11   6 C    3.985 --    12 C    1.423    17 C    1.415    10 C    0.991
    12   6 C    3.993 --    13 C    1.440    11 C    1.423    33 H    0.970
                            16 C    0.110
    13   6 C    3.991 --    12 C    1.440    14 C    1.402    34 H    0.969
                            17 C    0.111
    14   6 C    3.862 --    13 C    1.402    16 C    1.397    15 F    0.928
    15   9 F    1.058 --    14 C    0.928
    16   6 C    3.992 --    17 C    1.448    14 C    1.397    35 H    0.969
                            12 C    0.110
    17   6 C    3.992 --    16 C    1.448    11 C    1.415    36 H    0.969
                            13 C    0.111
    18   7 N    3.061 --    19 C    1.488     6 C    1.303
    19   6 C    3.899 --    18 N    1.488    24 N    1.193    20 C    0.978
    20   6 C    3.959 --    22 C    0.990    23 N    0.984    19 C    0.978
                            21 C    0.976
    21   6 C    3.990 --    37 H    0.985    38 H    0.982    39 H    0.980
                            20 C    0.976
    22   6 C    3.992 --    20 C    0.990    42 H    0.984    41 H    0.983
                            40 H    0.983
    23   7 N    2.997 --    20 C    0.984    44 H    0.936    43 H    0.932
    24   7 N    3.578 --     3 C    1.258    19 C    1.193    25 C    0.908
    25   6 C    3.888 --    45 H    0.972    46 H    0.970    47 H    0.959
                            24 N    0.908
    26   1 H    1.007 --     1 C    0.977
    27   1 H    1.006 --     1 C    0.982
    28   1 H    1.007 --     1 C    0.977
    29   1 H    0.833 --     5 O    0.718     8 O    0.105
    30   1 H    0.948 --     9 N    0.891
    31   1 H    1.004 --    10 C    0.969
    32   1 H    1.000 --    10 C    0.975
    33   1 H    0.998 --    12 C    0.970
    34   1 H    0.997 --    13 C    0.969
    35   1 H    0.997 --    16 C    0.969
    36   1 H    1.007 --    17 C    0.969
    37   1 H    1.001 --    21 C    0.985
    38   1 H    1.001 --    21 C    0.982
    39   1 H    0.997 --    21 C    0.980
    40   1 H    1.008 --    22 C    0.983
    41   1 H    1.000 --    22 C    0.983
    42   1 H    1.005 --    22 C    0.984
    43   1 H    0.946 --    23 N    0.932
    44   1 H    0.950 --    23 N    0.936
    45   1 H    0.999 --    25 C    0.972
    46   1 H    0.997 --    25 C    0.970
    47   1 H    1.024 --    25 C    0.959
 ---------------------------------------------------------------------------

           -------------------------------------------------
          | TOTAL ENERGY              -79.540518057383 Eh   |
          | GRADIENT NORM               0.000603660076 Eh/α |
          | HOMO-LUMO GAP               1.825455904018 eV   |
           -------------------------------------------------

 * finished run on 2023/06/20 at 15:40:59.444
