   * xtb version 6.5.1 (579679a) compiled by 'ehlert@majestix' on 2022-07-11
          program call               : /lustre/hpc/kemi/ree/PhD/git/ReactivityQM/dep/xtb-6.5.1/bin/xtb --gfn 1 /lustre/hpc/kemi/ree/PhD/git/ReactivityQM/calculations/R02deprot/reac01/conf15/R02deprot_reac01_conf15_gfn1.xyz --opt --vfukui --chrg -1 --uhf 0 --alpb DMSO

   ID    Z sym.   atoms
    1    6 C      1, 3, 5, 7-10, 12, 14, 17, 18, 21, 23
    2    8 O      2, 4, 13, 19, 22, 24
    3    7 N      6, 11, 15, 16, 20
    4    1 H      25-38

      * Solvation model:               ALPB
        Solvent                        DMSO
        Solvent mass                       7.8130E+01 g/mol
          :  Hamiltonian                  GFN1-xTB          :
 * total energy  :   -79.5936597 Eh     change       -0.2259526E-11 Eh
 * total energy  :   -79.6062117 Eh     change       -0.1255203E-01 Eh
 * total energy  :   -79.6111964 Eh     change       -0.4984713E-02 Eh
 * total energy  :   -79.6122042 Eh     change       -0.1007804E-02 Eh
 * total energy  :   -79.6127677 Eh     change       -0.5635182E-03 Eh
 * total energy  :   -79.6129756 Eh     change       -0.2078899E-03 Eh
 * total energy  :   -79.6131132 Eh     change       -0.1376154E-03 Eh
 * total energy  :   -79.6132135 Eh     change       -0.1002444E-03 Eh
 * total energy  :   -79.6132946 Eh     change       -0.8115220E-04 Eh
 * total energy  :   -79.6133728 Eh     change       -0.7812826E-04 Eh
 * total energy  :   -79.6139572 Eh     change       -0.1282177E-04 Eh
 * total energy  :   -79.6139505 Eh     change        0.6687014E-05 Eh
 * total energy  :   -79.6139820 Eh     change       -0.3147192E-04 Eh
 * total energy  :   -79.6139942 Eh     change       -0.1226825E-04 Eh
 * total energy  :   -79.6140094 Eh     change       -0.1511250E-04 Eh
 * total energy  :   -79.6140231 Eh     change       -0.1374587E-04 Eh
 * total energy  :   -79.6140287 Eh     change       -0.5568640E-05 Eh
 * total energy  :   -79.6140350 Eh     change       -0.6362977E-05 Eh
 * total energy  :   -79.6140397 Eh     change       -0.4702359E-05 Eh
   *** GEOMETRY OPTIMIZATION CONVERGED AFTER 40 ITERATIONS ***

 final structure:
================
38
 xtb: 6.5.1 (579679a)
C            6.77398359175878       -0.14755418062422       -0.21095157946871
O            5.48482875007604        0.46936082373081       -0.19713139970577
C            4.42931416234158       -0.37416743274625       -0.12660045034234
O            4.58620944443124       -1.57650664450967       -0.07772720928727
C            3.11634124392433        0.30441184014715       -0.11831063049802
N            2.06183455525230       -0.56905577717099       -0.07287459042789
C            0.85346850541763       -0.05311732307618       -0.06090288593191
C           -0.28873785434538       -1.06392777746569       -0.02769032434393
C           -0.14284691977216       -1.95914919370811        1.20950693834376
C           -0.24931897023879       -1.90220631079179       -1.31283324374626
N           -1.53656172840795       -0.30819658049271        0.04186766037088
C           -2.75782603213829       -0.84562339803421        0.08517364006349
O           -3.02119825699073       -2.04096292576480        0.07119744375523
C           -3.81035532875990        0.21050855884699        0.15704403511777
N           -3.61512314160209        1.49153718169406        0.23207159963051
N           -4.84760818876206        2.07624444514573        0.28451299177659
C           -5.71414835968158        1.11295895596691        0.23751854011344
C           -7.18979040528648        1.22408078597218        0.24968398747892
O           -5.12402269219255       -0.08914750880869        0.15735868503051
N            0.52871392341106        1.23305387756392       -0.08390945901359
C            1.51101316648550        2.17717337353302       -0.12993163447099
O            1.25783218517033        3.39141947832650       -0.15297986561195
C            2.89264315329768        1.66178059895400       -0.15026849581967
O            3.85629603850624        2.61341297674858       -0.20129623625814
H            6.87580080858358       -0.78960015568324       -1.08975998646797
H            7.50802849199502        0.65428554001125       -0.24620858436224
H            6.91506847940338       -0.74785186908474        0.69147171908421
H           -0.89727723594969       -2.74421745123549        1.20840849626301
H            0.84746018460588       -2.41329368582756        1.20011058495620
H           -0.25044527673459       -1.36424428853684        2.11599766559729
H           -1.02253363949418       -2.66865120694506       -1.29664881246043
H           -0.40096672103127       -1.26171341625162       -2.18123512395618
H            0.72680059339808       -2.37966478974884       -1.39173850039124
H           -1.42328792550823        0.70610588773237        0.05106605765610
H           -7.60870324997012        0.57311448497441        1.01573953079730
H           -7.59382375475201        0.91312622876957       -0.71376958993120
H           -7.47788392742453        2.25401076337477        0.44460145695815
H            4.74682033099109        2.23226411501554       -0.22550143049588

          :  Hamiltonian                  GFN1-xTB          :
         :: total energy             -79.614039735745 Eh    ::
         :: gradient norm              0.000506865194 Eh/a0 ::
         :: HOMO-LUMO gap              1.998298739798 eV    ::
         :: SCC energy               -80.334188726714 Eh    ::
         :: -> Gsolv                  -0.115250339798 Eh    ::
         :: repulsion energy           0.742789840251 Eh    ::

    * Orbital Energies and Occupations

         #    Occupation            Energy/Eh            Energy/eV
      -------------------------------------------------------------
         1        2.0000           -0.8559825             -23.2925
       ...           ...                  ...                  ...
        52        2.0000           -0.4753624             -12.9353
        53        2.0000           -0.4720689             -12.8456
        54        2.0000           -0.4720236             -12.8444
        55        2.0000           -0.4554426             -12.3932
        56        2.0000           -0.4517439             -12.2926
        57        2.0000           -0.4507570             -12.2657
        58        2.0000           -0.4405029             -11.9867
        59        2.0000           -0.4346956             -11.8287
        60        2.0000           -0.4306655             -11.7190
        61        2.0000           -0.4201028             -11.4316
        62        2.0000           -0.4009406             -10.9101
        63        2.0000           -0.3748022             -10.1989
        64        2.0000           -0.3705923             -10.0843 (HOMO)
        65                         -0.2971562              -8.0860 (LUMO)
        66                         -0.2797915              -7.6135
        67                         -0.2503079              -6.8112
        68                         -0.2275597              -6.1922
        69                         -0.1920256              -5.2253
        70                         -0.1855815              -5.0499
        71                         -0.1404064              -3.8207
        72                         -0.1276826              -3.4744
        73                         -0.1099578              -2.9921
        74                         -0.1055618              -2.8725
        75                         -0.1036993              -2.8218
       ...                                ...                  ...
       124                          0.7393571              20.1189
      -------------------------------------------------------------
                  HL-Gap            0.0734361 Eh            1.9983 eV

Wiberg/Mayer (AO) data.
largest (>0.10) Wiberg bond orders for each atom

     #   Z sym  total        # sym  WBO       # sym  WBO       # sym  WBO
 ---------------------------------------------------------------------------
     1   6 C    3.878 --    26 H    0.987    25 H    0.980    27 H    0.980
                             2 O    0.900
     2   8 O    2.184 --     3 C    1.058     1 C    0.900     4 O    0.119
     3   6 C    3.833 --     4 O    1.647     2 O    1.058     5 C    1.034
     4   8 O    1.908 --     3 C    1.647     2 O    0.119
     5   6 C    3.962 --    23 C    1.474     6 N    1.201     3 C    1.034
     6   7 N    2.995 --     7 C    1.459     5 C    1.201
     7   6 C    3.958 --     6 N    1.459    20 N    1.376     8 C    0.969
     8   6 C    3.929 --     9 C    0.985    10 C    0.983     7 C    0.969
                            11 N    0.923
     9   6 C    3.994 --    30 H    0.987     8 C    0.985    29 H    0.984
                            28 H    0.984
    10   6 C    3.994 --    32 H    0.987    33 H    0.985    31 H    0.983
                             8 C    0.983
    11   7 N    3.387 --    12 C    1.303     8 C    0.923    34 H    0.871
                            13 O    0.188
    12   6 C    3.925 --    13 O    1.562    11 N    1.303    14 C    0.979
    13   8 O    1.882 --    12 C    1.562    11 N    0.188
    14   6 C    3.869 --    15 N    1.620    19 O    1.060    12 C    0.979
    15   7 N    3.009 --    14 C    1.620    16 N    1.191
    16   7 N    2.980 --    17 C    1.615    15 N    1.191
    17   6 C    3.874 --    16 N    1.615    19 O    1.081    18 C    1.030
    18   6 C    3.988 --    17 C    1.030    37 H    0.983    35 H    0.968
                            36 H    0.962
    19   8 O    2.324 --    17 C    1.081    14 C    1.060
    20   7 N    3.013 --     7 C    1.376    21 C    1.222    22 O    0.125
    21   6 C    3.928 --    22 O    1.505    20 N    1.222    23 C    1.068
    22   8 O    1.791 --    21 C    1.505    20 N    0.125
    23   6 C    3.902 --     5 C    1.474    21 C    1.068    24 O    1.063
    24   8 O    2.049 --    23 C    1.063    38 H    0.822
    25   1 H    1.010 --     1 C    0.980
    26   1 H    1.011 --     1 C    0.987
    27   1 H    1.010 --     1 C    0.980
    28   1 H    1.012 --     9 C    0.984
    29   1 H    1.016 --     9 C    0.984
    30   1 H    1.006 --     9 C    0.987
    31   1 H    1.012 --    10 C    0.983
    32   1 H    1.006 --    10 C    0.987
    33   1 H    1.014 --    10 C    0.985
    34   1 H    0.982 --    11 N    0.871
    35   1 H    0.998 --    18 C    0.968
    36   1 H    0.998 --    18 C    0.962
    37   1 H    0.999 --    18 C    0.983
    38   1 H    0.874 --    24 O    0.822
 ---------------------------------------------------------------------------

           -------------------------------------------------
          | TOTAL ENERGY              -79.614039735745 Eh   |
          | GRADIENT NORM               0.000506865194 Eh/α |
          | HOMO-LUMO GAP               1.998298739798 eV   |
           -------------------------------------------------

 * finished run on 2023/06/20 at 17:32:29.916
