                         Program Version 5.0.1 -  RELEASE  -
|  1> # ORCA input file
|  2> ! SP r2SCAN-3c CPCM
|  3>
|  4> %maxcore 1875.0
|  5> %pal nprocs 4 end
|  6> %cpcm smd true SMDsolvent "DMSO" end
|  7>
|  8> *xyz -1 1
|  9> C       4.073645    0.775651   -0.297015
| 10> O       2.669666    0.847237   -0.312513
| 11> C       2.019965   -0.444581   -0.193721
| 12> O       2.756010   -1.482032   -0.078209
| 13> C       0.666972   -0.373730   -0.237040
| 14> N      -0.262786   -1.447467   -0.135083
| 15> N      -1.437441   -0.838161   -0.203820
| 16> C      -2.638939   -1.633196   -0.120990
| 17> C      -1.384425    0.470522   -0.327968
| 18> C      -2.519750    1.421579   -0.441245
| 19> O      -0.079242    0.887739   -0.369392
| 20> H       4.452880    0.329001    0.634654
| 21> H       4.457544    1.796384   -0.377290
| 22> H       4.464824    0.185075   -1.139475
| 23> H      -3.306095   -1.383100   -0.944553
| 24> H      -3.148331   -1.440346    0.823354
| 25> H      -2.354875   -2.681794   -0.177887
| 26> H      -3.091849    1.255381   -1.357495
| 27> H      -2.130923    2.437977   -0.454200
| 28> H      -3.206853    1.317860    0.400851
| 29> **                         ****END OF INPUT****

CARTESIAN COORDINATES (ANGSTROEM)
---------------------------------
  C      4.073645    0.775651   -0.297015
  O      2.669666    0.847237   -0.312513
  C      2.019965   -0.444581   -0.193721
  O      2.756010   -1.482032   -0.078209
  C      0.666972   -0.373730   -0.237040
  N     -0.262786   -1.447467   -0.135083
  N     -1.437441   -0.838161   -0.203820
  C     -2.638939   -1.633196   -0.120990
  C     -1.384425    0.470522   -0.327968
  C     -2.519750    1.421579   -0.441245
  O     -0.079242    0.887739   -0.369392
  H      4.452880    0.329001    0.634654
  H      4.457544    1.796384   -0.377290
  H      4.464824    0.185075   -1.139475
  H     -3.306095   -1.383100   -0.944553
  H     -3.148331   -1.440346    0.823354
  H     -2.354875   -2.681794   -0.177887
  H     -3.091849    1.255381   -1.357495
  H     -2.130923    2.437977   -0.454200
  H     -3.206853    1.317860    0.400851

 Total Charge           Charge          ....   -1
 Multiplicity           Mult            ....    1
 Number of Electrons    NEL             ....   84
 Basis Dimension        Dim             ....  279

ORBITAL ENERGIES
----------------

  NO   OCC          E(Eh)            E(eV)
   0   2.0000     -18.962056      -515.9838
   1   2.0000     -18.917865      -514.7813
   2   2.0000     -18.835720      -512.5460
   3   2.0000     -14.238078      -387.4378
   4   2.0000     -14.124711      -384.3529
   5   2.0000     -10.093269      -274.6518
   6   2.0000     -10.056872      -273.6614
   7   2.0000     -10.050976      -273.5010
   8   2.0000     -10.041888      -273.2537
   9   2.0000     -10.033615      -273.0285
  10   2.0000     -10.030411      -272.9414
  11   2.0000      -1.046724       -28.4828
  12   2.0000      -0.964956       -26.2578
  13   2.0000      -0.943152       -25.6645
  14   2.0000      -0.870366       -23.6839
  15   2.0000      -0.780331       -21.2339
  16   2.0000      -0.706960       -19.2374
  17   2.0000      -0.666960       -18.1489
  18   2.0000      -0.642162       -17.4741
  19   2.0000      -0.593846       -16.1594
  20   2.0000      -0.532076       -14.4785
  21   2.0000      -0.495743       -13.4898
  22   2.0000      -0.455307       -12.3895
  23   2.0000      -0.447674       -12.1818
  24   2.0000      -0.411774       -11.2049
  25   2.0000      -0.391108       -10.6426
  26   2.0000      -0.386213       -10.5094
  27   2.0000      -0.380662       -10.3583
  28   2.0000      -0.375559       -10.2195
  29   2.0000      -0.365695        -9.9511
  30   2.0000      -0.356018        -9.6878
  31   2.0000      -0.354102        -9.6356
  32   2.0000      -0.335553        -9.1309
  33   2.0000      -0.326920        -8.8960
  34   2.0000      -0.288635        -7.8542
  35   2.0000      -0.277006        -7.5377
  36   2.0000      -0.261613        -7.1189
  37   2.0000      -0.242704        -6.6043
  38   2.0000      -0.200963        -5.4685
  39   2.0000      -0.185022        -5.0347
  40   2.0000      -0.167777        -4.5655
  41   2.0000      -0.052145        -1.4189
  42   0.0000      -0.002102        -0.0572
  43   0.0000       0.067615         1.8399
  44   0.0000       0.099962         2.7201
  45   0.0000       0.110908         3.0180
  46   0.0000       0.119410         3.2493

MULLIKEN ATOMIC CHARGES
-----------------------
   0 C :   -0.346295
   1 O :   -0.250895
   2 C :   -0.138854
   3 O :   -0.541737
   4 C :   -0.043637
   5 N :   -0.552681
   6 N :    0.463748
   7 C :   -0.483278
   8 C :    0.093900
   9 C :   -0.631890
  10 O :   -0.116287
  11 H :    0.140575
  12 H :    0.140931
  13 H :    0.138540
  14 H :    0.185296
  15 H :    0.190201
  16 H :    0.194870
  17 H :    0.185800
  18 H :    0.189685
  19 H :    0.182007
Sum of atomic charges:   -1.0000000

LOEWDIN ATOMIC CHARGES
----------------------
   0 C :   -0.086520
   1 O :   -0.709296
   2 C :    0.269508
   3 O :   -0.682457
   4 C :    0.270405
   5 N :   -0.432893
   6 N :   -0.672384
   7 C :   -0.065181
   8 C :    0.344047
   9 C :   -0.335714
  10 O :   -0.498231
  11 H :    0.155890
  12 H :    0.163423
  13 H :    0.154673
  14 H :    0.193772
  15 H :    0.192516
  16 H :    0.203870
  17 H :    0.175277
  18 H :    0.182787
  19 H :    0.176506

  Mayer bond orders larger than 0.100000
B(  0-C ,  1-O ) :   0.8917 B(  0-C , 11-H ) :   0.9747 B(  0-C , 12-H ) :   0.9730
B(  0-C , 13-H ) :   0.9729 B(  1-O ,  2-C ) :   0.8682 B(  2-C ,  3-O ) :   1.7170
B(  2-C ,  4-C ) :   1.3849 B(  4-C ,  5-N ) :   1.2104 B(  4-C ,  8-C ) :   0.1024
B(  4-C , 10-O ) :   0.8612 B(  5-N ,  6-N ) :   1.4839 B(  5-N ,  7-C ) :   0.1013
B(  5-N ,  8-C ) :   0.2849 B(  6-N ,  7-C ) :   0.8653 B(  6-N ,  8-C ) :   1.5885
B(  7-C , 14-H ) :   0.9447 B(  7-C , 15-H ) :   0.9400 B(  7-C , 16-H ) :   0.9568
B(  8-C ,  9-C ) :   0.7988 B(  8-C , 10-O ) :   1.0057 B(  9-C , 17-H ) :   0.9612
B(  9-C , 18-H ) :   0.9797 B(  9-C , 19-H ) :   0.9665

Dispersion correction           -0.006181675
FINAL SINGLE POINT ENERGY      -569.125721975141

DIPOLE MOMENT
-------------
                                X             Y             Z
Electronic contribution:      2.02105      -1.06694       0.09697
Nuclear contribution   :     -6.82383       2.96837      -0.33816
                        -----------------------------------------
Total Dipole Moment    :     -4.80278       1.90143      -0.24119
                        -----------------------------------------
Magnitude (a.u.)       :      5.17110
Magnitude (Debye)      :     13.14389

Rotational constants in cm-1:     0.087182     0.021139     0.017179
Rotational constants in MHz :  2613.638202   633.744683   515.018791

                             ****ORCA TERMINATED NORMALLY****
TOTAL RUN TIME: 0 days 0 hours 0 minutes 38 seconds 637 msec
