   * xtb version 6.5.1 (579679a) compiled by 'ehlert@majestix' on 2022-07-11
          program call               : /lustre/hpc/kemi/ree/PhD/git/ReactivityQM/dep/xtb-6.5.1/bin/xtb --gfn 1 /lustre/hpc/kemi/ree/PhD/git/ReactivityQM/calculations/R01/reac01prodE05/conf12/R01_reac01prodE05_conf12_gfn1.xyz --opt --vfukui --chrg -1 --uhf 0 --alpb DMSO

   ID    Z sym.   atoms
    1    6 C      1, 3, 5, 8-10
    2    8 O      2, 4, 11
    3    7 N      6, 7
    4    1 H      12-20

      * Solvation model:               ALPB
        Solvent                        DMSO
        Solvent mass                       7.8130E+01 g/mol
          :  Hamiltonian                  GFN1-xTB          :
 * total energy  :   -38.2553383 Eh     change       -0.8320455E-11 Eh
 * total energy  :   -38.2715825 Eh     change       -0.1624427E-01 Eh
 * total energy  :   -38.2767113 Eh     change       -0.5128803E-02 Eh
 * total energy  :   -38.2772930 Eh     change       -0.5817016E-03 Eh
 * total energy  :   -38.2777198 Eh     change       -0.4267057E-03 Eh
 * total energy  :   -38.2778658 Eh     change       -0.1460247E-03 Eh
 * total energy  :   -38.2779396 Eh     change       -0.7385707E-04 Eh
 * total energy  :   -38.2779785 Eh     change       -0.3881940E-04 Eh
 * total energy  :   -38.2779981 Eh     change       -0.1960209E-04 Eh
 * total energy  :   -38.2780147 Eh     change       -0.1668403E-04 Eh
 * total energy  :   -38.2780211 Eh     change       -0.6327117E-05 Eh
 * total energy  :   -38.2780236 Eh     change       -0.2570697E-05 Eh
   *** GEOMETRY OPTIMIZATION CONVERGED AFTER 12 ITERATIONS ***

 final structure:
================
20
 xtb: 6.5.1 (579679a)
C            4.07364527163150        0.77565099087252       -0.29701525627343
O            2.66966645049773        0.84723739019264       -0.31251261443089
C            2.01996526268022       -0.44458090525260       -0.19372139047059
O            2.75601039849837       -1.48203176829928       -0.07820927882386
C            0.66697244142404       -0.37373011526871       -0.23704025000118
N           -0.26278569367380       -1.44746746419995       -0.13508330208645
N           -1.43744069923087       -0.83816055375691       -0.20382011126310
C           -2.63893906294288       -1.63319623705188       -0.12099038479896
C           -1.38442508499027        0.47052217521537       -0.32796799494434
C           -2.51975041363373        1.42157939444191       -0.44124536182796
O           -0.07924242668123        0.88773939054372       -0.36939206200745
H            4.45287985922545        0.32900086850983        0.63465445837020
H            4.45754411090818        1.79638404466255       -0.37728987791532
H            4.46482447012134        0.18507535110996       -1.13947535201142
H           -3.30609493078783       -1.38310019439164       -0.94455261833202
H           -3.14833106900264       -1.44034565658224        0.82335408847207
H           -2.35487534842883       -2.68179441447179       -0.17788651513066
H           -3.09184884379920        1.25538149248893       -1.35749461666417
H           -2.13092318530671        2.43797739298289       -0.45420003459876
H           -3.20685250650766        1.31785981825476        0.40085147473776

          :  Hamiltonian                  GFN1-xTB          :
         :: total energy             -38.278023638075 Eh    ::
         :: gradient norm              0.000451434470 Eh/a0 ::
         :: HOMO-LUMO gap              0.975101675811 eV    ::
         :: SCC energy               -38.591381062400 Eh    ::
         :: -> Gsolv                  -0.121794791449 Eh    ::
         :: repulsion energy           0.321499049987 Eh    ::

    * Orbital Energies and Occupations

         #    Occupation            Energy/Eh            Energy/eV
      -------------------------------------------------------------
         1        2.0000           -0.8003019             -21.7773
       ...           ...                  ...                  ...
        19        2.0000           -0.5145077             -14.0005
        20        2.0000           -0.5113504             -13.9146
        21        2.0000           -0.5036128             -13.7040
        22        2.0000           -0.4850254             -13.1982
        23        2.0000           -0.4659404             -12.6789
        24        2.0000           -0.4595847             -12.5059
        25        2.0000           -0.4554256             -12.3928
        26        2.0000           -0.4370969             -11.8940
        27        2.0000           -0.4068814             -11.0718
        28        2.0000           -0.4027580             -10.9596
        29        2.0000           -0.3697516             -10.0615
        30        2.0000           -0.3653604              -9.9420
        31        2.0000           -0.2579419              -7.0190 (HOMO)
        32                         -0.2221076              -6.0439 (LUMO)
        33                         -0.1398430              -3.8053
        34                         -0.1242661              -3.3815
        35                         -0.0997915              -2.7155
        36                         -0.0987233              -2.6864
        37                         -0.0825442              -2.2461
        38                         -0.0697997              -1.8993
        39                         -0.0523210              -1.4237
        40                         -0.0482975              -1.3142
        41                         -0.0382335              -1.0404
        42                         -0.0350594              -0.9540
       ...                                ...                  ...
        62                          0.7109017              19.3446
      -------------------------------------------------------------
                  HL-Gap            0.0358343 Eh            0.9751 eV

Wiberg/Mayer (AO) data.
largest (>0.10) Wiberg bond orders for each atom

     #   Z sym  total        # sym  WBO       # sym  WBO       # sym  WBO
 ---------------------------------------------------------------------------
     1   6 C    3.932 --    13 H    0.986    14 H    0.980    12 H    0.979
                             2 O    0.970
     2   8 O    2.001 --     1 C    0.970     3 C    0.857
     3   6 C    3.877 --     5 C    1.545     4 O    1.309     2 O    0.857
     4   8 O    1.639 --     3 C    1.309     5 C    0.168
     5   6 C    3.711 --     3 C    1.545     6 N    1.059    11 O    0.836
                             4 O    0.168
     6   7 N    2.757 --     7 N    1.185     5 C    1.059     9 C    0.329
     7   7 N    3.635 --     9 C    1.374     6 N    1.185     8 C    0.952
     8   6 C    3.956 --    17 H    0.985    15 H    0.983    16 H    0.980
                             7 N    0.952
     9   6 C    3.867 --     7 N    1.374    11 O    1.029    10 C    1.024
                             6 N    0.329
    10   6 C    3.994 --     9 C    1.024    19 H    0.983    20 H    0.975
                            18 H    0.971
    11   8 O    2.086 --     9 C    1.029     5 C    0.836
    12   1 H    1.028 --     1 C    0.979
    13   1 H    1.023 --     1 C    0.986
    14   1 H    1.027 --     1 C    0.980
    15   1 H    1.003 --     8 C    0.983
    16   1 H    1.003 --     8 C    0.980
    17   1 H    1.014 --     8 C    0.985
    18   1 H    1.004 --    10 C    0.971
    19   1 H    1.003 --    10 C    0.983
    20   1 H    1.004 --    10 C    0.975
 ---------------------------------------------------------------------------

           -------------------------------------------------
          | TOTAL ENERGY              -38.278023638075 Eh   |
          | GRADIENT NORM               0.000451434470 Eh/α |
          | HOMO-LUMO GAP               0.975101675811 eV   |
           -------------------------------------------------

 * finished run on 2023/06/20 at 14:53:59.730
