   * xtb version 6.5.1 (579679a) compiled by 'ehlert@majestix' on 2022-07-11
          program call               : /lustre/hpc/kemi/ree/PhD/git/ReactivityQM/dep/xtb-6.5.1/bin/xtb --gfn 1 /lustre/hpc/kemi/ree/PhD/git/ReactivityQM/calculations/R01/reac02prodN08/conf18/R01_reac02prodN08_conf18_gfn1.xyz --opt --vfukui --chrg 1 --uhf 0 --alpb DMSO

   ID    Z sym.   atoms
    1    6 C      1, 3, 5, 6, 8, 9, 12-15
    2    8 O      2, 4, 7, 10
    3    7 N      11, 16, 17
    4    1 H      18-33

      * Solvation model:               ALPB
        Solvent                        DMSO
        Solvent mass                       7.8130E+01 g/mol
          :  Hamiltonian                  GFN1-xTB          :
 * total energy  :   -57.7144129 Eh     change       -0.2199059E-09 Eh
 * total energy  :   -57.7322490 Eh     change       -0.1783606E-01 Eh
 * total energy  :   -57.7436150 Eh     change       -0.1136598E-01 Eh
 * total energy  :   -57.7466030 Eh     change       -0.2988001E-02 Eh
 * total energy  :   -57.7495825 Eh     change       -0.2979502E-02 Eh
 * total energy  :   -57.7510675 Eh     change       -0.1485051E-02 Eh
 * total energy  :   -57.7526164 Eh     change       -0.1548854E-02 Eh
 * total energy  :   -57.7539685 Eh     change       -0.1352174E-02 Eh
 * total energy  :   -57.7551031 Eh     change       -0.1134543E-02 Eh
 * total energy  :   -57.7562862 Eh     change       -0.1183083E-02 Eh
 * total energy  :   -57.8383632 Eh     change       -0.2651940E-03 Eh
 * total energy  :   -57.8385607 Eh     change       -0.1974800E-03 Eh
 * total energy  :   -57.8386690 Eh     change       -0.1083196E-03 Eh
 * total energy  :   -57.8386376 Eh     change        0.3137890E-04 Eh
 * total energy  :   -57.8387496 Eh     change       -0.1119697E-03 Eh
 * total energy  :   -57.8387646 Eh     change       -0.1505523E-04 Eh
 * total energy  :   -57.8387789 Eh     change       -0.1429491E-04 Eh
 * total energy  :   -57.8387846 Eh     change       -0.5704336E-05 Eh
 * total energy  :   -57.8387884 Eh     change       -0.3726290E-05 Eh
   *** GEOMETRY OPTIMIZATION CONVERGED AFTER 57 ITERATIONS ***

 final structure:
================
33
 xtb: 6.5.1 (579679a)
C            3.48108001861096       -1.62144793631495        2.24449404543377
O            2.35203778029296       -1.26020262408450        1.43017949095676
C            2.45562291706745       -0.15900130788082        0.72167252734854
O            3.41976332858969        0.56760933861965        0.69985192908831
C            1.20821464215468        0.13942875280856       -0.07980021148524
C            1.32884073569049        1.11727990390034       -1.23209838191834
O            2.54990556184459        1.02632428689889       -1.89784817295565
C            0.21001482429459        0.86775076152998       -2.24606931865376
C            1.11449513003656        2.53414842919220       -0.64690428521576
O            0.29278041872771        1.07308727001686       -3.42820572380998
N           -0.96888490083090        0.43422724790541       -1.67886877875420
C           -1.08178321320122       -0.06545859266080       -0.37256926442287
C           -2.32137515166037       -0.72801712062599        0.10255451427407
C           -2.21990541298817       -1.72801692978498        1.22945061455271
C           -3.51029294139732       -0.90016899916022       -0.80971028371766
N           -2.05583918965487        0.67403594707095        0.51285940015982
N            0.10430990702652       -0.34218530594370        0.33472064913900
H            3.16558384136438       -2.47252500604893        2.84338959925808
H            3.75904680244820       -0.78006184694921        2.88155462013364
H            4.32239667101991       -1.89182492158501        1.60321897384696
H            3.28260181682933        1.22444549497569       -1.29212580985659
H            0.13110676925658        2.60809314625359       -0.19154517093777
H            1.20193306342241        3.26071590085662       -1.45308072477492
H            1.87914981878299        2.73072909695758        0.10140078203275
H           -1.71452726138348        0.23567561201781       -2.32752027112842
H           -2.15804148701426       -2.73072279302992        0.80742062703694
H           -1.33371209244143       -1.54042614894972        1.83282257521903
H           -3.10649910991203       -1.66653317606008        1.85819089597101
H           -3.61804136284488       -0.06044993043018       -1.49206151240445
H           -4.41729123121899       -0.98310395407371       -0.21188666321158
H           -3.38844681411328       -1.81674458815700       -1.38618575381761
H           -1.76507101561176        0.84890995172529        1.46428749234459
H           -2.59917086318532        1.40443204100983        0.07841059026749

          :  Hamiltonian                  GFN1-xTB          :
         :: total energy             -57.838788373231 Eh    ::
         :: gradient norm              0.000784087705 Eh/a0 ::
         :: HOMO-LUMO gap              2.760119405444 eV    ::
         :: SCC energy               -58.405454977237 Eh    ::
         :: -> Gsolv                  -0.118607662739 Eh    ::
         :: repulsion energy           0.585922515803 Eh    ::

    * Orbital Energies and Occupations

         #    Occupation            Energy/Eh            Energy/eV
      -------------------------------------------------------------
         1        2.0000           -0.8927103             -24.2919
       ...           ...                  ...                  ...
        35        2.0000           -0.5526342             -15.0379
        36        2.0000           -0.5478197             -14.9069
        37        2.0000           -0.5469900             -14.8844
        38        2.0000           -0.5413491             -14.7309
        39        2.0000           -0.5381613             -14.6441
        40        2.0000           -0.5313365             -14.4584
        41        2.0000           -0.5273641             -14.3503
        42        2.0000           -0.5186657             -14.1136
        43        2.0000           -0.5151552             -14.0181
        44        2.0000           -0.5119662             -13.9313
        45        2.0000           -0.4889076             -13.3039
        46        2.0000           -0.4820936             -13.1184
        47        2.0000           -0.4681012             -12.7377 (HOMO)
        48                         -0.3666687              -9.9776 (LUMO)
        49                         -0.2944796              -8.0132
        50                         -0.2569197              -6.9911
        51                         -0.2018587              -5.4929
        52                         -0.1784221              -4.8551
        53                         -0.1689630              -4.5977
        54                         -0.1586758              -4.3178
        55                         -0.1487006              -4.0463
        56                         -0.1381322              -3.7588
        57                         -0.1261379              -3.4324
        58                         -0.1214753              -3.3055
       ...                                ...                  ...
       100                          0.7155208              19.4703
      -------------------------------------------------------------
                  HL-Gap            0.1014325 Eh            2.7601 eV

Wiberg/Mayer (AO) data.
largest (>0.10) Wiberg bond orders for each atom

     #   Z sym  total        # sym  WBO       # sym  WBO       # sym  WBO
 ---------------------------------------------------------------------------
     1   6 C    3.848 --    18 H    0.985    19 H    0.978    20 H    0.977
                             2 O    0.875
     2   8 O    2.238 --     3 C    1.168     1 C    0.875     4 O    0.148
     3   6 C    3.855 --     4 O    1.666     2 O    1.168     5 C    0.949
     4   8 O    1.964 --     3 C    1.666     2 O    0.148
     5   6 C    3.932 --    17 N    1.796     6 C    0.966     3 C    0.949
     6   6 C    3.935 --     7 O    0.991     5 C    0.966     8 C    0.930
                             9 C    0.927
     7   8 O    1.910 --     6 C    0.991    21 H    0.827
     8   6 C    3.879 --    10 O    1.706    11 N    1.141     6 C    0.930
     9   6 C    3.982 --    22 H    0.986    24 H    0.979    23 H    0.977
                             6 C    0.927
    10   8 O    1.969 --     8 C    1.706    11 N    0.140
    11   7 N    3.289 --     8 C    1.141    12 C    1.018    25 H    0.875
                            10 O    0.140
    12   6 C    3.872 --    17 N    1.028    11 N    1.018    13 C    0.920
                            16 N    0.801
    13   6 C    3.851 --    15 C    1.011    14 C    1.008    12 C    0.920
                            16 N    0.835
    14   6 C    3.978 --    13 C    1.008    27 H    0.978    28 H    0.975
                            26 H    0.973
    15   6 C    3.979 --    13 C    1.011    29 H    0.978    30 H    0.973
                            31 H    0.972
    16   7 N    3.496 --    33 H    0.871    32 H    0.869    13 C    0.835
                            12 C    0.801
    17   7 N    3.053 --     5 C    1.796    12 C    1.028
    18   1 H    1.007 --     1 C    0.985
    19   1 H    1.003 --     1 C    0.978
    20   1 H    1.002 --     1 C    0.977
    21   1 H    0.864 --     7 O    0.827
    22   1 H    0.998 --     9 C    0.986
    23   1 H    0.997 --     9 C    0.977
    24   1 H    1.001 --     9 C    0.979
    25   1 H    0.919 --    11 N    0.875
    26   1 H    0.994 --    14 C    0.973
    27   1 H    1.006 --    14 C    0.978
    28   1 H    0.994 --    14 C    0.975
    29   1 H    0.992 --    15 C    0.978
    30   1 H    0.991 --    15 C    0.973
    31   1 H    0.993 --    15 C    0.972
    32   1 H    0.903 --    16 N    0.869
    33   1 H    0.904 --    16 N    0.871
 ---------------------------------------------------------------------------

           -------------------------------------------------
          | TOTAL ENERGY              -57.838788373231 Eh   |
          | GRADIENT NORM               0.000784087705 Eh/α |
          | HOMO-LUMO GAP               2.760119405444 eV   |
           -------------------------------------------------

 * finished run on 2023/06/20 at 15:08:37.440
