   * xtb version 6.5.1 (579679a) compiled by 'ehlert@majestix' on 2022-07-11
          program call               : /lustre/hpc/kemi/ree/PhD/git/ReactivityQM/dep/xtb-6.5.1/bin/xtb --gfn 1 /lustre/hpc/kemi/ree/PhD/git/ReactivityQM/calculations/R02oxygendeprot/reac01prodN14/conf10/R02oxygendeprot_reac01prodN14_conf10_gfn1.xyz --opt --vfukui --chrg 0 --uhf 0 --alpb DMSO

   ID    Z sym.   atoms
    1    6 C      1, 3, 5, 6, 8, 9, 12-15, 17, 19, 22, 23
    2    8 O      2, 4, 7, 10, 18, 24
    3    7 N      11, 16, 20, 21, 25
    4    1 H      26-42

      * Solvation model:               ALPB
        Solvent                        DMSO
        Solvent mass                       7.8130E+01 g/mol
          :  Hamiltonian                  GFN1-xTB          :
 * total energy  :   -82.8958215 Eh     change       -0.9379164E-12 Eh
 * total energy  :   -82.9117024 Eh     change       -0.1588093E-01 Eh
 * total energy  :   -82.9208147 Eh     change       -0.9112332E-02 Eh
 * total energy  :   -82.9227111 Eh     change       -0.1896395E-02 Eh
 * total energy  :   -82.9246873 Eh     change       -0.1976211E-02 Eh
 * total energy  :   -82.9258945 Eh     change       -0.1207194E-02 Eh
 * total energy  :   -82.9271996 Eh     change       -0.1305098E-02 Eh
 * total energy  :   -82.9281681 Eh     change       -0.9684932E-03 Eh
 * total energy  :   -82.9289168 Eh     change       -0.7486736E-03 Eh
 * total energy  :   -82.9297697 Eh     change       -0.8529373E-03 Eh
 * total energy  :   -82.9808353 Eh     change       -0.9094822E-05 Eh
 * total energy  :   -82.9808425 Eh     change       -0.7135373E-05 Eh
 * total energy  :   -82.9808493 Eh     change       -0.6874958E-05 Eh
 * total energy  :   -82.9808557 Eh     change       -0.6309493E-05 Eh
 * total energy  :   -82.9808647 Eh     change       -0.9041502E-05 Eh
 * total energy  :   -82.9808709 Eh     change       -0.6191532E-05 Eh
 * total energy  :   -82.9808769 Eh     change       -0.5987789E-05 Eh
 * total energy  :   -82.9808839 Eh     change       -0.7022906E-05 Eh
 * total energy  :   -82.9808886 Eh     change       -0.4731516E-05 Eh
   *** GEOMETRY OPTIMIZATION CONVERGED AFTER 94 ITERATIONS ***

 final structure:
================
42
 xtb: 6.5.1 (579679a)
C           -5.57628057138492        2.89115691398306       -1.19419220102399
O           -4.37125066088873        2.38674040988346       -0.61705210977334
C           -3.82709962378081        1.31426058144680       -1.22132044780118
O           -4.32557158094798        0.78438894823072       -2.19435474941603
C           -2.59639104129134        0.88493344279715       -0.57530288674389
C           -1.98395059879775        1.44528517353693        0.53177987048740
O           -2.14265079810650        2.30967840389546        1.34692759557738
C           -0.53940630085510       -0.08948078623224        2.02134118110652
C           -1.81599139129244       -0.62449354652871        2.55236370889208
O            0.52581031892516       -0.07538482458687        2.55132609749730
N           -0.65172844321506        0.53456848517656        0.68471649617056
C           -0.82251032416290       -0.42208220842133       -0.43957967732945
C            0.16243793890968       -1.52481657676126       -0.70483651865984
C           -0.10932918821942       -2.70802220940560        0.23901290983219
C            0.01439087053934       -1.95643284007738       -2.17057223016560
N            1.51270055052107       -1.00157621414370       -0.47307796110563
C            2.62708309997651       -1.75594443261799       -0.60694879430853
O            2.64887172355850       -2.95181601557363       -0.83982050303672
C            3.86874445007091       -0.96449890088701       -0.42419343471961
N            5.09310961162646       -1.38612641872402       -0.48885164801323
N            5.89346908141775       -0.30620201051778       -0.26805573577752
C            5.10899298089364        0.70934230784155       -0.08237193722270
C            5.49059463201541        2.11074289449774        0.19497384719653
O            3.81392159864129        0.36122145893299       -0.16823748699104
N           -1.88629299064249       -0.19501378255323       -1.08881804359756
H           -5.88188427960704        3.74044066743198       -0.58563129340283
H           -6.35311175687979        2.12181052771088       -1.18544809023095
H           -5.39774016620041        3.21114885658078       -2.22440489257402
H           -2.37394188911596        0.21709203357540        2.96954085571786
H           -1.61244643533700       -1.33933737003106        3.34601905736148
H           -2.41660750478067       -1.07601031337943        1.76640854178179
H            0.15962000277661        1.13431529416742        0.55722823997606
H            0.13946682656544       -2.43762241571367        1.26281422970848
H            0.49206465064671       -3.56633689962571       -0.05488290410672
H           -1.16256848835132       -2.97734449752276        0.18498262181156
H           -1.00597150070827       -2.29373070236537       -2.34554986729098
H            0.70408842969777       -2.76958330124737       -2.38831224974711
H            0.22830847335023       -1.11563382636105       -2.82792796693896
H            1.63102563628326       -0.00771987637193       -0.37984246181253
H            5.14479785503459        2.40119716074879        1.18710160829197
H            6.57186428981645        2.21386400137172        0.14278358135786
H            5.02136351329514        2.77301940784242       -0.53147735097222

          :  Hamiltonian                  GFN1-xTB          :
         :: total energy             -82.980888631376 Eh    ::
         :: gradient norm              0.000532218598 Eh/a0 ::
         :: HOMO-LUMO gap              2.555265104344 eV    ::
         :: SCC energy               -83.778685408730 Eh    ::
         :: -> Gsolv                  -0.063385489501 Eh    ::
         :: repulsion energy           0.824737099420 Eh    ::

    * Orbital Energies and Occupations

         #    Occupation            Energy/Eh            Energy/eV
      -------------------------------------------------------------
         1        2.0000           -0.8667018             -23.5842
       ...           ...                  ...                  ...
        55        2.0000           -0.5067141             -13.7884
        56        2.0000           -0.5060724             -13.7709
        57        2.0000           -0.5047121             -13.7339
        58        2.0000           -0.4927027             -13.4071
        59        2.0000           -0.4858341             -13.2202
        60        2.0000           -0.4812918             -13.0966
        61        2.0000           -0.4702410             -12.7959
        62        2.0000           -0.4669508             -12.7064
        63        2.0000           -0.4630066             -12.5990
        64        2.0000           -0.4589544             -12.4888
        65        2.0000           -0.4535007             -12.3404
        66        2.0000           -0.4512866             -12.2801
        67        2.0000           -0.4181639             -11.3788 (HOMO)
        68                         -0.3242596              -8.8236 (LUMO)
        69                         -0.3131567              -8.5214
        70                         -0.3021740              -8.2226
        71                         -0.2734123              -7.4399
        72                         -0.2577000              -7.0124
        73                         -0.2007126              -5.4617
        74                         -0.1668373              -4.5399
        75                         -0.1589733              -4.3259
        76                         -0.1437742              -3.9123
        77                         -0.1420930              -3.8665
        78                         -0.1354751              -3.6865
       ...                                ...                  ...
       134                          0.8322070              22.6455
      -------------------------------------------------------------
                  HL-Gap            0.0939043 Eh            2.5553 eV

Wiberg/Mayer (AO) data.
largest (>0.10) Wiberg bond orders for each atom

     #   Z sym  total        # sym  WBO       # sym  WBO       # sym  WBO
 ---------------------------------------------------------------------------
     1   6 C    3.880 --    26 H    0.986    27 H    0.981    28 H    0.981
                             2 O    0.906
     2   8 O    2.169 --     3 C    1.074     1 C    0.906     4 O    0.120
     3   6 C    3.864 --     4 O    1.614     5 C    1.083     2 O    1.074
     4   8 O    1.893 --     3 C    1.614     2 O    0.120
     5   6 C    3.885 --     6 C    1.352    25 N    1.110     3 C    1.083
                             7 O    0.139
     6   6 C    3.869 --     7 O    1.672     5 C    1.352    11 N    0.679
     7   8 O    2.021 --     6 C    1.672     5 C    0.139
     8   6 C    3.829 --    10 O    1.814     9 C    1.028    11 N    0.886
     9   6 C    3.983 --     8 C    1.028    30 H    0.971    31 H    0.968
                            29 H    0.931
    10   8 O    2.043 --     8 C    1.814
    11   7 N    3.549 --     8 C    0.886    32 H    0.866    12 C    0.857
                             6 C    0.679
    12   6 C    3.888 --    25 N    1.782    13 C    0.992    11 N    0.857
    13   6 C    3.935 --    12 C    0.992    15 C    0.982    14 C    0.974
                            16 N    0.925
    14   6 C    3.985 --    35 H    0.985    33 H    0.982    34 H    0.976
                            13 C    0.974
    15   6 C    3.987 --    38 H    0.985    36 H    0.984    13 C    0.982
                            37 H    0.981
    16   7 N    3.335 --    17 C    1.245    13 C    0.925    39 H    0.894
                            18 O    0.174
    17   6 C    3.915 --    18 O    1.593    16 N    1.245    19 C    0.994
    18   8 O    1.909 --    17 C    1.593    16 N    0.174
    19   6 C    3.873 --    20 N    1.622    24 O    1.046    17 C    0.994
    20   7 N    3.001 --    19 C    1.622    21 N    1.199
    21   7 N    2.982 --    22 C    1.610    20 N    1.199
    22   6 C    3.868 --    21 N    1.610    24 O    1.072    23 C    1.032
    23   6 C    3.986 --    22 C    1.032    41 H    0.982    42 H    0.965
                            40 H    0.961
    24   8 O    2.316 --    22 C    1.072    19 C    1.046
    25   7 N    3.067 --    12 C    1.782     5 C    1.110
    26   1 H    1.012 --     1 C    0.986
    27   1 H    1.009 --     1 C    0.981
    28   1 H    1.009 --     1 C    0.981
    29   1 H    0.993 --     9 C    0.931
    30   1 H    0.994 --     9 C    0.971
    31   1 H    0.996 --     9 C    0.968
    32   1 H    0.917 --    11 N    0.866
    33   1 H    1.003 --    14 C    0.982
    34   1 H    1.009 --    14 C    0.976
    35   1 H    1.003 --    14 C    0.985
    36   1 H    1.006 --    15 C    0.984
    37   1 H    1.006 --    15 C    0.981
    38   1 H    1.003 --    15 C    0.985
    39   1 H    0.939 --    16 N    0.894
    40   1 H    0.996 --    23 C    0.961
    41   1 H    0.998 --    23 C    0.982
    42   1 H    0.996 --    23 C    0.965
 ---------------------------------------------------------------------------

           -------------------------------------------------
          | TOTAL ENERGY              -82.980888631376 Eh   |
          | GRADIENT NORM               0.000532218598 Eh/α |
          | HOMO-LUMO GAP               2.555265104344 eV   |
           -------------------------------------------------

 * finished run on 2023/06/21 at 17:33:22.904
