   * xtb version 6.5.1 (579679a) compiled by 'ehlert@majestix' on 2022-07-11
          program call               : /lustre/hpc/kemi/ree/PhD/git/ReactivityQM/dep/xtb-6.5.1/bin/xtb --gfn 1 /lustre/hpc/kemi/ree/PhD/git/ReactivityQM/calculations/R02oxygendeprot/reac01prodN07/conf12/R02oxygendeprot_reac01prodN07_conf12_gfn1.xyz --opt --vfukui --chrg 0 --uhf 0 --alpb DMSO

   ID    Z sym.   atoms
    1    6 C      1, 3, 5, 7-10, 12, 14, 17-19, 22, 24
    2    8 O      2, 4, 13, 20, 23, 25
    3    7 N      6, 11, 15, 16, 21
    4    1 H      26-42

      * Solvation model:               ALPB
        Solvent                        DMSO
        Solvent mass                       7.8130E+01 g/mol
          :  Hamiltonian                  GFN1-xTB          :
 * total energy  :   -82.9503092 Eh     change       -0.2936062E-08 Eh
 * total energy  :   -82.9673265 Eh     change       -0.1701724E-01 Eh
 * total energy  :   -82.9743212 Eh     change       -0.6994676E-02 Eh
 * total energy  :   -82.9755743 Eh     change       -0.1253137E-02 Eh
 * total energy  :   -82.9763758 Eh     change       -0.8014765E-03 Eh
 * total energy  :   -82.9767190 Eh     change       -0.3432538E-03 Eh
 * total energy  :   -82.9770648 Eh     change       -0.3457708E-03 Eh
 * total energy  :   -82.9772953 Eh     change       -0.2304852E-03 Eh
 * total energy  :   -82.9774603 Eh     change       -0.1650171E-03 Eh
 * total energy  :   -82.9775964 Eh     change       -0.1360924E-03 Eh
 * total energy  :   -82.9804340 Eh     change       -0.8713518E-05 Eh
 * total energy  :   -82.9804450 Eh     change       -0.1094424E-04 Eh
 * total energy  :   -82.9804504 Eh     change       -0.5454527E-05 Eh
 * total energy  :   -82.9804592 Eh     change       -0.8738469E-05 Eh
 * total energy  :   -82.9804667 Eh     change       -0.7485459E-05 Eh
 * total energy  :   -82.9804747 Eh     change       -0.8046996E-05 Eh
 * total energy  :   -82.9804821 Eh     change       -0.7428727E-05 Eh
 * total energy  :   -82.9804872 Eh     change       -0.5064392E-05 Eh
 * total energy  :   -82.9804909 Eh     change       -0.3735468E-05 Eh
   *** GEOMETRY OPTIMIZATION CONVERGED AFTER 76 ITERATIONS ***

 final structure:
================
42
 xtb: 6.5.1 (579679a)
C           -1.21368977982306        2.71244582769402        2.57732971720191
O           -1.49345866232284        1.50864981631030        1.87732728192397
C           -2.69953902929259        0.92265196065624        2.16842828020989
O           -3.45095109883459        1.43261056346195        2.98189002879079
C           -2.91147175025979       -0.29767016518221        1.41153399642221
N           -1.87986370502203       -0.63767966322489        0.55672343111209
C           -1.94630033763541       -1.68697211091474       -0.17524262541381
C           -0.79649432343634       -2.02210190297613       -1.10636157508089
C           -1.24477621486951       -1.94907686094036       -2.57171352969070
C           -0.19839900723967       -3.39498861338683       -0.77507071824397
N            0.20207033594075       -0.97854168947981       -0.84824849835546
C            1.38557109326979       -0.89015753399090       -1.44402637726964
O            1.85018933228674       -1.62441278276844       -2.29387133992492
C            2.16355062896548        0.29564424463674       -0.92325676088074
N            1.79256184613310        1.16433844703351       -0.03140761361554
N            2.83853107710589        2.00640834072270        0.08772030218377
C            2.76239408506626        3.11759395083404        1.01014665589419
C            3.80727168666170        1.63686303698707       -0.72267451682845
C            5.13389274707024        2.24086474377292       -0.93384330921014
O            3.40544070612002        0.56232438706479       -1.36862550949490
N           -3.03619302977404       -2.52561099579626       -0.15203058429651
C           -4.13098740489261       -2.32127604140572        0.65705061070342
O           -5.05911567492010       -3.12157164387934        0.63209077229446
C           -4.08843529397632       -1.08373941882356        1.53135184841263
O           -5.05552191622246       -0.84484939857712        2.27164816044654
H           -1.96286862736152        3.47829074792146        2.35105141423718
H           -0.23349806192500        3.04857289385957        2.24275416477571
H           -1.19402913520217        2.53897613295270        3.65809043098757
H           -2.03648304018877       -2.67467824949239       -2.74771355439628
H           -1.61827786699164       -0.95118739469500       -2.79704200822148
H           -0.40835798887824       -2.17394091406148       -3.23074724372203
H            0.63972654491146       -3.60731435912904       -1.43609630791308
H           -0.95404128989166       -4.16646366775862       -0.91005054902452
H            0.14867780731759       -3.41168904405011        0.25708114481671
H           -0.08726293298292       -0.28870465012702       -0.15125877435056
H            3.71812779630432        3.63223730044732        1.01253929294290
H            2.53533419902359        2.72949755745348        2.00179458016346
H            1.96961301237796        3.78860765157162        0.68176144154539
H            5.63446244944901        1.73116878306650       -1.75480205342720
H            5.73412546508172        2.14583399324732       -0.02764713618067
H            5.03354216453668        3.30202066321684       -1.16146704753946
H           -3.05506780566729       -3.34297594221418       -0.73921492199061

          :  Hamiltonian                  GFN1-xTB          :
         :: total energy             -82.980490939393 Eh    ::
         :: gradient norm              0.000463786044 Eh/a0 ::
         :: HOMO-LUMO gap              0.598217831747 eV    ::
         :: SCC energy               -83.768602616023 Eh    ::
         :: -> Gsolv                  -0.118872461978 Eh    ::
         :: repulsion energy           0.814096616419 Eh    ::

    * Orbital Energies and Occupations

         #    Occupation            Energy/Eh            Energy/eV
      -------------------------------------------------------------
         1        2.0000           -0.9331545             -25.3924
       ...           ...                  ...                  ...
        55        2.0000           -0.5083221             -13.8321
        56        2.0000           -0.5005060             -13.6195
        57        2.0000           -0.5003158             -13.6143
        58        2.0000           -0.4932108             -13.4209
        59        2.0000           -0.4800701             -13.0634
        60        2.0000           -0.4723728             -12.8539
        61        2.0000           -0.4639864             -12.6257
        62        2.0000           -0.4634093             -12.6100
        63        2.0000           -0.4494579             -12.2304
        64        2.0000           -0.4445840             -12.0977
        65        2.0000           -0.4289537             -11.6724
        66        2.0000           -0.3860448             -10.5048
        67        2.0000           -0.3737669             -10.1707 (HOMO)
        68        0.0000           -0.3517828              -9.5725 (LUMO)
        69                         -0.3406842              -9.2705
        70                         -0.2777795              -7.5588
        71                         -0.2496953              -6.7946
        72                         -0.2325052              -6.3268
        73                         -0.2039416              -5.5495
        74                         -0.1856958              -5.0530
        75                         -0.1747697              -4.7557
        76                         -0.1339978              -3.6463
        77                         -0.1324061              -3.6030
        78                         -0.1250795              -3.4036
       ...                                ...                  ...
       134                          0.7658204              20.8390
      -------------------------------------------------------------
                  HL-Gap            0.0219841 Eh            0.5982 eV

Wiberg/Mayer (AO) data.
largest (>0.10) Wiberg bond orders for each atom

     #   Z sym  total        # sym  WBO       # sym  WBO       # sym  WBO
 ---------------------------------------------------------------------------
     1   6 C    3.898 --    27 H    0.986    28 H    0.980    26 H    0.980
                             2 O    0.926
     2   8 O    2.132 --     3 C    1.018     1 C    0.926     4 O    0.108
     3   6 C    3.850 --     4 O    1.600     5 C    1.119     2 O    1.018
     4   8 O    1.876 --     3 C    1.600     2 O    0.108
     5   6 C    3.911 --    24 C    1.263     6 N    1.147     3 C    1.119
                            25 O    0.129
     6   7 N    3.070 --     7 C    1.623     5 C    1.147
     7   6 C    3.936 --     6 N    1.623    21 N    1.106     8 C    0.977
     8   6 C    3.923 --    10 C    0.983     9 C    0.982     7 C    0.977
                            11 N    0.915
     9   6 C    3.988 --    30 H    0.985    29 H    0.983     8 C    0.982
                            31 H    0.981
    10   6 C    3.988 --    34 H    0.985     8 C    0.983    33 H    0.983
                            32 H    0.981
    11   7 N    3.408 --    12 C    1.324     8 C    0.915    35 H    0.858
                            13 O    0.206
    12   6 C    3.930 --    13 O    1.589    11 N    1.324    14 C    0.946
    13   8 O    1.922 --    12 C    1.589    11 N    0.206
    14   6 C    3.834 --    15 N    1.613    20 O    1.063    12 C    0.946
    15   7 N    2.986 --    14 C    1.613    16 N    1.144
    16   7 N    3.632 --    18 C    1.428    15 N    1.144    17 C    0.912
    17   6 C    3.888 --    36 H    0.981    37 H    0.968    38 H    0.966
                            16 N    0.912
    18   6 C    3.845 --    16 N    1.428    20 O    1.155    19 C    1.038
    19   6 C    3.962 --    18 C    1.038    39 H    0.972    41 H    0.952
                            40 H    0.943
    20   8 O    2.386 --    18 C    1.155    14 C    1.063
    21   7 N    3.424 --    22 C    1.147     7 C    1.106    42 H    0.895
                            23 O    0.133
    22   6 C    3.874 --    23 O    1.594    21 N    1.147    24 C    0.962
    23   8 O    1.871 --    22 C    1.594    21 N    0.133
    24   6 C    3.942 --    25 O    1.535     5 C    1.263    22 C    0.962
    25   8 O    1.839 --    24 C    1.535     5 C    0.129
    26   1 H    1.012 --     1 C    0.980
    27   1 H    1.019 --     1 C    0.986
    28   1 H    1.013 --     1 C    0.980
    29   1 H    1.000 --     9 C    0.983
    30   1 H    1.002 --     9 C    0.985
    31   1 H    1.006 --     9 C    0.981
    32   1 H    1.006 --    10 C    0.981
    33   1 H    1.000 --    10 C    0.983
    34   1 H    1.002 --    10 C    0.985
    35   1 H    0.968 --    11 N    0.858
    36   1 H    0.990 --    17 C    0.981
    37   1 H    0.993 --    17 C    0.968
    38   1 H    0.992 --    17 C    0.966
    39   1 H    0.987 --    19 C    0.972
    40   1 H    0.986 --    19 C    0.943
    41   1 H    0.987 --    19 C    0.952
    42   1 H    0.943 --    21 N    0.895
 ---------------------------------------------------------------------------

           -------------------------------------------------
          | TOTAL ENERGY              -82.980490939393 Eh   |
          | GRADIENT NORM               0.000463786044 Eh/α |
          | HOMO-LUMO GAP               0.598217831747 eV   |
           -------------------------------------------------

 * finished run on 2023/06/21 at 17:22:57.711
