   * xtb version 6.5.1 (579679a) compiled by 'ehlert@majestix' on 2022-07-11
          program call               : /lustre/hpc/kemi/ree/PhD/git/ReactivityQM/dep/xtb-6.5.1/bin/xtb --gfn 1 /lustre/hpc/kemi/ree/PhD/git/ReactivityQM/calculations/R02methylcation/reac01prodE13/conf05/R02methylcation_reac01prodE13_conf05_gfn1.xyz --opt --vfukui --chrg -2 --uhf 0 --alpb DMSO

   ID    Z sym.   atoms
    1    6 C      1, 3, 5, 6, 8, 10, 12-15, 17, 19, 22, 23
    2    8 O      2, 4, 7, 9, 18, 24
    3    7 N      11, 16, 20, 21, 25
    4    1 H      26-42

      * Solvation model:               ALPB
        Solvent                        DMSO
        Solvent mass                       7.8130E+01 g/mol
          :  Hamiltonian                  GFN1-xTB          :
 * total energy  :   -83.5710428 Eh     change       -0.5459810E-10 Eh
 * total energy  :   -83.5846800 Eh     change       -0.1363723E-01 Eh
 * total energy  :   -83.5897999 Eh     change       -0.5119904E-02 Eh
 * total energy  :   -83.5908794 Eh     change       -0.1079419E-02 Eh
 * total energy  :   -83.5915969 Eh     change       -0.7175434E-03 Eh
 * total energy  :   -83.5918879 Eh     change       -0.2910271E-03 Eh
 * total energy  :   -83.5920896 Eh     change       -0.2016738E-03 Eh
 * total energy  :   -83.5922288 Eh     change       -0.1392403E-03 Eh
 * total energy  :   -83.5923063 Eh     change       -0.7746526E-04 Eh
 * total energy  :   -83.5923508 Eh     change       -0.4446410E-04 Eh
 * total energy  :   -83.5926959 Eh     change       -0.1564067E-04 Eh
 * total energy  :   -83.5927090 Eh     change       -0.1306209E-04 Eh
 * total energy  :   -83.5927263 Eh     change       -0.1732356E-04 Eh
 * total energy  :   -83.5927388 Eh     change       -0.1250263E-04 Eh
 * total energy  :   -83.5927621 Eh     change       -0.2334707E-04 Eh
 * total energy  :   -83.5927718 Eh     change       -0.9630745E-05 Eh
 * total energy  :   -83.5927706 Eh     change        0.1155400E-05 Eh
 * total energy  :   -83.5927881 Eh     change       -0.1748226E-04 Eh
 * total energy  :   -83.5927919 Eh     change       -0.3823027E-05 Eh
   *** GEOMETRY OPTIMIZATION CONVERGED AFTER 31 ITERATIONS ***

 final structure:
================
42
 xtb: 6.5.1 (579679a)
C           -5.75541621038632        2.33340974216219       -1.50189101287428
O           -4.75612380793438        1.78629920401807       -0.67128782107323
C           -3.67515908317844        1.21129607502581       -1.34780809178248
O           -3.68697257933065        1.22569476090380       -2.59846959270967
C           -2.66646573887850        0.65975644482157       -0.52756462525695
C           -2.65457437180748        0.65892721343792        0.94954065137590
O           -3.56454390028360        1.19167814826073        1.65903476354381
C           -1.54270803488196        0.01891863847839        1.51237210147964
O           -1.26243242848531       -0.08247936890205        2.87369612237510
C           -2.28398807675411       -0.63764870036594        3.69025518244340
N           -0.56075571975142       -0.58987885176954        0.71713880685849
C           -0.61937509460616       -0.46912293194688       -0.64798631336327
C            0.49138384075042       -1.13589097349095       -1.44338318338487
C            0.20582817564593       -2.64767973095546       -1.46654155736672
C            0.51739943715622       -0.56669000137433       -2.86947937404208
N            1.75452407615574       -0.87566598619419       -0.74485609440327
C            2.97636003822315       -1.29196963599221       -1.29049431860491
O            3.06493608549594       -2.18942894170319       -2.15940512866367
C            4.11088062608292       -0.64235795394058       -0.71719107861629
N            5.40300527502807       -0.84715120314836       -0.99883579726600
N            6.11222255502012        0.02392111044113       -0.21915649333091
C            5.26368136266603        0.70297138481721        0.48052068850912
C            5.56430049609286        1.76650266928726        1.47124168848101
O            3.97484593034817        0.35533660144085        0.23557465603406
N           -1.60517383673757        0.09423311661188       -1.24760522087867
H           -5.35886846594555        3.14127513416558       -2.13105877498178
H           -6.53545111912219        2.73681630352836       -0.85355797412374
H           -6.19468673604562        1.57179183338518       -2.15957727339176
H           -2.57240149470671       -1.63907490807359        3.34514619148864
H           -3.17431739191791        0.00389261470662        3.70917771633768
H           -1.87552165963413       -0.71376322940545        4.69993913291779
H            0.24986900250102       -0.97447970201421        1.17066990160367
H           -0.78457359958062       -2.82268245375041       -1.88702357140915
H            0.94176180117765       -3.17678089606342       -2.06949573960023
H            0.23169612419049       -3.04239428871676       -0.45122024373993
H           -0.46926938868583       -0.67764006252888       -3.32008160315958
H            1.24997152474557       -1.09318163115858       -3.47918111383201
H            0.77007977368691        0.49329299261708       -2.84269433841865
H            1.80161813793965        0.03345507532745       -0.30351903862006
H            5.12386583256559        1.52034106605946        2.43781473336490
H            5.14896250937111        2.72081004894392        1.14493386230306
H            6.64158913380709        1.86534327305742        1.58143517577051

          :  Hamiltonian                  GFN1-xTB          :
         :: total energy             -83.592791918363 Eh    ::
         :: gradient norm              0.000440249011 Eh/a0 ::
         :: HOMO-LUMO gap              0.034696704623 eV    ::
         :: SCC energy               -84.317855433784 Eh    ::
         :: -> Gsolv                  -0.267985039251 Eh    ::
         :: repulsion energy           0.749836767128 Eh    ::

    * Orbital Energies and Occupations

         #    Occupation            Energy/Eh            Energy/eV
      -------------------------------------------------------------
         1        2.0000           -0.8010928             -21.7988
       ...           ...                  ...                  ...
        56        2.0000           -0.4354603             -11.8495
        57        2.0000           -0.4271525             -11.6234
        58        2.0000           -0.4265627             -11.6074
        59        2.0000           -0.4070157             -11.0755
        60        2.0000           -0.4061162             -11.0510
        61        2.0000           -0.4024436             -10.9510
        62        2.0000           -0.3962991             -10.7838
        63        2.0000           -0.3913400             -10.6489
        64        2.0000           -0.3889181             -10.5830
        65        2.0000           -0.3824307             -10.4065
        66        2.0000           -0.3424079              -9.3174
        67        2.0000           -0.3358222              -9.1382
        68        1.3235           -0.2672438              -7.2721 (HOMO)
        69        0.6765           -0.2659687              -7.2374 (LUMO)
        70                         -0.2090609              -5.6888
        71                         -0.2000119              -5.4426
        72                         -0.1638049              -4.4574
        73                         -0.1393253              -3.7912
        74                         -0.1233996              -3.3579
        75                         -0.1055373              -2.8718
        76                         -0.1045817              -2.8458
        77                         -0.0960312              -2.6131
        78                         -0.0909582              -2.4751
        79                         -0.0724845              -1.9724
       ...                                ...                  ...
       134                          0.7113113              19.3558
      -------------------------------------------------------------
                  HL-Gap            0.0012751 Eh            0.0347 eV

Wiberg/Mayer (AO) data.
largest (>0.10) Wiberg bond orders for each atom

     #   Z sym  total        # sym  WBO       # sym  WBO       # sym  WBO
 ---------------------------------------------------------------------------
     1   6 C    3.922 --    27 H    0.987    26 H    0.980    28 H    0.980
                             2 O    0.954
     2   8 O    2.072 --     1 C    0.954     3 C    0.951
     3   6 C    3.780 --     4 O    1.446     5 C    1.284     2 O    0.951
     4   8 O    1.697 --     3 C    1.446
     5   6 C    3.753 --     3 C    1.284    25 N    1.110     6 C    1.079
     6   6 C    3.920 --     7 O    1.387     8 C    1.329     5 C    1.079
     7   8 O    1.686 --     6 C    1.387     8 C    0.114
     8   6 C    3.529 --     6 C    1.329    11 N    1.026     9 O    0.952
                             7 O    0.114
     9   8 O    2.013 --     8 C    0.952    10 C    0.934
    10   6 C    3.908 --    31 H    0.987    29 H    0.983    30 H    0.978
                             9 O    0.934
    11   7 N    3.249 --    12 C    1.126     8 C    1.026    32 H    0.907
                            25 N    0.102
    12   6 C    3.927 --    25 N    1.613    11 N    1.126    13 C    0.974
    13   6 C    3.949 --    15 C    0.991    14 C    0.984    12 C    0.974
                            16 N    0.941
    14   6 C    3.991 --    33 H    0.988    35 H    0.987    13 C    0.984
                            34 H    0.980
    15   6 C    3.993 --    13 C    0.991    38 H    0.987    37 H    0.985
                            36 H    0.984
    16   7 N    3.147 --    17 C    1.084    13 C    0.941    39 H    0.919
                            18 O    0.108
    17   6 C    3.749 --    18 O    1.437    19 C    1.160    16 N    1.084
    18   8 O    1.681 --    17 C    1.437    16 N    0.108
    19   6 C    3.691 --    20 N    1.395    17 C    1.160    24 O    0.966
    20   7 N    2.720 --    19 C    1.395    21 N    1.189
    21   7 N    2.981 --    22 C    1.628    20 N    1.189
    22   6 C    3.811 --    21 N    1.628    24 O    1.040    23 C    1.024
    23   6 C    3.994 --    22 C    1.024    42 H    0.986    40 H    0.972
                            41 H    0.970
    24   8 O    2.176 --    22 C    1.040    19 C    0.966
    25   7 N    2.955 --    12 C    1.613     5 C    1.110    11 N    0.102
    26   1 H    1.021 --     1 C    0.980
    27   1 H    1.021 --     1 C    0.987
    28   1 H    1.021 --     1 C    0.980
    29   1 H    1.013 --    10 C    0.983
    30   1 H    1.039 --    10 C    0.978
    31   1 H    1.020 --    10 C    0.987
    32   1 H    0.960 --    11 N    0.907
    33   1 H    1.009 --    14 C    0.988
    34   1 H    1.023 --    14 C    0.980
    35   1 H    1.010 --    14 C    0.987
    36   1 H    1.023 --    15 C    0.984
    37   1 H    1.016 --    15 C    0.985
    38   1 H    1.010 --    15 C    0.987
    39   1 H    0.965 --    16 N    0.919
    40   1 H    1.001 --    23 C    0.972
    41   1 H    1.001 --    23 C    0.970
    42   1 H    1.004 --    23 C    0.986
 ---------------------------------------------------------------------------

           -------------------------------------------------
          | TOTAL ENERGY              -83.592791918363 Eh   |
          | GRADIENT NORM               0.000440249011 Eh/α |
          | HOMO-LUMO GAP               0.034696704623 eV   |
           -------------------------------------------------

 * finished run on 2023/06/21 at 17:25:54.886
