                         Program Version 5.0.1 -  RELEASE  -
|  1> # ORCA input file
|  2> ! SP r2SCAN-3c CPCM
|  3>
|  4> %maxcore 1875.0
|  5> %pal nprocs 4 end
|  6> %cpcm smd true SMDsolvent "DMSO" end
|  7>
|  8> *xyz 0 1
|  9> C       4.218039    2.828071    2.301773
| 10> O       4.096088    1.975793    1.161382
| 11> C       2.935494    1.335384    1.026899
| 12> O       2.017849    1.435856    1.828311
| 13> C       2.827867    0.496140   -0.161632
| 14> N       1.592827   -0.130412   -0.230507
| 15> C       1.182280   -0.904170   -1.195054
| 16> C      -0.163112   -1.599745   -1.112608
| 17> C       0.115421   -3.009703   -0.569558
| 18> C      -0.824935   -1.733823   -2.493770
| 19> N      -1.032783   -0.761634   -0.262593
| 20> C      -1.363753    0.546978   -0.837658
| 21> C      -1.593358   -1.181183    0.903107
| 22> O      -1.270446   -2.193549    1.505173
| 23> C      -2.661721   -0.335986    1.508438
| 24> N      -3.026497   -0.441026    2.750297
| 25> N      -4.071258    0.410581    2.933718
| 26> C      -4.294208    0.977752    1.789796
| 27> C      -5.331001    1.979302    1.459833
| 28> O      -3.437871    0.550276    0.847184
| 29> N       2.039998   -1.150856   -2.204479
| 30> C       3.331019   -0.625741   -2.310076
| 31> O       4.006629   -0.919942   -3.272196
| 32> C       3.785217    0.291007   -1.185038
| 33> O       4.912515    0.781022   -1.233818
| 34> H       4.118305    2.246188    3.221536
| 35> H       5.205561    3.282776    2.248274
| 36> H       3.444400    3.599523    2.278907
| 37> H       0.650362   -2.973513    0.376623
| 38> H       0.735385   -3.528550   -1.300101
| 39> H      -0.813626   -3.560666   -0.445877
| 40> H      -1.854170   -2.062116   -2.361042
| 41> H      -0.820936   -0.791581   -3.036072
| 42> H      -0.299610   -2.478642   -3.088128
| 43> H       0.962090    0.073040    0.544522
| 44> H      -0.585445    0.825261   -1.544007
| 45> H      -1.395058    1.293382   -0.046975
| 46> H      -2.324302    0.508646   -1.350166
| 47> H      -5.906013    2.217900    2.351463
| 48> H      -5.995353    1.587543    0.689845
| 49> H      -4.863951    2.883813    1.071227
| 50> H       1.752059   -1.743397   -2.967717
| 51> **                         ****END OF INPUT****

CARTESIAN COORDINATES (ANGSTROEM)
---------------------------------
  C      4.218039    2.828071    2.301773
  O      4.096088    1.975793    1.161382
  C      2.935494    1.335384    1.026899
  O      2.017849    1.435856    1.828311
  C      2.827867    0.496140   -0.161632
  N      1.592827   -0.130412   -0.230507
  C      1.182280   -0.904170   -1.195054
  C     -0.163112   -1.599745   -1.112608
  C      0.115421   -3.009703   -0.569558
  C     -0.824935   -1.733823   -2.493770
  N     -1.032783   -0.761634   -0.262593
  C     -1.363753    0.546978   -0.837658
  C     -1.593358   -1.181183    0.903107
  O     -1.270446   -2.193549    1.505173
  C     -2.661721   -0.335986    1.508438
  N     -3.026497   -0.441026    2.750297
  N     -4.071258    0.410581    2.933718
  C     -4.294208    0.977752    1.789796
  C     -5.331001    1.979302    1.459833
  O     -3.437871    0.550276    0.847184
  N      2.039998   -1.150856   -2.204479
  C      3.331019   -0.625741   -2.310076
  O      4.006629   -0.919942   -3.272196
  C      3.785217    0.291007   -1.185038
  O      4.912515    0.781022   -1.233818
  H      4.118305    2.246188    3.221536
  H      5.205561    3.282776    2.248274
  H      3.444400    3.599523    2.278907
  H      0.650362   -2.973513    0.376623
  H      0.735385   -3.528550   -1.300101
  H     -0.813626   -3.560666   -0.445877
  H     -1.854170   -2.062116   -2.361042
  H     -0.820936   -0.791581   -3.036072
  H     -0.299610   -2.478642   -3.088128
  H      0.962090    0.073040    0.544522
  H     -0.585445    0.825261   -1.544007
  H     -1.395058    1.293382   -0.046975
  H     -2.324302    0.508646   -1.350166
  H     -5.906013    2.217900    2.351463
  H     -5.995353    1.587543    0.689845
  H     -4.863951    2.883813    1.071227
  H      1.752059   -1.743397   -2.967717

 Total Charge           Charge          ....    0
 Multiplicity           Mult            ....    1
 Number of Electrons    NEL             ....  184
 Basis Dimension        Dim             ....  615

ORBITAL ENERGIES
----------------

  NO   OCC          E(Eh)            E(eV)
   0   2.0000     -19.063610      -518.7472
   1   2.0000     -18.995372      -516.8904
   2   2.0000     -18.939340      -515.3656
   3   2.0000     -18.933006      -515.1933
   4   2.0000     -18.931172      -515.1434
   5   2.0000     -18.906634      -514.4757
   6   2.0000     -14.249819      -387.7573
   7   2.0000     -14.237238      -387.4149
   8   2.0000     -14.219317      -386.9273
   9   2.0000     -14.203047      -386.4846
  10   2.0000     -14.196525      -386.3071
  11   2.0000     -10.160994      -276.4947
  12   2.0000     -10.157430      -276.3977
  13   2.0000     -10.152564      -276.2653
  14   2.0000     -10.147962      -276.1401
  15   2.0000     -10.145988      -276.0864
  16   2.0000     -10.143622      -276.0220
  17   2.0000     -10.123551      -275.4758
  18   2.0000     -10.106182      -275.0032
  19   2.0000     -10.078073      -274.2383
  20   2.0000     -10.074067      -274.1293
  21   2.0000     -10.064657      -273.8732
  22   2.0000     -10.045194      -273.3436
  23   2.0000     -10.031719      -272.9770
  24   2.0000     -10.027721      -272.8682
  25   2.0000      -1.153739       -31.3948
  26   2.0000      -1.071702       -29.1625
  27   2.0000      -1.038794       -28.2670
  28   2.0000      -1.025262       -27.8988
  29   2.0000      -1.002109       -27.2688
  30   2.0000      -0.978353       -26.6223
  31   2.0000      -0.974495       -26.5173
  32   2.0000      -0.973172       -26.4814
  33   2.0000      -0.928460       -25.2647
  34   2.0000      -0.912777       -24.8379
  35   2.0000      -0.831155       -22.6169
  36   2.0000      -0.794972       -21.6323
  37   2.0000      -0.749123       -20.3847
  38   2.0000      -0.714568       -19.4444
  39   2.0000      -0.695920       -18.9369
  40   2.0000      -0.693259       -18.8645
  41   2.0000      -0.671080       -18.2610
  42   2.0000      -0.663416       -18.0525
  43   2.0000      -0.657299       -17.8860
  44   2.0000      -0.641572       -17.4581
  45   2.0000      -0.613413       -16.6918
  46   2.0000      -0.599219       -16.3056
  47   2.0000      -0.564932       -15.3726
  48   2.0000      -0.552372       -15.0308
  49   2.0000      -0.533250       -14.5105
  50   2.0000      -0.529955       -14.4208
  51   2.0000      -0.502027       -13.6609
  52   2.0000      -0.495084       -13.4719
  53   2.0000      -0.488447       -13.2913
  54   2.0000      -0.473144       -12.8749
  55   2.0000      -0.465530       -12.6677
  56   2.0000      -0.463135       -12.6025
  57   2.0000      -0.455098       -12.3839
  58   2.0000      -0.445297       -12.1171
  59   2.0000      -0.439880       -11.9697
  60   2.0000      -0.433389       -11.7931
  61   2.0000      -0.423850       -11.5336
  62   2.0000      -0.409716       -11.1490
  63   2.0000      -0.407948       -11.1008
  64   2.0000      -0.406013       -11.0482
  65   2.0000      -0.395634       -10.7658
  66   2.0000      -0.393652       -10.7118
  67   2.0000      -0.383336       -10.4311
  68   2.0000      -0.382008       -10.3950
  69   2.0000      -0.380148       -10.3444
  70   2.0000      -0.378132       -10.2895
  71   2.0000      -0.373648       -10.1675
  72   2.0000      -0.370337       -10.0774
  73   2.0000      -0.360164        -9.8006
  74   2.0000      -0.356100        -9.6900
  75   2.0000      -0.353136        -9.6093
  76   2.0000      -0.344199        -9.3661
  77   2.0000      -0.339869        -9.2483
  78   2.0000      -0.338109        -9.2004
  79   2.0000      -0.327489        -8.9114
  80   2.0000      -0.319368        -8.6905
  81   2.0000      -0.312777        -8.5111
  82   2.0000      -0.288813        -7.8590
  83   2.0000      -0.271435        -7.3861
  84   2.0000      -0.267051        -7.2668
  85   2.0000      -0.262342        -7.1387
  86   2.0000      -0.261159        -7.1065
  87   2.0000      -0.248030        -6.7492
  88   2.0000      -0.239496        -6.5170
  89   2.0000      -0.238293        -6.4843
  90   2.0000      -0.204969        -5.5775
  91   2.0000      -0.189951        -5.1688
  92   0.0000      -0.087677        -2.3858
  93   0.0000      -0.081468        -2.2168
  94   0.0000      -0.059601        -1.6218
  95   0.0000      -0.020683        -0.5628
  96   0.0000       0.017111         0.4656

MULLIKEN ATOMIC CHARGES
-----------------------
   0 C :   -0.321212
   1 O :   -0.161154
   2 C :    0.218351
   3 O :   -0.478591
   4 C :   -0.044439
   5 N :    0.048045
   6 C :    0.169500
   7 C :   -0.152591
   8 C :   -0.538409
   9 C :   -0.495888
  10 N :    0.168306
  11 C :   -0.449998
  12 C :   -0.110644
  13 O :   -0.420235
  14 C :    0.378367
  15 N :   -0.162375
  16 N :   -0.278822
  17 C :    0.390656
  18 C :   -0.638098
  19 O :   -0.046857
  20 N :    0.013347
  21 C :    0.090564
  22 O :   -0.363555
  23 C :   -0.025337
  24 O :   -0.359682
  25 H :    0.173080
  26 H :    0.174799
  27 H :    0.173128
  28 H :    0.207895
  29 H :    0.187269
  30 H :    0.198900
  31 H :    0.208573
  32 H :    0.197396
  33 H :    0.193865
  34 H :    0.337768
  35 H :    0.193541
  36 H :    0.191157
  37 H :    0.201261
  38 H :    0.204983
  39 H :    0.201474
  40 H :    0.200294
  41 H :    0.325368
Sum of atomic charges:   -0.0000000

LOEWDIN ATOMIC CHARGES
----------------------
   0 C :   -0.041083
   1 O :   -0.573522
   2 C :    0.396196
   3 O :   -0.473205
   4 C :    0.169132
   5 N :   -0.502241
   6 C :    0.386129
   7 C :    0.117527
   8 C :   -0.320575
   9 C :   -0.339989
  10 N :   -0.764045
  11 C :   -0.079687
  12 C :    0.399901
  13 O :   -0.460393
  14 C :    0.414524
  15 N :   -0.336319
  16 N :   -0.358855
  17 C :    0.378496
  18 C :   -0.317698
  19 O :   -0.407270
  20 N :   -0.428579
  21 C :    0.382930
  22 O :   -0.413895
  23 C :    0.247837
  24 O :   -0.520228
  25 H :    0.179943
  26 H :    0.184488
  27 H :    0.180456
  28 H :    0.185823
  29 H :    0.171798
  30 H :    0.185023
  31 H :    0.184548
  32 H :    0.178427
  33 H :    0.176669
  34 H :    0.329702
  35 H :    0.201656
  36 H :    0.205283
  37 H :    0.194140
  38 H :    0.191093
  39 H :    0.191825
  40 H :    0.191411
  41 H :    0.312625

  Mayer bond orders larger than 0.100000
B(  0-C ,  1-O ) :   0.8315 B(  0-C , 25-H ) :   0.9580 B(  0-C , 26-H ) :   0.9647
B(  0-C , 27-H ) :   0.9582 B(  1-O ,  2-C ) :   1.1914 B(  2-C ,  3-O ) :   1.7704
B(  2-C ,  4-C ) :   1.1341 B(  4-C ,  5-N ) :   1.0451 B(  4-C , 23-C ) :   0.9752
B(  5-N ,  6-C ) :   1.4931 B(  5-N , 20-N ) :   0.1208 B(  5-N , 34-H ) :   0.8560
B(  6-C ,  7-C ) :   0.7785 B(  6-C ,  9-C ) :  -0.1252 B(  6-C , 20-N ) :   1.2204
B(  7-C ,  8-C ) :   0.9651 B(  7-C ,  9-C ) :   1.0505 B(  7-C , 10-N ) :   0.8730
B(  8-C , 28-H ) :   0.9587 B(  8-C , 29-H ) :   0.9306 B(  8-C , 30-H ) :   0.9576
B(  9-C , 31-H ) :   0.9696 B(  9-C , 32-H ) :   0.9323 B(  9-C , 33-H ) :   0.9460
B( 10-N , 11-C ) :   0.9139 B( 10-N , 12-C ) :   1.2051 B( 11-C , 35-H ) :   0.9226
B( 11-C , 36-H ) :   0.9317 B( 11-C , 37-H ) :   0.9395 B( 12-C , 13-O ) :   1.8425
B( 12-C , 14-C ) :   0.8365 B( 14-C , 15-N ) :   1.6706 B( 14-C , 17-C ) :   0.1093
B( 14-C , 19-O ) :   1.0838 B( 15-N , 16-N ) :   1.2739 B( 16-N , 17-C ) :   1.6306
B( 17-C , 18-C ) :   0.8258 B( 17-C , 19-O ) :   1.0638 B( 18-C , 38-H ) :   0.9893
B( 18-C , 39-H ) :   0.9422 B( 18-C , 40-H ) :   0.9429 B( 20-N , 21-C ) :   0.9154
B( 20-N , 41-H ) :   0.8802 B( 21-C , 22-O ) :   2.0807 B( 21-C , 23-C ) :   0.8556
B( 23-C , 24-O ) :   1.9516

Dispersion correction           -0.019597203
FINAL SINGLE POINT ENERGY     -1268.640856278217

DIPOLE MOMENT
-------------
                                X             Y             Z
Electronic contribution:      8.16361      -1.35214       2.45077
Nuclear contribution   :    -12.86105       1.89323      -5.01015
                        -----------------------------------------
Total Dipole Moment    :     -4.69745       0.54109      -2.55938
                        -----------------------------------------
Magnitude (a.u.)       :      5.37673
Magnitude (Debye)      :     13.66656

Rotational constants in cm-1:     0.011251     0.004430     0.003576
Rotational constants in MHz :   337.301476   132.799858   107.193120

                             ****ORCA TERMINATED NORMALLY****
TOTAL RUN TIME: 0 days 0 hours 1 minutes 55 seconds 144 msec
