   * xtb version 6.5.1 (579679a) compiled by 'ehlert@majestix' on 2022-07-11
          program call               : /lustre/hpc/kemi/ree/PhD/git/ReactivityQM/dep/xtb-6.5.1/bin/xtb --gfn 1 /lustre/hpc/kemi/ree/PhD/git/ReactivityQM/calculations/R02oxygendeprot/reac01prodN17/conf12/R02oxygendeprot_reac01prodN17_conf12_gfn1.xyz --opt --vfukui --chrg 0 --uhf 0 --alpb DMSO

   ID    Z sym.   atoms
    1    6 C      1, 3, 5, 7-10, 12, 13, 15, 18, 19, 22, 24
    2    8 O      2, 4, 14, 20, 23, 25
    3    7 N      6, 11, 16, 17, 21
    4    1 H      26-42

      * Solvation model:               ALPB
        Solvent                        DMSO
        Solvent mass                       7.8130E+01 g/mol
          :  Hamiltonian                  GFN1-xTB          :
 * total energy  :   -82.9326073 Eh     change       -0.9858070E-10 Eh
 * total energy  :   -82.9450521 Eh     change       -0.1244477E-01 Eh
 * total energy  :   -82.9492580 Eh     change       -0.4205840E-02 Eh
 * total energy  :   -82.9498012 Eh     change       -0.5432296E-03 Eh
 * total energy  :   -82.9500621 Eh     change       -0.2608834E-03 Eh
 * total energy  :   -82.9501997 Eh     change       -0.1375871E-03 Eh
 * total energy  :   -82.9503410 Eh     change       -0.1413084E-03 Eh
 * total energy  :   -82.9504565 Eh     change       -0.1155439E-03 Eh
 * total energy  :   -82.9505484 Eh     change       -0.9193926E-04 Eh
 * total energy  :   -82.9506171 Eh     change       -0.6862364E-04 Eh
 * total energy  :   -82.9994742 Eh     change       -0.9240756E-05 Eh
 * total energy  :   -82.9994893 Eh     change       -0.1505472E-04 Eh
 * total energy  :   -82.9994969 Eh     change       -0.7621759E-05 Eh
 * total energy  :   -82.9995121 Eh     change       -0.1516037E-04 Eh
 * total energy  :   -82.9995212 Eh     change       -0.9126054E-05 Eh
 * total energy  :   -82.9995267 Eh     change       -0.5562911E-05 Eh
 * total energy  :   -82.9995338 Eh     change       -0.7028834E-05 Eh
 * total energy  :   -82.9995388 Eh     change       -0.5054437E-05 Eh
 * total energy  :   -82.9995433 Eh     change       -0.4447118E-05 Eh
   *** GEOMETRY OPTIMIZATION CONVERGED AFTER 155 ITERATIONS ***

 final structure:
================
42
 xtb: 6.5.1 (579679a)
C            4.21803908065611        2.82807068319190        2.30177275841235
O            4.09608830167594        1.97579277150131        1.16138209459293
C            2.93549375577463        1.33538382510751        1.02689911082797
O            2.01784866019242        1.43585583177455        1.82831072520054
C            2.82786676712804        0.49613986649775       -0.16163240358019
N            1.59282666968692       -0.13041166755795       -0.23050668465091
C            1.18227989836447       -0.90416997099072       -1.19505361319745
C           -0.16311150641950       -1.59974502054065       -1.11260825619291
C            0.11542104694930       -3.00970283780798       -0.56955782176507
C           -0.82493455985303       -1.73382276469522       -2.49377029669306
N           -1.03278271400212       -0.76163361826075       -0.26259291488212
C           -1.36375309949996        0.54697754268125       -0.83765820702506
C           -1.59335766812538       -1.18118306367944        0.90310737430344
O           -1.27044570708404       -2.19354905276172        1.50517304446965
C           -2.66172101456940       -0.33598555435822        1.50843820880920
N           -3.02649702472894       -0.44102575143953        2.75029700059683
N           -4.07125822593963        0.41058096413705        2.93371822160479
C           -4.29420767612125        0.97775239442129        1.78979568311320
C           -5.33100087713466        1.97930202655662        1.45983287595815
O           -3.43787117384457        0.55027612857682        0.84718383624325
N            2.03999793192090       -1.15085583759874       -2.20447902393552
C            3.33101857759177       -0.62574149393003       -2.31007636984028
O            4.00662857272350       -0.91994209664452       -3.27219590125958
C            3.78521716133891        0.29100728935167       -1.18503821114169
O            4.91251535116315        0.78102225332776       -1.23381764871543
H            4.11830483038796        2.24618786610439        3.22153615715069
H            5.20556085420805        3.28277561657268        2.24827423436939
H            3.44440036695057        3.59952337507654        2.27890702676468
H            0.65036234284864       -2.97351293841982        0.37662299344006
H            0.73538511776151       -3.52855023490666       -1.30010083587795
H           -0.81362594644468       -3.56066555296786       -0.44587700633250
H           -1.85417004523427       -2.06211649279896       -2.36104177726945
H           -0.82093649832021       -0.79158074994063       -3.03607221382932
H           -0.29961045912448       -2.47864214676309       -3.08812834472056
H            0.96209030191497        0.07304043013693        0.54452233061975
H           -0.58544526704812        0.82526115718738       -1.54400664767365
H           -1.39505836900911        1.29338199027847       -0.04697521301253
H           -2.32430205273224        0.50864571981949       -1.35016568548524
H           -5.90601298757877        2.21790024162224        2.35146339421591
H           -5.99535327472368        1.58754289407135        0.68984482071481
H           -4.86395061407253        2.88381277741196        1.07122689298654
H            1.75205917243923       -1.74339679935748       -2.96771670733424

          :  Hamiltonian                  GFN1-xTB          :
         :: total energy             -82.999543274099 Eh    ::
         :: gradient norm              0.000725370376 Eh/a0 ::
         :: HOMO-LUMO gap              2.603977174785 eV    ::
         :: SCC energy               -83.783106955040 Eh    ::
         :: -> Gsolv                  -0.073665412243 Eh    ::
         :: repulsion energy           0.810772566482 Eh    ::

    * Orbital Energies and Occupations

         #    Occupation            Energy/Eh            Energy/eV
      -------------------------------------------------------------
         1        2.0000           -0.8671635             -23.5967
       ...           ...                  ...                  ...
        55        2.0000           -0.5115109             -13.9189
        56        2.0000           -0.5054277             -13.7534
        57        2.0000           -0.5053185             -13.7504
        58        2.0000           -0.4958948             -13.4940
        59        2.0000           -0.4920973             -13.3906
        60        2.0000           -0.4799606             -13.0604
        61        2.0000           -0.4781527             -13.0112
        62        2.0000           -0.4674172             -12.7191
        63        2.0000           -0.4580030             -12.4629
        64        2.0000           -0.4534605             -12.3393
        65        2.0000           -0.4472960             -12.1715
        66        2.0000           -0.4297765             -11.6948
        67        2.0000           -0.4178912             -11.3714 (HOMO)
        68                         -0.3221968              -8.7674 (LUMO)
        69                         -0.3122362              -8.4964
        70                         -0.3060603              -8.3283
        71                         -0.2574496              -7.0056
        72                         -0.2395908              -6.5196
        73                         -0.2101176              -5.7176
        74                         -0.1603543              -4.3635
        75                         -0.1501807              -4.0866
        76                         -0.1443866              -3.9290
        77                         -0.1422234              -3.8701
        78                         -0.1349990              -3.6735
       ...                                ...                  ...
       134                          0.7540772              20.5195
      -------------------------------------------------------------
                  HL-Gap            0.0956944 Eh            2.6040 eV

Wiberg/Mayer (AO) data.
largest (>0.10) Wiberg bond orders for each atom

     #   Z sym  total        # sym  WBO       # sym  WBO       # sym  WBO
 ---------------------------------------------------------------------------
     1   6 C    3.875 --    27 H    0.986    26 H    0.980    28 H    0.980
                             2 O    0.901
     2   8 O    2.197 --     3 C    1.106     1 C    0.901     4 O    0.120
     3   6 C    3.868 --     4 O    1.578     2 O    1.106     5 C    1.088
     4   8 O    1.888 --     3 C    1.578     2 O    0.120
     5   6 C    3.859 --    24 C    1.260     3 C    1.088     6 N    1.070
                            25 O    0.132
     6   7 N    3.563 --     7 C    1.434     5 C    1.070    35 H    0.862
     7   6 C    3.912 --     6 N    1.434    21 N    1.219     8 C    0.975
     8   6 C    3.935 --    10 C    0.985     7 C    0.975     9 C    0.973
                            11 N    0.925
     9   6 C    3.979 --    30 H    0.982    29 H    0.981    31 H    0.977
                             8 C    0.973
    10   6 C    3.985 --     8 C    0.985    33 H    0.982    32 H    0.981
                            34 H    0.979
    11   7 N    3.366 --    13 C    1.236    12 C    0.935     8 C    0.925
                            14 O    0.171
    12   6 C    3.934 --    36 H    0.983    37 H    0.981    38 H    0.978
                            11 N    0.935
    13   6 C    3.915 --    14 O    1.583    11 N    1.236    15 C    0.990
    14   8 O    1.909 --    13 C    1.583    11 N    0.171
    15   6 C    3.875 --    16 N    1.622    20 O    1.048    13 C    0.990
    16   7 N    3.001 --    15 C    1.622    17 N    1.203
    17   7 N    2.983 --    18 C    1.609    16 N    1.203
    18   6 C    3.868 --    17 N    1.609    20 O    1.071    19 C    1.031
    19   6 C    3.986 --    18 C    1.031    39 H    0.982    41 H    0.964
                            40 H    0.962
    20   8 O    2.321 --    18 C    1.071    15 C    1.048
    21   7 N    3.452 --     7 C    1.219    22 C    1.079    42 H    0.879
                            23 O    0.116
    22   6 C    3.863 --    23 O    1.673    21 N    1.079    24 C    0.946
    23   8 O    1.940 --    22 C    1.673    21 N    0.116
    24   6 C    3.944 --    25 O    1.577     5 C    1.260    22 C    0.946
    25   8 O    1.885 --    24 C    1.577     5 C    0.132
    26   1 H    1.008 --     1 C    0.980
    27   1 H    1.011 --     1 C    0.986
    28   1 H    1.008 --     1 C    0.980
    29   1 H    1.013 --     9 C    0.981
    30   1 H    1.001 --     9 C    0.982
    31   1 H    1.004 --     9 C    0.977
    32   1 H    0.996 --    10 C    0.981
    33   1 H    0.998 --    10 C    0.982
    34   1 H    0.997 --    10 C    0.979
    35   1 H    0.938 --     6 N    0.862
    36   1 H    1.003 --    12 C    0.983
    37   1 H    1.005 --    12 C    0.981
    38   1 H    1.006 --    12 C    0.978
    39   1 H    0.998 --    19 C    0.982
    40   1 H    0.996 --    19 C    0.962
    41   1 H    0.996 --    19 C    0.964
    42   1 H    0.926 --    21 N    0.879
 ---------------------------------------------------------------------------

           -------------------------------------------------
          | TOTAL ENERGY              -82.999543274099 Eh   |
          | GRADIENT NORM               0.000725370376 Eh/α |
          | HOMO-LUMO GAP               2.603977174785 eV   |
           -------------------------------------------------

 * finished run on 2023/06/21 at 17:37:33.403
