   * xtb version 6.5.1 (579679a) compiled by 'ehlert@majestix' on 2022-07-11
          program call               : /lustre/hpc/kemi/ree/PhD/git/ReactivityQM/dep/xtb-6.5.1/bin/xtb --gfn 1 /lustre/hpc/kemi/ree/PhD/git/ReactivityQM/calculations/R02deprot/reac01prodE03/conf10/R02deprot_reac01prodE03_conf10_gfn1.xyz --opt --vfukui --chrg -2 --uhf 0 --alpb DMSO

   ID    Z sym.   atoms
    1    6 C      1, 3, 5, 6, 8-11, 13, 15, 18, 19, 22, 24
    2    8 O      2, 4, 14, 20, 23, 25
    3    7 N      7, 12, 16, 17, 21
    4    1 H      26-42

      * Solvation model:               ALPB
        Solvent                        DMSO
        Solvent mass                       7.8130E+01 g/mol
          :  Hamiltonian                  GFN1-xTB          :
 * total energy  :   -83.5511039 Eh     change       -0.2372175E-08 Eh
 * total energy  :   -83.5636647 Eh     change       -0.1256084E-01 Eh
 * total energy  :   -83.5688170 Eh     change       -0.5152309E-02 Eh
 * total energy  :   -83.5700517 Eh     change       -0.1234702E-02 Eh
 * total energy  :   -83.5709497 Eh     change       -0.8979840E-03 Eh
 * total energy  :   -83.5714981 Eh     change       -0.5484087E-03 Eh
 * total energy  :   -83.5719984 Eh     change       -0.5002805E-03 Eh
 * total energy  :   -83.5724262 Eh     change       -0.4277543E-03 Eh
 * total energy  :   -83.5727755 Eh     change       -0.3493549E-03 Eh
 * total energy  :   -83.5731003 Eh     change       -0.3248389E-03 Eh
 * total energy  :   -83.5795785 Eh     change       -0.1332487E-04 Eh
 * total energy  :   -83.5795910 Eh     change       -0.1250959E-04 Eh
 * total energy  :   -83.5796026 Eh     change       -0.1162024E-04 Eh
 * total energy  :   -83.5796136 Eh     change       -0.1100011E-04 Eh
 * total energy  :   -83.5796251 Eh     change       -0.1144376E-04 Eh
 * total energy  :   -83.5796377 Eh     change       -0.1266132E-04 Eh
 * total energy  :   -83.5796486 Eh     change       -0.1089088E-04 Eh
 * total energy  :   -83.5796578 Eh     change       -0.9199406E-05 Eh
 * total energy  :   -83.5796609 Eh     change       -0.3113807E-05 Eh
   *** GEOMETRY OPTIMIZATION CONVERGED AFTER 94 ITERATIONS ***

 final structure:
================
42
 xtb: 6.5.1 (579679a)
C           -6.12242171501769        1.39979815496348        0.37938943044437
O           -5.18128695321412        0.34357161723231        0.49341381370596
C           -3.96392101267534        0.57438162337828       -0.18597141889636
O           -4.11020978749838        0.70217805424323       -1.57115503805165
C           -4.01804290489075       -0.50916986685661       -2.31642840943730
C           -2.72870536270600        0.34963034724786        0.41067952840292
N           -1.62855117533915        0.37824246579407       -0.44083519770298
C           -0.44189201445632        0.21535777394540        0.10885013739885
C            0.73063790693535        0.24289087798670       -0.88368616116666
C            0.51640963478111       -0.84624056174174       -1.94573050470037
C            0.79555671281999        1.62705352392890       -1.54796557425031
N            1.94990449723335       -0.01383564250661       -0.13021768522967
C            3.18826003935633       -0.13883040756072       -0.65654711380557
O            3.46532693707122        0.02234638559458       -1.85605128305730
C            4.17801756606571       -0.48324851302581        0.36212837923001
N            3.95333135966934       -0.63704033938273        1.65269367751733
N            5.14850344247002       -0.98187798825622        2.22072038386863
C            6.02193149441986       -1.02048228443479        1.26774054252636
C            7.46058772132014       -1.35846081583353        1.38391411284940
O            5.49322766582119       -0.71587645557905        0.06410093726159
N           -0.13769259333644        0.03628621616384        1.38055779835117
C           -1.17365719890812        0.00404476373737        2.31291175305282
O           -0.90306845530892       -0.15755734170286        3.53707911429096
C           -2.48803505259315        0.16125633599839        1.79381226418345
O           -3.54397815987872        0.13574048926296        2.72091567543399
H           -5.75655154389115        2.31547765007618        0.86333741381699
H           -7.04063284019919        1.07544040349148        0.87129874910643
H           -6.33998646568959        1.61839320941402       -0.67284639122768
H           -4.23479992129900       -0.26741790110383       -3.35924512692641
H           -3.00682235596586       -0.93393657112308       -2.24684602910217
H           -4.74451508020067       -1.25214372448460       -1.96346451129102
H           -0.46577046190591       -0.70743561921424       -2.39795814300945
H            0.55349989605302       -1.83284886526013       -1.48315621141070
H            1.27691220514824       -0.79145734347124       -2.72371798803905
H            1.56964828577760        1.65505017926202       -2.31435751441591
H           -0.16897149832391        1.84452794400826       -2.00714024655660
H            1.01073719505019        2.39217585417392       -0.80131405398486
H            1.80292004690682       -0.18770501363976        0.86723303138064
H            7.70747139274408       -1.54170518171077        2.42662483476822
H            7.68717612956325       -2.24947664519179        0.79844082832409
H            8.07422932394691       -0.54198425320188        1.00436937877199
H           -4.38477489984809        0.07488946538929        2.24211981759865

          :  Hamiltonian                  GFN1-xTB          :
         :: total energy             -83.579660923079 Eh    ::
         :: gradient norm              0.000263670030 Eh/a0 ::
         :: HOMO-LUMO gap              0.081886343707 eV    ::
         :: SCC energy               -84.301334413520 Eh    ::
         :: -> Gsolv                  -0.277593610707 Eh    ::
         :: repulsion energy           0.747080905676 Eh    ::

    * Orbital Energies and Occupations

         #    Occupation            Energy/Eh            Energy/eV
      -------------------------------------------------------------
         1        2.0000           -0.8208334             -22.3360
       ...           ...                  ...                  ...
        56        2.0000           -0.4270189             -11.6198
        57        2.0000           -0.4256048             -11.5813
        58        2.0000           -0.4213086             -11.4644
        59        2.0000           -0.4196589             -11.4195
        60        2.0000           -0.4158909             -11.3170
        61        2.0000           -0.4065706             -11.0633
        62        2.0000           -0.3950360             -10.7495
        63        2.0000           -0.3855726             -10.4920
        64        2.0000           -0.3789042             -10.3105
        65        2.0000           -0.3516466              -9.5688
        66        2.0000           -0.3278004              -8.9199
        67        2.0000           -0.3228483              -8.7851
        68        1.6595           -0.2743451              -7.4653 (HOMO)
        69        0.3405           -0.2713359              -7.3834 (LUMO)
        70                         -0.2241093              -6.0983
        71                         -0.1786111              -4.8603
        72                         -0.1612184              -4.3870
        73                         -0.1517749              -4.1300
        74                         -0.1304197              -3.5489
        75                         -0.1070489              -2.9129
        76                         -0.1057281              -2.8770
        77                         -0.0914359              -2.4881
        78                         -0.0882141              -2.4004
        79                         -0.0631455              -1.7183
       ...                                ...                  ...
       134                          0.7073250              19.2473
      -------------------------------------------------------------
                  HL-Gap            0.0030093 Eh            0.0819 eV

Wiberg/Mayer (AO) data.
largest (>0.10) Wiberg bond orders for each atom

     #   Z sym  total        # sym  WBO       # sym  WBO       # sym  WBO
 ---------------------------------------------------------------------------
     1   6 C    3.917 --    27 H    0.986    28 H    0.982    26 H    0.982
                             2 O    0.943
     2   8 O    2.026 --     1 C    0.943     3 C    0.911
     3   6 C    3.469 --     6 C    1.394     4 O    0.938     2 O    0.911
     4   8 O    2.000 --     3 C    0.938     5 C    0.935
     5   6 C    3.914 --    29 H    0.986    31 H    0.983    30 H    0.979
                             4 O    0.935
     6   6 C    3.966 --     3 C    1.394    24 C    1.255     7 N    1.134
     7   7 N    2.945 --     8 C    1.444     6 C    1.134    21 N    0.123
     8   6 C    3.960 --     7 N    1.444    21 N    1.416     9 C    0.957
     9   6 C    3.930 --    10 C    0.986    11 C    0.985     8 C    0.957
                            12 N    0.932
    10   6 C    3.994 --    33 H    0.987     9 C    0.986    34 H    0.984
                            32 H    0.983
    11   6 C    3.994 --    37 H    0.987    36 H    0.986     9 C    0.985
                            35 H    0.985
    12   7 N    3.293 --    13 C    1.234     9 C    0.932    38 H    0.877
                            14 O    0.157
    13   6 C    3.839 --    14 O    1.480    12 N    1.234    15 C    1.055
    14   8 O    1.758 --    13 C    1.480    12 N    0.157
    15   6 C    3.734 --    16 N    1.494    13 C    1.055    20 O    1.008
    16   7 N    2.847 --    15 C    1.494    17 N    1.185
    17   7 N    2.980 --    18 C    1.626    16 N    1.185
    18   6 C    3.840 --    17 N    1.626    20 O    1.062    19 C    1.026
    19   6 C    3.992 --    18 C    1.026    39 H    0.985    41 H    0.970
                            40 H    0.968
    20   8 O    2.233 --    18 C    1.062    15 C    1.008
    21   7 N    2.947 --     8 C    1.416    22 C    1.122     7 N    0.123
    22   6 C    3.911 --    23 O    1.405    24 C    1.253    21 N    1.122
    23   8 O    1.662 --    22 C    1.405
    24   6 C    3.717 --     6 C    1.255    22 C    1.253    25 O    0.963
    25   8 O    1.917 --    24 C    0.963    42 H    0.853
    26   1 H    1.018 --     1 C    0.982
    27   1 H    1.020 --     1 C    0.986
    28   1 H    1.024 --     1 C    0.982
    29   1 H    1.021 --     5 C    0.986
    30   1 H    1.036 --     5 C    0.979
    31   1 H    1.016 --     5 C    0.983
    32   1 H    1.026 --    10 C    0.983
    33   1 H    1.009 --    10 C    0.987
    34   1 H    1.017 --    10 C    0.984
    35   1 H    1.016 --    11 C    0.985
    36   1 H    1.021 --    11 C    0.986
    37   1 H    1.010 --    11 C    0.987
    38   1 H    1.000 --    12 N    0.877
    39   1 H    1.003 --    19 C    0.985
    40   1 H    1.000 --    19 C    0.968
    41   1 H    1.000 --    19 C    0.970
    42   1 H    0.907 --    25 O    0.853
 ---------------------------------------------------------------------------

           -------------------------------------------------
          | TOTAL ENERGY              -83.579660923079 Eh   |
          | GRADIENT NORM               0.000263670030 Eh/α |
          | HOMO-LUMO GAP               0.081886343707 eV   |
           -------------------------------------------------

 * finished run on 2023/06/20 at 17:35:16.206
