   * xtb version 6.5.1 (579679a) compiled by 'ehlert@majestix' on 2022-07-11
          program call               : /lustre/hpc/kemi/ree/PhD/git/ReactivityQM/dep/xtb-6.5.1/bin/xtb --gfn 1 /lustre/hpc/kemi/ree/PhD/git/ReactivityQM/calculations/R02methylcation/reac01prodN14/conf09/R02methylcation_reac01prodN14_conf09_gfn1.xyz --opt --vfukui --chrg 0 --uhf 0 --alpb DMSO

   ID    Z sym.   atoms
    1    6 C      1, 3, 5, 6, 8, 9, 12-15, 17, 19, 22, 23
    2    8 O      2, 4, 7, 10, 18, 24
    3    7 N      11, 16, 20, 21, 25
    4    1 H      26-42

      * Solvation model:               ALPB
        Solvent                        DMSO
        Solvent mass                       7.8130E+01 g/mol
          :  Hamiltonian                  GFN1-xTB          :
 * total energy  :   -82.8976168 Eh     change       -0.1318767E-10 Eh
 * total energy  :   -82.9134249 Eh     change       -0.1580810E-01 Eh
 * total energy  :   -82.9235284 Eh     change       -0.1010350E-01 Eh
 * total energy  :   -82.9260176 Eh     change       -0.2489160E-02 Eh
 * total energy  :   -82.9284609 Eh     change       -0.2443266E-02 Eh
 * total energy  :   -82.9299907 Eh     change       -0.1529840E-02 Eh
 * total energy  :   -82.9316700 Eh     change       -0.1679321E-02 Eh
 * total energy  :   -82.9329810 Eh     change       -0.1310960E-02 Eh
 * total energy  :   -82.9340232 Eh     change       -0.1042193E-02 Eh
 * total energy  :   -82.9347703 Eh     change       -0.7471661E-03 Eh
 * total energy  :   -82.9746374 Eh     change       -0.1213022E-04 Eh
 * total energy  :   -82.9746467 Eh     change       -0.9242948E-05 Eh
 * total energy  :   -82.9746573 Eh     change       -0.1066148E-04 Eh
 * total energy  :   -82.9746672 Eh     change       -0.9843789E-05 Eh
 * total energy  :   -82.9746767 Eh     change       -0.9545411E-05 Eh
 * total energy  :   -82.9746872 Eh     change       -0.1043922E-04 Eh
 * total energy  :   -82.9746967 Eh     change       -0.9524477E-05 Eh
 * total energy  :   -82.9747034 Eh     change       -0.6674534E-05 Eh
 * total energy  :   -82.9747074 Eh     change       -0.4059079E-05 Eh
   *** GEOMETRY OPTIMIZATION CONVERGED AFTER 79 ITERATIONS ***

 final structure:
================
42
 xtb: 6.5.1 (579679a)
C           -5.32082794347978        2.61466683285241        0.32930295353058
O           -4.18281990906389        1.82712424196039       -0.03799616649269
C           -4.42846091608897        0.57192925706806       -0.39808259261379
O           -5.53047937116476        0.07524320573255       -0.42167185503207
C           -3.17835288877269       -0.15068923091176       -0.75703723243391
C           -3.24309149196440       -1.38924603130003       -1.20324613912768
O           -3.35868737072641       -2.46854991583495       -1.60321048180912
C           -0.69310468242020       -2.23379310776730        0.09935583062959
C           -1.46265052494201       -1.84254343356214        1.32962022334629
O           -0.19283010300018       -3.32957027147813       -0.04206293092013
N           -0.57232055311465       -1.30296908845458       -0.91922466141163
C           -0.83073977766863        0.07526053615935       -0.80767104475725
C            0.35654583714057        1.00987471373408       -0.97133977275677
C            0.15458567278982        2.27506389679292       -0.13035718180343
C            0.48596077496080        1.36743170543835       -2.45660861373619
N            1.58396439301132        0.32385875981536       -0.57496211287609
C            1.76987680822921       -0.16743756112754        0.66811703877881
O            0.92562224934731       -0.16818211374960        1.55020559637373
C            3.12135633219047       -0.74423858301210        0.86219795712636
N            3.59344185600730       -1.32870791951373        1.91890327541139
N            4.87354024514034       -1.69285004702718        1.62817270521554
C            5.10543163486172       -1.30711333347248        0.41208135498234
C            6.35131228995214       -1.46311952706877       -0.36886084957881
O            4.03663214239212       -0.70093740303158       -0.13048744477744
N           -1.98460687139682        0.59617545802799       -0.70258390751339
H           -4.94218754849389        3.60116358627334        0.58763238666763
H           -6.01622662460592        2.68214575623103       -0.51035641039804
H           -5.82757294166657        2.16459431710861        1.18598982397568
H           -1.52682624151258       -0.76563443600469        1.44868492442278
H           -0.96498066698683       -2.27944773220805        2.19333435032957
H           -2.46556386085220       -2.26296110917674        1.26579558393566
H            0.17146457896104       -1.53783293914681       -1.56218489144842
H           -0.74378579670813        2.78879929004237       -0.46864084906666
H            1.01233896743961        2.93384741935707       -0.24780792953801
H            0.03926284938589        2.01756086354935        0.92140192740090
H           -0.43380810770011        1.83761244191533       -2.80072164552948
H            1.31360387600081        2.05953607124846       -2.59973627855082
H            0.66848362612953        0.47141396625916       -3.04637342288664
H            2.35811920482373        0.33833375333344       -1.21637529145261
H            6.16073274616112       -2.06626683142885       -1.25640908675213
H            7.11153246256474       -1.94279240514477        0.24313952311262
H            6.70611364483588       -0.48675405247448       -0.69749366197701

          :  Hamiltonian                  GFN1-xTB          :
         :: total energy             -82.974707426226 Eh    ::
         :: gradient norm              0.000519850729 Eh/a0 ::
         :: HOMO-LUMO gap              2.776360467101 eV    ::
         :: SCC energy               -83.805778668223 Eh    ::
         :: -> Gsolv                  -0.059160169563 Eh    ::
         :: repulsion energy           0.858825881179 Eh    ::

    * Orbital Energies and Occupations

         #    Occupation            Energy/Eh            Energy/eV
      -------------------------------------------------------------
         1        2.0000           -0.8724131             -23.7396
       ...           ...                  ...                  ...
        55        2.0000           -0.5057447             -13.7620
        56        2.0000           -0.5039226             -13.7124
        57        2.0000           -0.5007432             -13.6259
        58        2.0000           -0.4888040             -13.3010
        59        2.0000           -0.4815694             -13.1042
        60        2.0000           -0.4748649             -12.9217
        61        2.0000           -0.4674561             -12.7201
        62        2.0000           -0.4665681             -12.6960
        63        2.0000           -0.4627948             -12.5933
        64        2.0000           -0.4564060             -12.4194
        65        2.0000           -0.4530346             -12.3277
        66        2.0000           -0.4496675             -12.2361
        67        2.0000           -0.4314743             -11.7410 (HOMO)
        68                         -0.3294449              -8.9647 (LUMO)
        69                         -0.3129330              -8.5153
        70                         -0.3054554              -8.3119
        71                         -0.2843746              -7.7382
        72                         -0.2571028              -6.9961
        73                         -0.2560774              -6.9682
        74                         -0.2004788              -5.4553
        75                         -0.1789249              -4.8688
        76                         -0.1417596              -3.8575
        77                         -0.1400463              -3.8109
        78                         -0.1353832              -3.6840
       ...                                ...                  ...
       134                          1.2008799              32.6776
      -------------------------------------------------------------
                  HL-Gap            0.1020294 Eh            2.7764 eV

Wiberg/Mayer (AO) data.
largest (>0.10) Wiberg bond orders for each atom

     #   Z sym  total        # sym  WBO       # sym  WBO       # sym  WBO
 ---------------------------------------------------------------------------
     1   6 C    3.864 --    26 H    0.985    27 H    0.980    28 H    0.980
                             2 O    0.890
     2   8 O    2.206 --     3 C    1.119     1 C    0.890     4 O    0.129
     3   6 C    3.868 --     4 O    1.640     2 O    1.119     5 C    0.986
     4   8 O    1.916 --     3 C    1.640     2 O    0.129
     5   6 C    3.903 --     6 C    1.576    25 N    1.030     3 C    0.986
                             7 O    0.167
     6   6 C    3.801 --     7 O    1.989     5 C    1.576
     7   8 O    2.288 --     6 C    1.989     5 C    0.167
     8   6 C    3.867 --    10 O    1.663    11 N    1.132     9 C    1.000
     9   6 C    3.991 --     8 C    1.000    29 H    0.979    30 H    0.971
                            31 H    0.958
    10   8 O    1.923 --     8 C    1.663    11 N    0.127
    11   7 N    3.316 --     8 C    1.132    12 C    1.018    32 H    0.888
                            10 O    0.127
    12   6 C    3.933 --    25 N    1.747    11 N    1.018    13 C    0.968
    13   6 C    3.937 --    14 C    0.985    15 C    0.980    12 C    0.968
                            16 N    0.931
    14   6 C    3.987 --    34 H    0.985    13 C    0.985    33 H    0.983
                            35 H    0.981
    15   6 C    3.988 --    38 H    0.984    36 H    0.984    37 H    0.981
                            13 C    0.980
    16   7 N    3.348 --    17 C    1.256    13 C    0.931    39 H    0.891
                            18 O    0.173
    17   6 C    3.916 --    18 O    1.577    16 N    1.256    19 C    0.996
    18   8 O    1.898 --    17 C    1.577    16 N    0.173
    19   6 C    3.873 --    20 N    1.621    24 O    1.047    17 C    0.996
    20   7 N    3.001 --    19 C    1.621    21 N    1.200
    21   7 N    2.982 --    22 C    1.609    20 N    1.200
    22   6 C    3.868 --    21 N    1.609    24 O    1.073    23 C    1.032
    23   6 C    3.986 --    22 C    1.032    41 H    0.982    42 H    0.963
                            40 H    0.962
    24   8 O    2.317 --    22 C    1.073    19 C    1.047
    25   7 N    3.054 --    12 C    1.747     5 C    1.030
    26   1 H    1.009 --     1 C    0.985
    27   1 H    1.006 --     1 C    0.980
    28   1 H    1.006 --     1 C    0.980
    29   1 H    1.014 --     9 C    0.979
    30   1 H    1.005 --     9 C    0.971
    31   1 H    1.002 --     9 C    0.958
    32   1 H    0.941 --    11 N    0.888
    33   1 H    1.010 --    14 C    0.983
    34   1 H    1.000 --    14 C    0.985
    35   1 H    1.010 --    14 C    0.981
    36   1 H    1.002 --    15 C    0.984
    37   1 H    0.996 --    15 C    0.981
    38   1 H    0.997 --    15 C    0.984
    39   1 H    0.933 --    16 N    0.891
    40   1 H    0.996 --    23 C    0.962
    41   1 H    0.998 --    23 C    0.982
    42   1 H    0.996 --    23 C    0.963
 ---------------------------------------------------------------------------

           -------------------------------------------------
          | TOTAL ENERGY              -82.974707426226 Eh   |
          | GRADIENT NORM               0.000519850729 Eh/α |
          | HOMO-LUMO GAP               2.776360467101 eV   |
           -------------------------------------------------

 * finished run on 2023/06/21 at 17:53:39.769
