   * xtb version 6.5.1 (579679a) compiled by 'ehlert@majestix' on 2022-07-11
          program call               : /lustre/hpc/kemi/ree/PhD/git/ReactivityQM/dep/xtb-6.5.1/bin/xtb --gfn 1 /lustre/hpc/kemi/ree/PhD/git/ReactivityQM/calculations/RaltegravirCLI/reac01prodN06/conf10/RaltegravirCLI_reac01prodN06_conf10_gfn1.xyz --opt --vfukui --chrg 1 --uhf 0 --alpb DMSO

   ID    Z sym.   atoms
    1    6 C      1, 2, 5-7
    2    7 N      3, 4
    3    8 O      8, 10
    4   17 Cl     9
    5    1 H      11-16

      * Solvation model:               ALPB
        Solvent                        DMSO
        Solvent mass                       7.8130E+01 g/mol
          :  Hamiltonian                  GFN1-xTB          :
 * total energy  :   -33.2675731 Eh     change       -0.1180993E-09 Eh
 * total energy  :   -33.2792617 Eh     change       -0.1168860E-01 Eh
 * total energy  :   -33.2849979 Eh     change       -0.5736253E-02 Eh
 * total energy  :   -33.2941059 Eh     change       -0.9107954E-02 Eh
 * total energy  :   -33.2961302 Eh     change       -0.2024285E-02 Eh
 * total energy  :   -33.2979023 Eh     change       -0.1772146E-02 Eh
 * total energy  :   -33.2991721 Eh     change       -0.1269744E-02 Eh
 * total energy  :   -33.3001874 Eh     change       -0.1015316E-02 Eh
 * total energy  :   -33.3017180 Eh     change       -0.1530645E-02 Eh
 * total energy  :   -33.3050188 Eh     change       -0.3300755E-02 Eh
 * total energy  :   -33.3920274 Eh     change       -0.4154297E-04 Eh
 * total energy  :   -33.3920585 Eh     change       -0.3113751E-04 Eh
 * total energy  :   -33.3920810 Eh     change       -0.2244103E-04 Eh
 * total energy  :   -33.3920944 Eh     change       -0.1344549E-04 Eh
 * total energy  :   -33.3921085 Eh     change       -0.1407266E-04 Eh
 * total energy  :   -33.3921156 Eh     change       -0.7161766E-05 Eh
 * total energy  :   -33.3921219 Eh     change       -0.6274127E-05 Eh
 * total energy  :   -33.3921227 Eh     change       -0.7485280E-06 Eh
 * total energy  :   -33.3921265 Eh     change       -0.3825441E-05 Eh
   *** GEOMETRY OPTIMIZATION CONVERGED AFTER 46 ITERATIONS ***

 final structure:
================
16
 xtb: 6.5.1 (579679a)
C           -2.65367420407207       -0.03464133328245        0.79187458060254
C           -1.26657518918219       -0.31784811153502        0.46186837542741
N           -0.73686648769403       -1.57327999845852        0.26014929036348
N            0.49035886108266       -1.43950393745890        0.01389484554237
C            0.83876110370557       -0.06649686339782        0.01723334476500
C            1.36770089699969        0.26420445324251       -1.45240563337363
C            1.95007985423868        0.30478103995720        1.00146283052301
O            2.38104466391980       -0.23810006837712       -1.79849936981149
Cl           0.41861379371673        1.32160084094236       -2.34119610545796
O           -0.36852098212422        0.58628894919653        0.32142216165099
H           -3.30221931117812       -0.45270071419039        0.01719888048376
H           -2.90972189799972       -0.55772960630542        1.71787444360315
H           -2.82202044455191        1.03452853013509        0.89781519887368
H            2.86151560065578       -0.21284523677826        0.70798522887584
H            1.64756792290302        0.00053191511195        2.00094295715041
H            2.10395581958053        1.38120914119797        0.97425797078155

          :  Hamiltonian                  GFN1-xTB          :
         :: total energy             -33.392126493646 Eh    ::
         :: gradient norm              0.000558479236 Eh/a0 ::
         :: HOMO-LUMO gap              2.012093464082 eV    ::
         :: SCC energy               -33.670515698535 Eh    ::
         :: -> Gsolv                  -0.085672949721 Eh    ::
         :: repulsion energy           0.286330836498 Eh    ::

    * Orbital Energies and Occupations

         #    Occupation            Energy/Eh            Energy/eV
      -------------------------------------------------------------
         1        2.0000           -1.0033235             -27.3018
       ...           ...                  ...                  ...
        15        2.0000           -0.6377634             -17.3544
        16        2.0000           -0.6145432             -16.7226
        17        2.0000           -0.6056029             -16.4793
        18        2.0000           -0.6038499             -16.4316
        19        2.0000           -0.5865257             -15.9602
        20        2.0000           -0.5828977             -15.8615
        21        2.0000           -0.5758050             -15.6685
        22        2.0000           -0.5708903             -15.5347
        23        2.0000           -0.5679591             -15.4550
        24        2.0000           -0.5354289             -14.5698
        25        2.0000           -0.5329976             -14.5036
        26        2.0000           -0.5243614             -14.2686
        27        2.0000           -0.5131654             -13.9639 (HOMO)
        28                         -0.4392223             -11.9518 (LUMO)
        29                         -0.3563998              -9.6981
        30                         -0.3403507              -9.2614
        31                         -0.2501627              -6.8073
        32                         -0.1824069              -4.9635
        33                         -0.1645203              -4.4768
        34                         -0.1353007              -3.6817
        35                         -0.1282676              -3.4903
        36                         -0.1269448              -3.4543
        37                         -0.1143366              -3.1113
        38                         -0.1107222              -3.0129
       ...                                ...                  ...
        57                          0.7145271              19.4433
      -------------------------------------------------------------
                  HL-Gap            0.0739431 Eh            2.0121 eV

Wiberg/Mayer (AO) data.
largest (>0.10) Wiberg bond orders for each atom

     #   Z sym  total        # sym  WBO       # sym  WBO       # sym  WBO
 ---------------------------------------------------------------------------
     1   6 C    3.961 --     2 C    1.092    13 H    0.971    11 H    0.914
                            12 H    0.911
     2   6 C    3.798 --    10 O    1.293     3 N    1.179     1 C    1.092
     3   7 N    3.024 --     4 N    1.677     2 C    1.179
     4   7 N    3.013 --     3 N    1.677     5 C    1.076
     5   6 C    3.841 --     4 N    1.076     7 C    0.908    10 O    0.905
                             6 C    0.787
     6   6 C    3.877 --     8 O    1.833     9 Cl   1.148     5 C    0.787
     7   6 C    3.941 --    16 H    0.976    15 H    0.974    14 H    0.973
                             5 C    0.908
     8   8 O    2.132 --     6 C    1.833     9 Cl   0.157
     9  17 Cl   1.400 --     6 C    1.148     8 O    0.157
    10   8 O    2.381 --     2 C    1.293     5 C    0.905
    11   1 H    0.976 --     1 C    0.914
    12   1 H    0.974 --     1 C    0.911
    13   1 H    0.983 --     1 C    0.971
    14   1 H    0.992 --     7 C    0.973
    15   1 H    0.988 --     7 C    0.974
    16   1 H    0.989 --     7 C    0.976
 ---------------------------------------------------------------------------

           -------------------------------------------------
          | TOTAL ENERGY              -33.392126493646 Eh   |
          | GRADIENT NORM               0.000558479236 Eh/α |
          | HOMO-LUMO GAP               2.012093464082 eV   |
           -------------------------------------------------

 * finished run on 2023/06/20 at 14:55:28.952
