   * xtb version 6.5.1 (579679a) compiled by 'ehlert@majestix' on 2022-07-11
          program call               : /lustre/hpc/kemi/ree/PhD/git/ReactivityQM/dep/xtb-6.5.1/bin/xtb --gfn 1 /lustre/hpc/kemi/ree/PhD/git/ReactivityQM/calculations/R02oxygendeprot/reac01prodE14/conf13/R02oxygendeprot_reac01prodE14_conf13_gfn1.xyz --opt --vfukui --chrg -2 --uhf 0 --alpb DMSO

   ID    Z sym.   atoms
    1    6 C      1, 3, 5, 7-10, 12, 14, 17, 18, 21, 23, 24
    2    8 O      2, 4, 13, 19, 22, 25
    3    7 N      6, 11, 15, 16, 20
    4    1 H      26-42

      * Solvation model:               ALPB
        Solvent                        DMSO
        Solvent mass                       7.8130E+01 g/mol
          :  Hamiltonian                  GFN1-xTB          :
 * total energy  :   -83.5868102 Eh     change       -0.2431477E-10 Eh
 * total energy  :   -83.6007990 Eh     change       -0.1398873E-01 Eh
 * total energy  :   -83.6058666 Eh     change       -0.5067603E-02 Eh
 * total energy  :   -83.6070014 Eh     change       -0.1134885E-02 Eh
 * total energy  :   -83.6080546 Eh     change       -0.1053126E-02 Eh
 * total energy  :   -83.6086466 Eh     change       -0.5920158E-03 Eh
 * total energy  :   -83.6091006 Eh     change       -0.4540006E-03 Eh
 * total energy  :   -83.6094576 Eh     change       -0.3570646E-03 Eh
 * total energy  :   -83.6096508 Eh     change       -0.1931057E-03 Eh
 * total energy  :   -83.6097764 Eh     change       -0.1256453E-03 Eh
 * total energy  :   -83.6120481 Eh     change       -0.2070308E-04 Eh
 * total energy  :   -83.6120692 Eh     change       -0.2117331E-04 Eh
 * total energy  :   -83.6120807 Eh     change       -0.1142768E-04 Eh
 * total energy  :   -83.6120883 Eh     change       -0.7599539E-05 Eh
 * total energy  :   -83.6120979 Eh     change       -0.9660344E-05 Eh
 * total energy  :   -83.6121041 Eh     change       -0.6124673E-05 Eh
 * total energy  :   -83.6121098 Eh     change       -0.5711816E-05 Eh
 * total energy  :   -83.6121149 Eh     change       -0.5181020E-05 Eh
 * total energy  :   -83.6121190 Eh     change       -0.4076815E-05 Eh
   *** GEOMETRY OPTIMIZATION CONVERGED AFTER 49 ITERATIONS ***

 final structure:
================
42
 xtb: 6.5.1 (579679a)
C           -5.20180950601616        1.27728580804487        1.98792556104755
O           -3.94993930113994        0.84039912873168        1.51085854646395
C           -3.90788872483395        0.56699050336169        0.11703097188268
O           -4.96677334729832        0.72100790362143       -0.52620065707905
C           -2.65820003216664        0.12310848177139       -0.32473338358183
N           -1.65404067399868        0.05925280303240        0.61538049027614
C           -0.52172849463319       -0.48306999792119        0.35523171154531
C            0.58256790694489       -0.52233277734801        1.39150131038347
C            0.73817561492709       -1.94327292299873        1.96147346415878
C            0.25810499524165        0.47188747244743        2.51221646261544
N            1.83872165824312       -0.13585479223875        0.72078117891916
C            3.01621770237664       -0.00258214088596        1.35389542140216
O            3.20126104702105       -0.15400860808964        2.56021650261126
C            4.12854333223754        0.37935475092555        0.45353031270915
N            5.36790328575299        0.61228921695561        0.78744228795593
N            6.03014234622751        0.93811515481979       -0.36127671768731
C            5.16216689181374        0.88540995083935       -1.32212088577378
C            5.39377449661876        1.15141894890282       -2.75980835562889
O            3.93973773897722        0.54029689290890       -0.87991349644183
N           -0.26818767820317       -1.15777588203307       -0.85969938870510
C           -1.25589984114077       -1.27363953344995       -1.80533999568372
O           -1.19668858954800       -2.19292949846270       -2.62929846254255
C           -2.28207718173975       -0.09178810770552       -1.82449230368268
C           -3.51851459168519       -0.59880921429593       -2.63628629932389
O           -1.67093742645632        0.95871301952625       -2.39679989503215
H           -5.52087704190419        2.20794150367557        1.49888608010137
H           -5.98212772951162        0.52126512970302        1.82660866742209
H           -5.10019424413129        1.45746705927220        3.06019714444927
H            1.01231954821567       -2.63861347411944        1.16975625265219
H            1.50946129146241       -1.96710898229306        2.72962383617062
H           -0.20668826289631       -2.26219780211149        2.39965683826323
H            0.27150251748924        1.49049559845364        2.12437971219339
H            0.97277319380492        0.39078296689166        3.32841338996096
H           -0.74102923422724        0.25817726375218        2.89224452614461
H            1.82571833249092       -0.05142782579411       -0.28615801082718
H            4.73843812794897        1.95065675022393       -3.10622496159082
H            5.17797027378093        0.25781152249648       -3.34546451185587
H            6.43046126208631        1.44053652487625       -2.91167908655624
H            0.42859052217091       -1.88318904475905       -0.85431410414400
H           -4.20917601725279        0.22615825152943       -2.80335800088298
H           -4.03636570700180       -1.40642796641623       -2.11740709525587
H           -3.17541246002110       -0.96179403583990       -3.60667505703057

          :  Hamiltonian                  GFN1-xTB          :
         :: total energy             -83.612119020779 Eh    ::
         :: gradient norm              0.000495036846 Eh/a0 ::
         :: HOMO-LUMO gap              0.155728831784 eV    ::
         :: SCC energy               -84.347026937718 Eh    ::
         :: -> Gsolv                  -0.292297460203 Eh    ::
         :: repulsion energy           0.760552086306 Eh    ::

    * Orbital Energies and Occupations

         #    Occupation            Energy/Eh            Energy/eV
      -------------------------------------------------------------
         1        2.0000           -0.8473864             -23.0586
       ...           ...                  ...                  ...
        56        2.0000           -0.4417600             -12.0209
        57        2.0000           -0.4407495             -11.9934
        58        2.0000           -0.4309865             -11.7277
        59        2.0000           -0.4244149             -11.5489
        60        2.0000           -0.4212385             -11.4625
        61        2.0000           -0.4144892             -11.2788
        62        2.0000           -0.4015804             -10.9276
        63        2.0000           -0.3925725             -10.6824
        64        2.0000           -0.3823328             -10.4038
        65        2.0000           -0.3705047             -10.0819
        66        2.0000           -0.3073456              -8.3633
        67        1.9974           -0.3003664              -8.1734
        68        1.9075           -0.2969442              -8.0803 (HOMO)
        69        0.0951           -0.2912212              -7.9245 (LUMO)
        70                         -0.2427341              -6.6051
        71                         -0.2128733              -5.7926
        72                         -0.1776708              -4.8347
        73                         -0.1730137              -4.7079
        74                         -0.1360953              -3.7033
        75                         -0.1124106              -3.0588
        76                         -0.1057056              -2.8764
        77                         -0.1037715              -2.8238
        78                         -0.0976229              -2.6565
        79                         -0.0800486              -2.1782
       ...                                ...                  ...
       134                          0.7249913              19.7280
      -------------------------------------------------------------
                  HL-Gap            0.0057229 Eh            0.1557 eV

Wiberg/Mayer (AO) data.
largest (>0.10) Wiberg bond orders for each atom

     #   Z sym  total        # sym  WBO       # sym  WBO       # sym  WBO
 ---------------------------------------------------------------------------
     1   6 C    3.925 --    28 H    0.986    27 H    0.980    26 H    0.980
                             2 O    0.958
     2   8 O    2.052 --     1 C    0.958     3 C    0.916
     3   6 C    3.849 --     4 O    1.445     5 C    1.348     2 O    0.916
     4   8 O    1.775 --     3 C    1.445     5 C    0.110
     5   6 C    3.829 --     3 C    1.348     6 N    1.185    23 C    0.914
                             4 O    0.110
     6   7 N    3.052 --     7 C    1.623     5 C    1.185
     7   6 C    3.898 --     6 N    1.623    20 N    1.004     8 C    0.978
     8   6 C    3.924 --    10 C    0.996     9 C    0.981     7 C    0.978
                            11 N    0.905
     9   6 C    3.989 --    31 H    0.986    29 H    0.984    30 H    0.983
                             8 C    0.981
    10   6 C    3.994 --     8 C    0.996    32 H    0.986    33 H    0.984
                            34 H    0.983
    11   7 N    3.346 --    12 C    1.275     8 C    0.905    35 H    0.899
                            13 O    0.175
    12   6 C    3.891 --    13 O    1.535    11 N    1.275    14 C    1.005
    13   8 O    1.842 --    12 C    1.535    11 N    0.175
    14   6 C    3.825 --    15 N    1.587    19 O    1.035    12 C    1.005
    15   7 N    2.942 --    14 C    1.587    16 N    1.191
    16   7 N    2.980 --    17 C    1.619    15 N    1.191
    17   6 C    3.860 --    16 N    1.619    19 O    1.068    18 C    1.029
    18   6 C    3.989 --    17 C    1.029    38 H    0.984    36 H    0.966
                            37 H    0.965
    19   8 O    2.291 --    17 C    1.068    14 C    1.035
    20   7 N    3.342 --    21 C    1.165     7 C    1.004    39 H    0.913
                            22 O    0.115
    21   6 C    3.807 --    22 O    1.565    20 N    1.165    23 C    0.877
    22   8 O    1.833 --    21 C    1.565    20 N    0.115
    23   6 C    3.960 --    25 O    1.122    24 C    0.951     5 C    0.914
                            21 C    0.877
    24   6 C    3.990 --    41 H    0.990    42 H    0.987    40 H    0.986
                            23 C    0.951
    25   8 O    1.399 --    23 C    1.122
    26   1 H    1.022 --     1 C    0.980
    27   1 H    1.023 --     1 C    0.980
    28   1 H    1.021 --     1 C    0.986
    29   1 H    1.006 --     9 C    0.984
    30   1 H    1.012 --     9 C    0.983
    31   1 H    1.007 --     9 C    0.986
    32   1 H    1.012 --    10 C    0.986
    33   1 H    1.016 --    10 C    0.984
    34   1 H    1.025 --    10 C    0.983
    35   1 H    0.954 --    11 N    0.899
    36   1 H    0.998 --    18 C    0.966
    37   1 H    0.998 --    18 C    0.965
    38   1 H    1.000 --    18 C    0.984
    39   1 H    0.965 --    20 N    0.913
    40   1 H    1.036 --    24 C    0.986
    41   1 H    1.016 --    24 C    0.990
    42   1 H    1.026 --    24 C    0.987
 ---------------------------------------------------------------------------

           -------------------------------------------------
          | TOTAL ENERGY              -83.612119020779 Eh   |
          | GRADIENT NORM               0.000495036846 Eh/α |
          | HOMO-LUMO GAP               0.155728831784 eV   |
           -------------------------------------------------

 * finished run on 2023/06/21 at 17:16:19.371
