   * xtb version 6.5.1 (579679a) compiled by 'ehlert@majestix' on 2022-07-11
          program call               : /lustre/hpc/kemi/ree/PhD/git/ReactivityQM/dep/xtb-6.5.1/bin/xtb --gfn 1 /lustre/hpc/kemi/ree/PhD/git/ReactivityQM/calculations/R02/reac01prodE06/conf06/R02_reac01prodE06_conf06_gfn1.xyz --opt --vfukui --chrg -1 --uhf 0 --alpb DMSO

   ID    Z sym.   atoms
    1    6 C      1, 3, 5, 6, 8, 11-15, 17, 19, 22, 23
    2    8 O      2, 4, 7, 9, 18, 24
    3    7 N      10, 16, 20, 21, 25
    4    1 H      26-43

      * Solvation model:               ALPB
        Solvent                        DMSO
        Solvent mass                       7.8130E+01 g/mol
          :  Hamiltonian                  GFN1-xTB          :
 * total energy  :   -83.8635844 Eh     change       -0.4362732E-10 Eh
 * total energy  :   -83.8751748 Eh     change       -0.1159040E-01 Eh
 * total energy  :   -83.8798787 Eh     change       -0.4703940E-02 Eh
 * total energy  :   -83.8806203 Eh     change       -0.7415472E-03 Eh
 * total energy  :   -83.8812333 Eh     change       -0.6130157E-03 Eh
 * total energy  :   -83.8815678 Eh     change       -0.3344768E-03 Eh
 * total energy  :   -83.8819284 Eh     change       -0.3606288E-03 Eh
 * total energy  :   -83.8822992 Eh     change       -0.3708429E-03 Eh
 * total energy  :   -83.8826461 Eh     change       -0.3468632E-03 Eh
 * total energy  :   -83.8829663 Eh     change       -0.3202366E-03 Eh
 * total energy  :   -83.8843560 Eh     change       -0.8069898E-05 Eh
 * total energy  :   -83.8843625 Eh     change       -0.6547337E-05 Eh
 * total energy  :   -83.8843757 Eh     change       -0.1315688E-04 Eh
 * total energy  :   -83.8843881 Eh     change       -0.1243400E-04 Eh
 * total energy  :   -83.8844010 Eh     change       -0.1289055E-04 Eh
 * total energy  :   -83.8843887 Eh     change        0.1231542E-04 Eh
 * total energy  :   -83.8844118 Eh     change       -0.2312622E-04 Eh
 * total energy  :   -83.8844146 Eh     change       -0.2794626E-05 Eh
 * total energy  :   -83.8844187 Eh     change       -0.4144156E-05 Eh
   *** GEOMETRY OPTIMIZATION CONVERGED AFTER 39 ITERATIONS ***

 final structure:
================
43
 xtb: 6.5.1 (579679a)
C           -3.49895248890078       -0.76006437773217        3.77149268682180
O           -3.38126467712537       -0.23267278940793        2.45077635792335
C           -2.28645780100507       -0.60968050969891        1.76033487860018
O           -1.46969053035542       -1.36737704633840        2.24352354177365
C           -2.18444689694825       -0.02415171852352        0.39223722277232
C           -3.28533092579034        0.44277800622486       -0.33423980994262
O           -4.59086785199979        0.48785005271253        0.17031304235530
C           -3.13863985692637        0.73774834103047       -1.72321234800159
O           -4.03557115629169        1.08089144325060       -2.50924716243969
N           -1.85276814129710        0.50751548489859       -2.23295954115695
C           -0.69928315100729        0.58641666012708       -1.34909530278440
C           -0.31476716252770        2.06762389998692       -1.11779221357241
C            0.47890869347462       -0.21766236813652       -1.99070707658606
C            1.05242450740465        0.45001086220679       -3.24276142043521
C           -0.00032099743406       -1.64127687090246       -2.30539237474370
N            1.50397292905828       -0.28121959435193       -0.94277631796737
C            2.70648244412662       -0.84542280776029       -1.07827527313902
O            3.17154784844957       -1.32192717987831       -2.10781980227200
C            3.50082482510468       -0.82904107608501        0.18537762140684
N            4.65052351842339       -1.39247061192844        0.39749982440088
N            4.99758872054999       -1.10717368569508        1.68713922795061
C            4.03896381394744       -0.38663799678818        2.17918270574412
C            3.94997869943587        0.18925681889527        3.53929226139975
O            3.06053112570636       -0.17700489358136        1.28345032627709
N           -0.94014487468431       -0.03386763727185       -0.06677019885119
H           -4.42891951800718       -0.37728351982675        4.18569708409083
H           -2.65439740905854       -0.43439444320248        4.38408518723978
H           -3.52087818617406       -1.85303365700699        3.74563572521901
H           -4.58588716233682        0.76076995144262        1.09543715247425
H           -1.71037848056957        0.95757048736231       -3.12677310731531
H            0.62490239769101        2.12937882122284       -0.57235032095822
H           -0.21744644306031        2.59549167064158       -2.06437812159493
H           -1.09321595756950        2.54976220638400       -0.52802697846829
H            1.56420486928444        1.37566805609162       -2.98572693168223
H            1.76470428182935       -0.21186011583663       -3.73385383718223
H            0.25196261587831        0.67289432342700       -3.94579309210595
H           -0.79174178393191       -1.60160420819364       -3.05285653712300
H            0.82101648739663       -2.24496095222904       -2.68860539111202
H           -0.39394078767409       -2.10205291905947       -1.39871027097453
H            1.16577159025277       -0.05541355244082       -0.01096322926484
H            4.85646883277556       -0.04260955832619        4.09258533953578
H            3.08856581508909       -0.21948338885534        4.06710584063199
H            3.82596922480336        1.26986739314241        3.47791963306823

          :  Hamiltonian                  GFN1-xTB          :
         :: total energy             -83.884418733500 Eh    ::
         :: gradient norm              0.000648763896 Eh/a0 ::
         :: HOMO-LUMO gap              0.752176585360 eV    ::
         :: SCC energy               -84.640682148704 Eh    ::
         :: -> Gsolv                  -0.111794504460 Eh    ::
         :: repulsion energy           0.784126759351 Eh    ::

    * Orbital Energies and Occupations

         #    Occupation            Energy/Eh            Energy/eV
      -------------------------------------------------------------
         1        2.0000           -0.8554768             -23.2787
       ...           ...                  ...                  ...
        56        2.0000           -0.4724200             -12.8552
        57        2.0000           -0.4706583             -12.8073
        58        2.0000           -0.4602675             -12.5245
        59        2.0000           -0.4502285             -12.2513
        60        2.0000           -0.4483280             -12.1996
        61        2.0000           -0.4432909             -12.0626
        62        2.0000           -0.4384285             -11.9302
        63        2.0000           -0.4302616             -11.7080
        64        2.0000           -0.4262391             -11.5986
        65        2.0000           -0.4042664             -11.0006
        66        2.0000           -0.3900971             -10.6151
        67        2.0000           -0.3800738             -10.3423
        68        2.0000           -0.3231719              -8.7940 (HOMO)
        69        0.0000           -0.2955299              -8.0418 (LUMO)
        70                         -0.2669430              -7.2639
        71                         -0.2488100              -6.7705
        72                         -0.1933052              -5.2601
        73                         -0.1851918              -5.0393
        74                         -0.1386988              -3.7742
        75                         -0.1249853              -3.4010
        76                         -0.1185685              -3.2264
        77                         -0.1141116              -3.1051
        78                         -0.1035156              -2.8168
        79                         -0.0952564              -2.5921
       ...                                ...                  ...
       136                          0.7370825              20.0570
      -------------------------------------------------------------
                  HL-Gap            0.0276420 Eh            0.7522 eV

Wiberg/Mayer (AO) data.
largest (>0.10) Wiberg bond orders for each atom

     #   Z sym  total        # sym  WBO       # sym  WBO       # sym  WBO
 ---------------------------------------------------------------------------
     1   6 C    3.884 --    26 H    0.987    28 H    0.980    27 H    0.980
                             2 O    0.907
     2   8 O    2.189 --     3 C    1.073     1 C    0.907     4 O    0.122
     3   6 C    3.817 --     4 O    1.652     2 O    1.073     5 C    1.000
     4   8 O    1.904 --     3 C    1.652     2 O    0.122
     5   6 C    3.970 --    25 N    1.420     6 C    1.335     3 C    1.000
     6   6 C    3.859 --     5 C    1.335     8 C    1.192     7 O    0.968
                            25 N    0.180
     7   8 O    1.936 --     6 C    0.968    29 H    0.854
     8   6 C    3.914 --     9 O    1.498     6 C    1.192    10 N    1.073
     9   8 O    1.797 --     8 C    1.498    10 N    0.102
    10   7 N    3.191 --     8 C    1.073    11 C    0.947    30 H    0.920
                             9 O    0.102
    11   6 C    3.946 --    25 N    1.002    12 C    0.972    13 C    0.948
                            10 N    0.947
    12   6 C    3.996 --    32 H    0.985    33 H    0.984    31 H    0.984
                            11 C    0.972
    13   6 C    3.924 --    14 C    1.000    15 C    0.992    11 C    0.948
                            16 N    0.918
    14   6 C    3.994 --    13 C    1.000    34 H    0.984    36 H    0.983
                            35 H    0.980
    15   6 C    3.994 --    13 C    0.992    38 H    0.985    37 H    0.984
                            39 H    0.983
    16   7 N    3.394 --    17 C    1.308    13 C    0.918    40 H    0.880
                            18 O    0.186
    17   6 C    3.925 --    18 O    1.552    16 N    1.308    19 C    0.982
    18   8 O    1.873 --    17 C    1.552    16 N    0.186
    19   6 C    3.867 --    20 N    1.626    24 O    1.050    17 C    0.982
    20   7 N    2.992 --    19 C    1.626    21 N    1.191
    21   7 N    2.979 --    22 C    1.617    20 N    1.191
    22   6 C    3.872 --    21 N    1.617    24 O    1.074    23 C    1.030
    23   6 C    3.988 --    22 C    1.030    41 H    0.983    43 H    0.965
                            42 H    0.963
    24   8 O    2.317 --    22 C    1.074    19 C    1.050
    25   7 N    2.945 --     5 C    1.420    11 C    1.002     6 C    0.180
    26   1 H    1.013 --     1 C    0.987
    27   1 H    1.011 --     1 C    0.980
    28   1 H    1.011 --     1 C    0.980
    29   1 H    0.896 --     7 O    0.854
    30   1 H    0.968 --    10 N    0.920
    31   1 H    1.008 --    12 C    0.984
    32   1 H    1.005 --    12 C    0.985
    33   1 H    1.007 --    12 C    0.984
    34   1 H    1.005 --    14 C    0.984
    35   1 H    1.015 --    14 C    0.980
    36   1 H    1.003 --    14 C    0.983
    37   1 H    1.015 --    15 C    0.984
    38   1 H    1.010 --    15 C    0.985
    39   1 H    1.018 --    15 C    0.983
    40   1 H    0.978 --    16 N    0.880
    41   1 H    1.000 --    23 C    0.983
    42   1 H    0.998 --    23 C    0.963
    43   1 H    0.998 --    23 C    0.965
 ---------------------------------------------------------------------------

           -------------------------------------------------
          | TOTAL ENERGY              -83.884418733500 Eh   |
          | GRADIENT NORM               0.000648763896 Eh/α |
          | HOMO-LUMO GAP               0.752176585360 eV   |
           -------------------------------------------------

 * finished run on 2023/06/20 at 15:00:46.513
