   * xtb version 6.5.1 (579679a) compiled by 'ehlert@majestix' on 2022-07-11
          program call               : /lustre/hpc/kemi/ree/PhD/git/ReactivityQM/dep/xtb-6.5.1/bin/xtb --gfn 1 /lustre/hpc/kemi/ree/PhD/git/ReactivityQM/calculations/R03/reac02prodN04/conf08/R03_reac02prodN04_conf08_gfn1.xyz --opt --vfukui --chrg 1 --uhf 0 --alpb DMSO

   ID    Z sym.   atoms
    1    6 C      1, 3, 5, 7-10, 12, 14, 17, 18, 21, 22, 24, 26
    2    8 O      2, 4, 13, 19, 23, 25
    3    7 N      6, 11, 15, 16, 20
    4    1 H      27-46

      * Solvation model:               ALPB
        Solvent                        DMSO
        Solvent mass                       7.8130E+01 g/mol
          :  Hamiltonian                  GFN1-xTB          :
 * total energy  :   -86.2901169 Eh     change       -0.1146816E-10 Eh
 * total energy  :   -86.3077999 Eh     change       -0.1768302E-01 Eh
 * total energy  :   -86.3164307 Eh     change       -0.8630745E-02 Eh
 * total energy  :   -86.3193808 Eh     change       -0.2950148E-02 Eh
 * total energy  :   -86.3222272 Eh     change       -0.2846412E-02 Eh
 * total energy  :   -86.3241960 Eh     change       -0.1968780E-02 Eh
 * total energy  :   -86.3261096 Eh     change       -0.1913552E-02 Eh
 * total energy  :   -86.3296449 Eh     change       -0.3535369E-02 Eh
 * total energy  :   -86.3311615 Eh     change       -0.1516553E-02 Eh
 * total energy  :   -86.3337131 Eh     change       -0.2551645E-02 Eh
 * total energy  :   -86.3440557 Eh     change       -0.1284475E-04 Eh
 * total energy  :   -86.3440723 Eh     change       -0.1655457E-04 Eh
 * total energy  :   -86.3440796 Eh     change       -0.7303340E-05 Eh
 * total energy  :   -86.3440878 Eh     change       -0.8234899E-05 Eh
 * total energy  :   -86.3440937 Eh     change       -0.5943142E-05 Eh
 * total energy  :   -86.3440989 Eh     change       -0.5163493E-05 Eh
 * total energy  :   -86.3441043 Eh     change       -0.5387604E-05 Eh
 * total energy  :   -86.3441094 Eh     change       -0.5078689E-05 Eh
 * total energy  :   -86.3441132 Eh     change       -0.3818794E-05 Eh
   *** GEOMETRY OPTIMIZATION CONVERGED AFTER 40 ITERATIONS ***

 final structure:
================
46
 xtb: 6.5.1 (579679a)
C           -4.48682410900807        2.43823724475392       -2.62618300927964
O           -3.51022794030195        1.63930147095879       -1.93096148469921
C           -3.78985916359308        1.14658793750126       -0.78273550724873
O           -4.95472917668683        1.39186891868078       -0.28338506090466
C           -2.78515867288310        0.34626616006434       -0.12172526866263
N           -1.61035911262248        0.21694087897870       -0.80374588479830
C           -0.63153139926479       -0.47788969054978       -0.31734257900506
C            0.61429804198868       -0.56370911642665       -1.18845730297093
C            0.52318266761270        0.47210533014194       -2.31828917391664
C            0.71413313970489       -1.97418187141328       -1.78952663753881
N            1.77453943324985       -0.23827200790799       -0.35556951186657
C            3.05466390028978       -0.30160127653090       -0.80784254880263
O            3.41082901021570       -0.78545954111975       -1.86332261981709
C            3.97964549731698        0.28173703134285        0.19389313724205
N            3.63192277928969        0.86219605457422        1.30410649154884
N            4.78126161159077        1.25560996639462        1.91736419208898
C            5.75887642635253        0.89055751407623        1.14192238721481
C            7.20847061105600        1.08234133535139        1.36598429600135
O            5.31464704303408        0.27288818175046        0.03768270324500
N           -0.74266580150379       -1.12270496671288        0.88488633147728
C            0.29518507687563       -1.96734795224270        1.49141555819667
C           -1.88823512956358       -1.06624964533116        1.66883628054690
O           -1.93788045941599       -1.66763522367493        2.72803495977928
C           -2.97498492694870       -0.25460477345608        1.11144169982980
O           -4.13306302290732       -0.08497898539886        1.73781471485489
C           -4.43157911987299       -0.67069326254047        3.02158473049910
H           -4.02621025704299        2.71891554843486       -3.57033231727717
H           -5.38764124811357        1.84609873590258       -2.78904452591491
H           -4.72469166105473        3.31829505488047       -2.02815706682242
H           -0.33656963382538        0.25672822973246       -2.94932580246421
H            0.41469304130705        1.47182373516991       -1.90214959737158
H            1.42976565035770        0.42848319839498       -2.91982118972350
H            0.92236803682136       -2.71931803716916       -1.02606529210072
H           -0.23179827483439       -2.21823733335274       -2.27074748880057
H            1.50682563121243       -2.00424243364979       -2.53478282773253
H            1.60842590349518        0.34471131301171        0.45151797901634
H            7.70746502960315        0.11430135019878        1.41407473389206
H            7.64216799908518        1.64488205900113        0.53928472698354
H            7.36596238913854        1.61997099280814        2.29788445812941
H            1.20866783844479       -1.93400274736114        0.91206683331031
H           -0.08552210219372       -2.98718116031751        1.54666048878021
H            0.47981416652917       -1.60182175182225        2.50160631155334
H           -5.11608023806733        0.98786265026588        0.59732593983613
H           -3.72596755569549       -0.31345393584944        3.77213786183269
H           -4.39656400272956       -1.75845898130149        2.95556758134488
H           -5.43966791644299       -0.33666819824405        3.25957230051471

          :  Hamiltonian                  GFN1-xTB          :
         :: total energy             -86.344113191424 Eh    ::
         :: gradient norm              0.000321747179 Eh/a0 ::
         :: HOMO-LUMO gap              1.874347128467 eV    ::
         :: SCC energy               -87.172881724723 Eh    ::
         :: -> Gsolv                  -0.104004605892 Eh    ::
         :: repulsion energy           0.857357596679 Eh    ::

    * Orbital Energies and Occupations

         #    Occupation            Energy/Eh            Energy/eV
      -------------------------------------------------------------
         1        2.0000           -0.9131521             -24.8481
       ...           ...                  ...                  ...
        58        2.0000           -0.5263162             -14.3218
        59        2.0000           -0.5182094             -14.1012
        60        2.0000           -0.5130712             -13.9614
        61        2.0000           -0.5114264             -13.9166
        62        2.0000           -0.5030563             -13.6889
        63        2.0000           -0.4892763             -13.3139
        64        2.0000           -0.4865181             -13.2388
        65        2.0000           -0.4812733             -13.0961
        66        2.0000           -0.4732675             -12.8783
        67        2.0000           -0.4675155             -12.7217
        68        2.0000           -0.4601749             -12.5220
        69        2.0000           -0.4585217             -12.4770
        70        2.0000           -0.4540509             -12.3554 (HOMO)
        71                         -0.3851699             -10.4810 (LUMO)
        72                         -0.3193338              -8.6895
        73                         -0.3173639              -8.6359
        74                         -0.2918991              -7.9430
        75                         -0.2616744              -7.1205
        76                         -0.2071855              -5.6378
        77                         -0.2008585              -5.4656
        78                         -0.1667763              -4.5382
        79                         -0.1510144              -4.1093
        80                         -0.1477542              -4.0206
        81                         -0.1441647              -3.9229
       ...                                ...                  ...
       144                          0.7236991              19.6929
      -------------------------------------------------------------
                  HL-Gap            0.0688810 Eh            1.8743 eV

Wiberg/Mayer (AO) data.
largest (>0.10) Wiberg bond orders for each atom

     #   Z sym  total        # sym  WBO       # sym  WBO       # sym  WBO
 ---------------------------------------------------------------------------
     1   6 C    3.820 --    27 H    0.982    28 H    0.972    29 H    0.972
                             2 O    0.851
     2   8 O    2.319 --     3 C    1.286     1 C    0.851
     3   6 C    3.811 --     2 O    1.286     4 O    1.250     5 C    1.120
     4   8 O    2.196 --     3 C    1.250    43 H    0.745
     5   6 C    3.958 --    24 C    1.399     6 N    1.179     3 C    1.120
     6   7 N    3.028 --     7 C    1.562     5 C    1.179
     7   6 C    3.921 --     6 N    1.562    20 N    1.181     8 C    0.977
     8   6 C    3.933 --     9 C    0.988    10 C    0.978     7 C    0.977
                            11 N    0.926
     9   6 C    3.988 --     8 C    0.988    31 H    0.985    30 H    0.984
                            32 H    0.981
    10   6 C    3.985 --    34 H    0.984    33 H    0.980     8 C    0.978
                            35 H    0.975
    11   7 N    3.323 --    12 C    1.217     8 C    0.926    36 H    0.894
                            13 O    0.169
    12   6 C    3.913 --    13 O    1.615    11 N    1.217    14 C    0.993
    13   8 O    1.928 --    12 C    1.615    11 N    0.169
    14   6 C    3.878 --    15 N    1.604    19 O    1.066    12 C    0.993
    15   7 N    3.020 --    14 C    1.604    16 N    1.205
    16   7 N    2.981 --    17 C    1.599    15 N    1.205
    17   6 C    3.869 --    16 N    1.599    19 O    1.084    18 C    1.032
    18   6 C    3.985 --    17 C    1.032    39 H    0.982    38 H    0.963
                            37 H    0.962
    19   8 O    2.334 --    17 C    1.084    14 C    1.066
    20   7 N    3.523 --     7 C    1.181    22 C    1.128    21 C    0.918
                            23 O    0.143
    21   6 C    3.906 --    40 H    0.976    42 H    0.972    41 H    0.971
                            20 N    0.918
    22   6 C    3.919 --    23 O    1.593    20 N    1.128    24 C    1.054
    23   8 O    1.939 --    22 C    1.593    20 N    0.143
    24   6 C    3.908 --     5 C    1.399    25 O    1.135    22 C    1.054
    25   8 O    2.249 --    24 C    1.135    26 C    0.855
    26   6 C    3.829 --    46 H    0.983    44 H    0.974    45 H    0.974
                            25 O    0.855
    27   1 H    1.002 --     1 C    0.982
    28   1 H    0.997 --     1 C    0.972
    29   1 H    0.996 --     1 C    0.972
    30   1 H    1.009 --     9 C    0.984
    31   1 H    1.006 --     9 C    0.985
    32   1 H    1.004 --     9 C    0.981
    33   1 H    1.000 --    10 C    0.980
    34   1 H    1.000 --    10 C    0.984
    35   1 H    1.009 --    10 C    0.975
    36   1 H    0.952 --    11 N    0.894
    37   1 H    0.996 --    18 C    0.962
    38   1 H    0.996 --    18 C    0.963
    39   1 H    0.998 --    18 C    0.982
    40   1 H    1.008 --    21 C    0.976
    41   1 H    0.999 --    21 C    0.971
    42   1 H    1.001 --    21 C    0.972
    43   1 H    0.807 --     4 O    0.745
    44   1 H    1.008 --    26 C    0.974
    45   1 H    1.008 --    26 C    0.974
    46   1 H    1.005 --    26 C    0.983
 ---------------------------------------------------------------------------

           -------------------------------------------------
          | TOTAL ENERGY              -86.344113191424 Eh   |
          | GRADIENT NORM               0.000321747179 Eh/α |
          | HOMO-LUMO GAP               1.874347128467 eV   |
           -------------------------------------------------

 * finished run on 2023/06/20 at 15:39:01.021
