   * xtb version 6.5.1 (579679a) compiled by 'ehlert@majestix' on 2022-07-11
          program call               : /lustre/hpc/kemi/ree/PhD/git/ReactivityQM/dep/xtb-6.5.1/bin/xtb --gfn 1 /lustre/hpc/kemi/ree/PhD/git/ReactivityQM/calculations/R02methylcation/reac01prodE05/conf03/R02methylcation_reac01prodE05_conf03_gfn1.xyz --opt --vfukui --chrg -2 --uhf 0 --alpb DMSO

   ID    Z sym.   atoms
    1    6 C      1, 3, 5, 6, 8, 11-14, 16, 18, 21, 22, 25
    2    8 O      2, 4, 7, 9, 17, 23
    3    7 N      10, 15, 19, 20, 24
    4    1 H      26-42

      * Solvation model:               ALPB
        Solvent                        DMSO
        Solvent mass                       7.8130E+01 g/mol
          :  Hamiltonian                  GFN1-xTB          :
 * total energy  :   -83.5574342 Eh     change       -0.3511502E-10 Eh
 * total energy  :   -83.5685701 Eh     change       -0.1113590E-01 Eh
 * total energy  :   -83.5731748 Eh     change       -0.4604740E-02 Eh
 * total energy  :   -83.5743355 Eh     change       -0.1160627E-02 Eh
 * total energy  :   -83.5753405 Eh     change       -0.1005079E-02 Eh
 * total energy  :   -83.5758399 Eh     change       -0.4994026E-03 Eh
 * total energy  :   -83.5761497 Eh     change       -0.3097240E-03 Eh
 * total energy  :   -83.5763426 Eh     change       -0.1929819E-03 Eh
 * total energy  :   -83.5764775 Eh     change       -0.1348843E-03 Eh
 * total energy  :   -83.5765866 Eh     change       -0.1090446E-03 Eh
 * total energy  :   -83.5873873 Eh     change       -0.9166776E-05 Eh
 * total energy  :   -83.5873959 Eh     change       -0.8589853E-05 Eh
 * total energy  :   -83.5874050 Eh     change       -0.9047905E-05 Eh
 * total energy  :   -83.5874167 Eh     change       -0.1173685E-04 Eh
 * total energy  :   -83.5874310 Eh     change       -0.1425870E-04 Eh
 * total energy  :   -83.5874452 Eh     change       -0.1417429E-04 Eh
 * total energy  :   -83.5874545 Eh     change       -0.9307478E-05 Eh
 * total energy  :   -83.5874603 Eh     change       -0.5806929E-05 Eh
 * total energy  :   -83.5874644 Eh     change       -0.4113137E-05 Eh
   *** GEOMETRY OPTIMIZATION CONVERGED AFTER 112 ITERATIONS ***

 final structure:
================
42
 xtb: 6.5.1 (579679a)
C           -1.12093493448747        1.53929761691876       -2.95222824646995
O           -1.11209070470638        1.15142763017640       -1.59465729148839
C           -2.30481830494428        0.59102364060631       -1.12514653923778
O           -3.23920410459744        0.44517499652112       -1.91821785876910
C           -2.24920456478863        0.27742153857539        0.25893380290939
C           -3.30351170344548       -0.32907946034541        0.97759420807878
O           -4.40475148467318       -0.70334334178700        0.50800526273507
C           -3.00743711093391       -0.60285725017446        2.44712326451128
O           -3.89679473582459       -0.73344514795406        3.31527428791408
N           -1.70671231256567       -0.77305131365530        2.75908741803901
C           -0.59302199977798       -0.28604933628018        1.98151856800095
C            0.24465458592135       -1.44034394564559        1.39084470910331
C           -0.58379185194551       -2.59408298095514        0.77831839029074
C            1.14817792808106       -1.99527764503678        2.50727112629487
N            1.07749428833885       -0.83367307228918        0.34659533210879
C            2.01358821989054       -1.46296795304390       -0.37313474009363
O            2.34403978490440       -2.64959589278623       -0.24555585479238
C            2.67588023148153       -0.60461160814948       -1.37726106155888
N            3.59656094049786       -0.96871665734561       -2.23531267190585
N            3.92381847988627        0.14568761754092       -2.95734546715404
C            3.19387740390947        1.11440438371708       -2.50400871477763
C            3.18874865246105        2.52300509726615       -2.96149697474489
O            2.37974853880641        0.71740176206816       -1.50801810888783
N           -1.02720066832715        0.64874467693432        0.95915696991186
C           -1.11719229404839        2.01203217627984        1.51070070192538
H           -0.13064759956086        1.93536455375209       -3.18245552873801
H           -1.33225777685614        0.68880932647242       -3.61309841874644
H           -1.87127306070490        2.31746580600215       -3.13883134623650
H           -1.51744383549092       -0.98660722669902        3.72603244835169
H            0.06650170753040       -3.39395174657652        0.42354515152495
H           -1.24944964079463       -2.99949867487355        1.54055400537822
H           -1.18194907671120       -2.22555016770509       -0.05624723293669
H            1.80988872084394       -2.78084031317158        2.14236174282281
H            1.74851838403791       -1.18512416590644        2.92066581326712
H            0.52572853890161       -2.40421161264579        3.30235567163582
H            0.84161830795962        0.13173546049988        0.12304208940463
H            3.92549840745373        2.65042960407972       -3.75002138668714
H            3.42676879718178        3.18866474635805       -2.13261658771066
H            2.20333268503588        2.79420956853157       -3.34057854917602
H           -0.18044797692070        2.23456807480680        2.02410656254512
H           -1.94711247155188        2.12030301433216        2.22491860256669
H           -1.25719938946478        2.72571122157770        0.69554045076033

          :  Hamiltonian                  GFN1-xTB          :
         :: total energy             -83.587464378274 Eh    ::
         :: gradient norm              0.000314999701 Eh/a0 ::
         :: HOMO-LUMO gap              0.120074347553 eV    ::
         :: SCC energy               -84.306557253144 Eh    ::
         :: -> Gsolv                  -0.272562632876 Eh    ::
         :: repulsion energy           0.748206982567 Eh    ::

    * Orbital Energies and Occupations

         #    Occupation            Energy/Eh            Energy/eV
      -------------------------------------------------------------
         1        2.0000           -0.8324768             -22.6528
       ...           ...                  ...                  ...
        56        2.0000           -0.4365780             -11.8799
        57        2.0000           -0.4328901             -11.7795
        58        2.0000           -0.4278082             -11.6413
        59        2.0000           -0.4272097             -11.6250
        60        2.0000           -0.4136401             -11.2557
        61        2.0000           -0.4115512             -11.1989
        62        2.0000           -0.4023838             -10.9494
        63        2.0000           -0.4002228             -10.8906
        64        2.0000           -0.3802644             -10.3475
        65        2.0000           -0.3552334              -9.6664
        66        2.0000           -0.3369300              -9.1683
        67        2.0000           -0.3187424              -8.6734
        68        1.8214           -0.2804449              -7.6313 (HOMO)
        69        0.1786           -0.2760323              -7.5112 (LUMO)
        70                         -0.2315431              -6.3006
        71                         -0.2247996              -6.1171
        72                         -0.1607578              -4.3744
        73                         -0.1596152              -4.3434
        74                         -0.1373455              -3.7374
        75                         -0.1080740              -2.9408
        76                         -0.0981163              -2.6699
        77                         -0.0920868              -2.5058
        78                         -0.0843888              -2.2963
        79                         -0.0767683              -2.0890
       ...                                ...                  ...
       134                          0.7711557              20.9842
      -------------------------------------------------------------
                  HL-Gap            0.0044127 Eh            0.1201 eV

Wiberg/Mayer (AO) data.
largest (>0.10) Wiberg bond orders for each atom

     #   Z sym  total        # sym  WBO       # sym  WBO       # sym  WBO
 ---------------------------------------------------------------------------
     1   6 C    3.917 --    26 H    0.984    28 H    0.980    27 H    0.980
                             2 O    0.947
     2   8 O    2.102 --     3 C    0.957     1 C    0.947
     3   6 C    3.852 --     4 O    1.518     5 C    1.246     2 O    0.957
     4   8 O    1.818 --     3 C    1.518
     5   6 C    3.889 --     6 C    1.308     3 C    1.246    24 N    0.967
                             7 O    0.128
     6   6 C    3.932 --     7 O    1.485     5 C    1.308     8 C    0.950
     7   8 O    1.782 --     6 C    1.485     5 C    0.128
     8   6 C    3.882 --     9 O    1.478    10 N    1.272     6 C    0.950
     9   8 O    1.754 --     8 C    1.478    10 N    0.155
    10   7 N    3.376 --     8 C    1.272    11 C    0.943    29 H    0.918
                             9 O    0.155
    11   6 C    3.197 --    24 N    0.967    12 C    0.956    10 N    0.943
    12   6 C    3.899 --    14 C    0.988    13 C    0.976    11 C    0.956
                            15 N    0.912
    13   6 C    3.986 --    31 H    0.986    30 H    0.985    32 H    0.985
                            12 C    0.976
    14   6 C    3.991 --    12 C    0.988    34 H    0.987    35 H    0.986
                            33 H    0.984
    15   7 N    3.359 --    16 C    1.296    12 C    0.912    36 H    0.884
                            17 O    0.175
    16   6 C    3.881 --    17 O    1.493    15 N    1.296    18 C    1.017
    17   8 O    1.796 --    16 C    1.493    15 N    0.175
    18   6 C    3.787 --    19 N    1.557    23 O    1.024    16 C    1.017
    19   7 N    2.900 --    18 C    1.557    20 N    1.187
    20   7 N    2.978 --    21 C    1.623    19 N    1.187
    21   6 C    3.853 --    20 N    1.623    23 O    1.066    22 C    1.028
    22   6 C    3.991 --    21 C    1.028    37 H    0.984    38 H    0.968
                            39 H    0.965
    23   8 O    2.273 --    21 C    1.066    18 C    1.024
    24   7 N    3.087 --    25 C    0.971    11 C    0.967     5 C    0.967
    25   6 C    3.984 --    40 H    0.989    42 H    0.988    41 H    0.982
                            24 N    0.971
    26   1 H    1.022 --     1 C    0.984
    27   1 H    1.020 --     1 C    0.980
    28   1 H    1.018 --     1 C    0.980
    29   1 H    0.983 --    10 N    0.918
    30   1 H    1.016 --    13 C    0.985
    31   1 H    1.014 --    13 C    0.986
    32   1 H    1.019 --    13 C    0.985
    33   1 H    1.017 --    14 C    0.984
    34   1 H    1.023 --    14 C    0.987
    35   1 H    1.010 --    14 C    0.986
    36   1 H    0.989 --    15 N    0.884
    37   1 H    1.002 --    22 C    0.984
    38   1 H    0.999 --    22 C    0.968
    39   1 H    1.002 --    22 C    0.965
    40   1 H    1.037 --    25 C    0.989
    41   1 H    1.013 --    25 C    0.982
    42   1 H    1.025 --    25 C    0.988
 ---------------------------------------------------------------------------

           -------------------------------------------------
          | TOTAL ENERGY              -83.587464378274 Eh   |
          | GRADIENT NORM               0.000314999701 Eh/α |
          | HOMO-LUMO GAP               0.120074347553 eV   |
           -------------------------------------------------

 * finished run on 2023/06/21 at 17:12:24.013
