   * xtb version 6.5.1 (579679a) compiled by 'ehlert@majestix' on 2022-07-11
          program call               : /lustre/hpc/kemi/ree/PhD/git/ReactivityQM/dep/xtb-6.5.1/bin/xtb --gfn 1 /lustre/hpc/kemi/ree/PhD/git/ReactivityQM/calculations/R02/reac01prodE06/conf09/R02_reac01prodE06_conf09_gfn1.xyz --opt --vfukui --chrg -1 --uhf 0 --alpb DMSO

   ID    Z sym.   atoms
    1    6 C      1, 3, 5, 6, 8, 11-15, 17, 19, 22, 23
    2    8 O      2, 4, 7, 9, 18, 24
    3    7 N      10, 16, 20, 21, 25
    4    1 H      26-43

      * Solvation model:               ALPB
        Solvent                        DMSO
        Solvent mass                       7.8130E+01 g/mol
          :  Hamiltonian                  GFN1-xTB          :
 * total energy  :   -83.8609915 Eh     change       -0.3482228E-09 Eh
 * total energy  :   -83.8735844 Eh     change       -0.1259285E-01 Eh
 * total energy  :   -83.8790782 Eh     change       -0.5493780E-02 Eh
 * total energy  :   -83.8802757 Eh     change       -0.1197512E-02 Eh
 * total energy  :   -83.8810326 Eh     change       -0.7569473E-03 Eh
 * total energy  :   -83.8813176 Eh     change       -0.2849141E-03 Eh
 * total energy  :   -83.8815040 Eh     change       -0.1864838E-03 Eh
 * total energy  :   -83.8816639 Eh     change       -0.1598438E-03 Eh
 * total energy  :   -83.8818326 Eh     change       -0.1686725E-03 Eh
 * total energy  :   -83.8820131 Eh     change       -0.1805719E-03 Eh
 * total energy  :   -83.8838271 Eh     change       -0.7893908E-05 Eh
 * total energy  :   -83.8838362 Eh     change       -0.9089796E-05 Eh
 * total energy  :   -83.8838411 Eh     change       -0.4964423E-05 Eh
 * total energy  :   -83.8838494 Eh     change       -0.8250873E-05 Eh
 * total energy  :   -83.8838549 Eh     change       -0.5493038E-05 Eh
 * total energy  :   -83.8838616 Eh     change       -0.6757141E-05 Eh
 * total energy  :   -83.8838687 Eh     change       -0.7066757E-05 Eh
 * total energy  :   -83.8838753 Eh     change       -0.6628098E-05 Eh
 * total energy  :   -83.8838801 Eh     change       -0.4741325E-05 Eh
   *** GEOMETRY OPTIMIZATION CONVERGED AFTER 76 ITERATIONS ***

 final structure:
================
43
 xtb: 6.5.1 (579679a)
C            4.14596547001051        3.38555701311034        0.68827228553747
O            3.93168428201265        2.00216207712249        0.40760063075554
C            2.65717391282407        1.64677795821566        0.13097710988255
O            1.76864939898054        2.47466478894931        0.12670674958243
C            2.45523296620823        0.19507655730193       -0.13296737864771
C            3.48651891816975       -0.73371449614681       -0.29355421645064
O            4.84609979494837       -0.42019431657739       -0.36688819998925
C            3.17883297592240       -2.12706788608418       -0.38231369298366
O            3.99195952657179       -3.05717131552786       -0.49868988016097
N            1.82571223421339       -2.43672723805873       -0.21558994904107
C            0.79329256712198       -1.46276921070850       -0.53885695449942
C            0.48985053326787       -1.50445382139993       -2.05747008922801
C           -0.48757576618276       -1.79498063188010        0.30163967862408
C           -0.10305916497775       -1.90138116206331        1.78371791375362
C           -1.19776277317251       -3.06828285300291       -0.16192572388675
N           -1.35981933028099       -0.62962106187699        0.12864500160295
C           -2.60036104898450       -0.50779210536406        0.61262516974968
O           -3.26892014000700       -1.39060826080837        1.13402457060974
C           -3.11636245863459        0.87898644662946        0.41357257816346
N           -2.46233775879644        1.87980231880543       -0.09186898790636
N           -3.30517346646098        2.95317439089454       -0.07210549918353
C           -4.41836113582256        2.53776368362352        0.44607572929930
C           -5.65117734920438        3.32039829669193        0.68633913361661
O           -4.36411192158366        1.23794979991360        0.77536405138265
N            1.16200886061505       -0.11466321285688       -0.18376524935624
H            5.19113118165397        3.49565217796409        0.96912185074877
H            3.93007017347591        3.98934619011286       -0.19693868242967
H            3.50138879697923        3.71009180189281        1.50982893712003
H            4.98481532266800        0.53229396160703       -0.28878891499192
H            1.60497295083261       -3.38058517532800       -0.50093430961208
H            1.34744166387467       -1.11501384088403       -2.60441816697458
H           -0.37841812618758       -0.88625434775021       -2.27882675999970
H            0.30060586513182       -2.52376114378746       -2.38749828378902
H            0.39435741014502       -0.98389105204025        2.10024223070300
H            0.57875684682134       -2.73907407072358        1.92521764899779
H           -0.99022393548322       -2.05781385563987        2.39552346494345
H           -1.98211419076450       -3.34409011900505        0.54169847550310
H           -0.48585704881127       -3.88999427841930       -0.21903943321465
H           -1.65092652589669       -2.92492549195900       -1.14127261366244
H           -0.85638647325628        0.21828364315861       -0.13914945874242
H           -5.52130018042199        4.33222403122659        0.31106655310636
H           -5.87046707750453        3.35485457657608        1.75319573311769
H           -6.49580978001089        2.84977223409033        0.18436194795766

          :  Hamiltonian                  GFN1-xTB          :
         :: total energy             -83.883880062376 Eh    ::
         :: gradient norm              0.000762916747 Eh/a0 ::
         :: HOMO-LUMO gap              0.730908678013 eV    ::
         :: SCC energy               -84.639531450774 Eh    ::
         :: -> Gsolv                  -0.111869457355 Eh    ::
         :: repulsion energy           0.783457319010 Eh    ::

    * Orbital Energies and Occupations

         #    Occupation            Energy/Eh            Energy/eV
      -------------------------------------------------------------
         1        2.0000           -0.8541663             -23.2430
       ...           ...                  ...                  ...
        56        2.0000           -0.4757883             -12.9469
        57        2.0000           -0.4719852             -12.8434
        58        2.0000           -0.4620538             -12.5731
        59        2.0000           -0.4501513             -12.2492
        60        2.0000           -0.4489458             -12.2164
        61        2.0000           -0.4448393             -12.1047
        62        2.0000           -0.4382853             -11.9264
        63        2.0000           -0.4313312             -11.7371
        64        2.0000           -0.4253960             -11.5756
        65        2.0000           -0.4057029             -11.0397
        66        2.0000           -0.3925060             -10.6806
        67        2.0000           -0.3819799             -10.3942
        68        2.0000           -0.3223261              -8.7709 (HOMO)
        69        0.0000           -0.2954657              -8.0400 (LUMO)
        70                         -0.2711185              -7.3775
        71                         -0.2485633              -6.7638
        72                         -0.1931493              -5.2559
        73                         -0.1843472              -5.0163
        74                         -0.1397346              -3.8024
        75                         -0.1272311              -3.4621
        76                         -0.1174512              -3.1960
        77                         -0.1131043              -3.0777
        78                         -0.1042022              -2.8355
        79                         -0.0972368              -2.6459
       ...                                ...                  ...
       136                          0.7377463              20.0751
      -------------------------------------------------------------
                  HL-Gap            0.0268604 Eh            0.7309 eV

Wiberg/Mayer (AO) data.
largest (>0.10) Wiberg bond orders for each atom

     #   Z sym  total        # sym  WBO       # sym  WBO       # sym  WBO
 ---------------------------------------------------------------------------
     1   6 C    3.883 --    26 H    0.987    27 H    0.981    28 H    0.980
                             2 O    0.905
     2   8 O    2.187 --     3 C    1.062     1 C    0.905     4 O    0.119
     3   6 C    3.818 --     4 O    1.651     2 O    1.062     5 C    1.010
     4   8 O    1.905 --     3 C    1.651     2 O    0.119
     5   6 C    3.969 --    25 N    1.395     6 C    1.343     3 C    1.010
     6   6 C    3.867 --     5 C    1.343     8 C    1.182     7 O    0.977
                            25 N    0.183
     7   8 O    1.956 --     6 C    0.977    29 H    0.847
     8   6 C    3.915 --     9 O    1.498     6 C    1.182    10 N    1.083
     9   8 O    1.798 --     8 C    1.498    10 N    0.105
    10   7 N    3.201 --     8 C    1.083    11 C    0.944    30 H    0.919
                             9 O    0.105
    11   6 C    3.945 --    25 N    1.007    12 C    0.971    13 C    0.945
                            10 N    0.944
    12   6 C    3.996 --    32 H    0.985    33 H    0.985    31 H    0.985
                            11 C    0.971
    13   6 C    3.925 --    15 C    1.001    14 C    0.991    11 C    0.945
                            16 N    0.920
    14   6 C    3.995 --    13 C    0.991    36 H    0.986    35 H    0.984
                            34 H    0.983
    15   6 C    3.994 --    13 C    1.001    39 H    0.984    38 H    0.984
                            37 H    0.980
    16   7 N    3.384 --    17 C    1.298    13 C    0.920    40 H    0.875
                            18 O    0.186
    17   6 C    3.924 --    18 O    1.562    16 N    1.298    19 C    0.980
    18   8 O    1.882 --    17 C    1.562    16 N    0.186
    19   6 C    3.868 --    20 N    1.620    24 O    1.059    17 C    0.980
    20   7 N    3.010 --    19 C    1.620    21 N    1.191
    21   7 N    2.980 --    22 C    1.616    20 N    1.191
    22   6 C    3.874 --    21 N    1.616    24 O    1.080    23 C    1.030
    23   6 C    3.988 --    22 C    1.030    41 H    0.983    43 H    0.966
                            42 H    0.964
    24   8 O    2.322 --    22 C    1.080    19 C    1.059
    25   7 N    2.947 --     5 C    1.395    11 C    1.007     6 C    0.183
    26   1 H    1.012 --     1 C    0.987
    27   1 H    1.010 --     1 C    0.981
    28   1 H    1.012 --     1 C    0.980
    29   1 H    0.891 --     7 O    0.847
    30   1 H    0.967 --    10 N    0.919
    31   1 H    1.007 --    12 C    0.985
    32   1 H    1.010 --    12 C    0.985
    33   1 H    1.005 --    12 C    0.985
    34   1 H    1.017 --    14 C    0.983
    35   1 H    1.015 --    14 C    0.984
    36   1 H    1.008 --    14 C    0.986
    37   1 H    1.016 --    15 C    0.980
    38   1 H    1.003 --    15 C    0.984
    39   1 H    1.005 --    15 C    0.984
    40   1 H    0.990 --    16 N    0.875
    41   1 H    0.999 --    23 C    0.983
    42   1 H    0.998 --    23 C    0.964
    43   1 H    0.998 --    23 C    0.966
 ---------------------------------------------------------------------------

           -------------------------------------------------
          | TOTAL ENERGY              -83.883880062376 Eh   |
          | GRADIENT NORM               0.000762916747 Eh/α |
          | HOMO-LUMO GAP               0.730908678013 eV   |
           -------------------------------------------------

 * finished run on 2023/06/20 at 15:00:56.101
