   * xtb version 6.5.1 (579679a) compiled by 'ehlert@majestix' on 2022-07-11
          program call               : /lustre/hpc/kemi/ree/PhD/git/ReactivityQM/dep/xtb-6.5.1/bin/xtb --gfn 1 /lustre/hpc/kemi/ree/PhD/git/ReactivityQM/calculations/R02methylcation/reac01prodN04/conf17/R02methylcation_reac01prodN04_conf17_gfn1.xyz --opt --vfukui --chrg 0 --uhf 0 --alpb DMSO

   ID    Z sym.   atoms
    1    6 C      1, 3, 5, 6, 8-11, 13, 15, 18, 19, 22, 24
    2    8 O      2, 4, 14, 20, 23, 25
    3    7 N      7, 12, 16, 17, 21
    4    1 H      26-42

      * Solvation model:               ALPB
        Solvent                        DMSO
        Solvent mass                       7.8130E+01 g/mol
          :  Hamiltonian                  GFN1-xTB          :
 * total energy  :   -82.9636475 Eh     change       -0.1018918E-10 Eh
 * total energy  :   -82.9800892 Eh     change       -0.1644168E-01 Eh
 * total energy  :   -82.9857302 Eh     change       -0.5640983E-02 Eh
 * total energy  :   -82.9868994 Eh     change       -0.1169219E-02 Eh
 * total energy  :   -82.9876125 Eh     change       -0.7131228E-03 Eh
 * total energy  :   -82.9880140 Eh     change       -0.4014504E-03 Eh
 * total energy  :   -82.9884026 Eh     change       -0.3886362E-03 Eh
 * total energy  :   -82.9886950 Eh     change       -0.2923487E-03 Eh
 * total energy  :   -82.9888865 Eh     change       -0.1915498E-03 Eh
 * total energy  :   -82.9890096 Eh     change       -0.1231033E-03 Eh
 * total energy  :   -82.9899114 Eh     change       -0.1124247E-04 Eh
 * total energy  :   -82.9899174 Eh     change       -0.6022625E-05 Eh
 * total energy  :   -82.9899317 Eh     change       -0.1427470E-04 Eh
 * total energy  :   -82.9899397 Eh     change       -0.8052001E-05 Eh
 * total energy  :   -82.9899472 Eh     change       -0.7462787E-05 Eh
 * total energy  :   -82.9899559 Eh     change       -0.8665045E-05 Eh
 * total energy  :   -82.9899597 Eh     change       -0.3878341E-05 Eh
 * total energy  :   -82.9899621 Eh     change       -0.2391576E-05 Eh
 * total energy  :   -82.9899668 Eh     change       -0.4631939E-05 Eh
   *** GEOMETRY OPTIMIZATION CONVERGED AFTER 44 ITERATIONS ***

 final structure:
================
42
 xtb: 6.5.1 (579679a)
C           -5.21086194671587       -1.97953559796124       -0.46414952370880
O           -4.98624208115450       -0.59351845230966       -0.74141325502624
C           -3.87085113971604        0.06594938714161       -0.52230444172293
O           -3.74511693425640        1.16165919956581       -1.24992766995331
C           -4.75041616959541        1.48617823583305       -2.21313816320722
C           -2.81054871044757       -0.24147158255959        0.34642852442580
N           -1.67684457657528        0.53538507730626        0.10611973493947
C           -0.61611039617029        0.37543591968418        0.79746543254241
C            0.59833622032895        1.24427843081655        0.54793264433163
C            0.74413209491094        2.22646990539263        1.71949004348845
C            0.44435770703849        1.99193879070330       -0.77955330854392
N            1.76266094257964        0.35132874401418        0.48711101041798
C            3.03042066308048        0.79186556382195        0.32495348265007
O            3.38606680707695        1.95607152693621        0.32833436080824
C            3.96335279407809       -0.35137078260130        0.14937578554275
N            3.63250869940617       -1.60614044101377        0.08349585366921
N            4.78670770903275       -2.30795695868062       -0.09279344339560
C            5.74846473876618       -1.43560346170731       -0.12536011781882
C            7.19571395861108       -1.69289163433623       -0.29285816263174
O            5.29170402822598       -0.18313382713351        0.02117874859060
N           -0.52249345096878       -0.55107754644633        1.81509958190626
C           -1.55814941778689       -1.35663229481862        2.20697440073118
O           -1.41341124673930       -2.17719302447361        3.09402389532623
C           -2.86783457255529       -1.14172421369512        1.46428659810070
O           -3.88130662820923       -1.69907196473545        1.88280971621510
H           -4.27535237567382       -2.53841219422528       -0.49318296266062
H           -5.88253487302300       -2.33253841443783       -1.24741441538147
H           -5.68831252862691       -2.09155248479030        0.51048209677278
H           -4.39677043951058        2.37674447664058       -2.72928477763531
H           -4.87767533773305        0.66334585027715       -2.91929850402090
H           -5.70032981798649        1.68954132089342       -1.71429784857286
H           -0.17144660848481        2.80852973136229        1.81432933538442
H            1.57746686836133        2.90386508516453        1.54456624324694
H            0.91563905576516        1.68200740975582        2.64609209926017
H            0.33470336588921        1.28123612451900       -1.59696486152052
H           -0.44623527671551        2.61706713410363       -0.73868763390077
H            1.31584979864155        2.61863109308833       -0.95881397671689
H            1.59642939773825       -0.63536439318978        0.35510874251521
H            7.36329913163919       -2.75805774840989       -0.43269430851672
H            7.73872084075066       -1.35099814374181        0.58875279018607
H            7.57428364432020       -1.14528290701659       -1.15600170270041
H            0.34802806241527       -0.65799693873220        2.31276595658645

          :  Hamiltonian                  GFN1-xTB          :
         :: total energy             -82.989966754464 Eh    ::
         :: gradient norm              0.000418174791 Eh/a0 ::
         :: HOMO-LUMO gap              2.339280498471 eV    ::
         :: SCC energy               -83.769315676732 Eh    ::
         :: -> Gsolv                  -0.055184345087 Eh    ::
         :: repulsion energy           0.804599077521 Eh    ::

    * Orbital Energies and Occupations

         #    Occupation            Energy/Eh            Energy/eV
      -------------------------------------------------------------
         1        2.0000           -0.8637023             -23.5025
       ...           ...                  ...                  ...
        55        2.0000           -0.5057753             -13.7628
        56        2.0000           -0.5042428             -13.7211
        57        2.0000           -0.5000697             -13.6076
        58        2.0000           -0.4931975             -13.4206
        59        2.0000           -0.4826348             -13.1332
        60        2.0000           -0.4770567             -12.9814
        61        2.0000           -0.4657286             -12.6731
        62        2.0000           -0.4610152             -12.5449
        63        2.0000           -0.4533445             -12.3361
        64        2.0000           -0.4502581             -12.2521
        65        2.0000           -0.4470439             -12.1647
        66        2.0000           -0.4240369             -11.5386
        67        2.0000           -0.4155628             -11.3080 (HOMO)
        68                         -0.3295959              -8.9688 (LUMO)
        69                         -0.3111004              -8.4655
        70                         -0.2738165              -7.4509
        71                         -0.2569249              -6.9913
        72                         -0.2522087              -6.8629
        73                         -0.1992451              -5.4217
        74                         -0.1601653              -4.3583
        75                         -0.1478403              -4.0229
        76                         -0.1420063              -3.8642
        77                         -0.1378186              -3.7502
        78                         -0.1262573              -3.4356
       ...                                ...                  ...
       134                          0.7502910              20.4165
      -------------------------------------------------------------
                  HL-Gap            0.0859670 Eh            2.3393 eV

Wiberg/Mayer (AO) data.
largest (>0.10) Wiberg bond orders for each atom

     #   Z sym  total        # sym  WBO       # sym  WBO       # sym  WBO
 ---------------------------------------------------------------------------
     1   6 C    3.843 --    26 H    0.982    27 H    0.980    28 H    0.969
                             2 O    0.871
     2   8 O    2.227 --     3 C    1.150     1 C    0.871
     3   6 C    3.830 --     6 C    1.313     2 O    1.150     4 O    1.147
     4   8 O    2.228 --     3 C    1.147     5 C    0.888
     5   6 C    3.861 --    29 H    0.984    31 H    0.978    30 H    0.978
                             4 O    0.888
     6   6 C    3.923 --     3 C    1.313    24 C    1.184     7 N    1.105
     7   7 N    3.027 --     8 C    1.669     6 C    1.105
     8   6 C    3.932 --     7 N    1.669    21 N    1.098     9 C    0.979
     9   6 C    3.933 --    11 C    0.992    10 C    0.980     8 C    0.979
                            12 N    0.919
    10   6 C    3.987 --    32 H    0.985    34 H    0.984     9 C    0.980
                            33 H    0.978
    11   6 C    3.990 --     9 C    0.992    35 H    0.985    36 H    0.984
                            37 H    0.983
    12   7 N    3.335 --    13 C    1.245     9 C    0.919    38 H    0.895
                            14 O    0.175
    13   6 C    3.916 --    14 O    1.599    12 N    1.245    15 C    0.988
    14   8 O    1.915 --    13 C    1.599    12 N    0.175
    15   6 C    3.875 --    16 N    1.610    20 O    1.065    13 C    0.988
    16   7 N    3.018 --    15 C    1.610    17 N    1.200
    17   7 N    2.981 --    18 C    1.605    16 N    1.200
    18   6 C    3.871 --    17 N    1.605    20 O    1.083    19 C    1.031
    19   6 C    3.986 --    18 C    1.031    39 H    0.983    41 H    0.964
                            40 H    0.962
    20   8 O    2.331 --    18 C    1.083    15 C    1.065
    21   7 N    3.432 --    22 C    1.162     8 C    1.098    42 H    0.887
                            23 O    0.139
    22   6 C    3.885 --    23 O    1.636    21 N    1.162    24 C    0.942
    23   8 O    1.912 --    22 C    1.636    21 N    0.139
    24   6 C    3.920 --    25 O    1.601     6 C    1.184    22 C    0.942
    25   8 O    1.924 --    24 C    1.601
    26   1 H    1.007 --     1 C    0.982
    27   1 H    1.009 --     1 C    0.980
    28   1 H    1.022 --     1 C    0.969
    29   1 H    1.009 --     5 C    0.984
    30   1 H    1.004 --     5 C    0.978
    31   1 H    1.005 --     5 C    0.978
    32   1 H    1.002 --    10 C    0.985
    33   1 H    1.010 --    10 C    0.978
    34   1 H    1.001 --    10 C    0.984
    35   1 H    1.006 --    11 C    0.985
    36   1 H    1.010 --    11 C    0.984
    37   1 H    1.006 --    11 C    0.983
    38   1 H    0.952 --    12 N    0.895
    39   1 H    0.998 --    19 C    0.983
    40   1 H    0.997 --    19 C    0.962
    41   1 H    0.997 --    19 C    0.964
    42   1 H    0.933 --    21 N    0.887
 ---------------------------------------------------------------------------

           -------------------------------------------------
          | TOTAL ENERGY              -82.989966754464 Eh   |
          | GRADIENT NORM               0.000418174791 Eh/α |
          | HOMO-LUMO GAP               2.339280498471 eV   |
           -------------------------------------------------

 * finished run on 2023/06/21 at 17:34:12.732
