                         Program Version 5.0.1 -  RELEASE  -
|  1> # ORCA input file
|  2> ! SP r2SCAN-3c CPCM
|  3>
|  4> %maxcore 1875.0
|  5> %pal nprocs 4 end
|  6> %cpcm smd true SMDsolvent "DMSO" end
|  7>
|  8> *xyz 0 1
|  9> C       6.231178   -0.699232   -1.902054
| 10> C       5.484644   -0.885746   -0.639323
| 11> N       5.887354   -1.475735    0.442755
| 12> N       4.863974   -1.396268    1.337919
| 13> C       3.898079   -0.764083    0.747444
| 14> C       2.573628   -0.411911    1.312496
| 15> O       2.285910   -0.677400    2.472042
| 16> N       1.762650    0.181943    0.417381
| 17> C       0.464344    0.810273    0.707028
| 18> C       0.555760    1.675940    1.971258
| 19> C       0.130381    1.685659   -0.502004
| 20> C      -0.620363   -0.241059    0.881949
| 21> N      -1.713015   -0.128205    0.222442
| 22> C      -2.728378   -1.061849    0.393693
| 23> C      -3.906817   -0.917658   -0.312797
| 24> O      -4.942060   -1.467293   -0.473094
| 25> O      -3.809470    0.486706   -1.256772
| 26> C      -4.725915    0.394212   -2.359194
| 27> C      -3.984954    1.672181   -0.462049
| 28> C      -2.604263   -2.191039    1.283516
| 29> O      -3.458601   -3.052871    1.454522
| 30> C      -1.293128   -2.257231    2.051486
| 31> O      -1.032285   -3.132972    2.857715
| 32> N      -0.404877   -1.251171    1.786578
| 33> O       4.232440   -0.415063   -0.513928
| 34> H       6.265250    0.358887   -2.159148
| 35> H       5.728408   -1.225813   -2.713255
| 36> H       7.242559   -1.082876   -1.790371
| 37> H       2.139407    0.362755   -0.499157
| 38> H      -0.380992    2.215980    2.097655
| 39> H       1.367176    2.393637    1.864327
| 40> H       0.732601    1.066011    2.854990
| 41> H       0.909173    2.431371   -0.648235
| 42> H       0.043433    1.074254   -1.398869
| 43> H      -0.818054    2.193045   -0.336905
| 44> H      -4.463872   -0.501886   -2.918929
| 45> H      -4.591323    1.280314   -2.976335
| 46> H      -5.754435    0.333518   -1.996284
| 47> H      -3.206274    1.658925    0.298174
| 48> H      -3.853775    2.533555   -1.115550
| 49> H      -4.977680    1.686205   -0.007238
| 50> H       0.472180   -1.258010    2.303376
| 51> **                         ****END OF INPUT****

CARTESIAN COORDINATES (ANGSTROEM)
---------------------------------
  C      6.231178   -0.699232   -1.902054
  C      5.484644   -0.885746   -0.639323
  N      5.887354   -1.475735    0.442755
  N      4.863974   -1.396268    1.337919
  C      3.898079   -0.764083    0.747444
  C      2.573628   -0.411911    1.312496
  O      2.285910   -0.677400    2.472042
  N      1.762650    0.181943    0.417381
  C      0.464344    0.810273    0.707028
  C      0.555760    1.675940    1.971258
  C      0.130381    1.685659   -0.502004
  C     -0.620363   -0.241059    0.881949
  N     -1.713015   -0.128205    0.222442
  C     -2.728378   -1.061849    0.393693
  C     -3.906817   -0.917658   -0.312797
  O     -4.942060   -1.467293   -0.473094
  O     -3.809470    0.486706   -1.256772
  C     -4.725915    0.394212   -2.359194
  C     -3.984954    1.672181   -0.462049
  C     -2.604263   -2.191039    1.283516
  O     -3.458601   -3.052871    1.454522
  C     -1.293128   -2.257231    2.051486
  O     -1.032285   -3.132972    2.857715
  N     -0.404877   -1.251171    1.786578
  O      4.232440   -0.415063   -0.513928
  H      6.265250    0.358887   -2.159148
  H      5.728408   -1.225813   -2.713255
  H      7.242559   -1.082876   -1.790371
  H      2.139407    0.362755   -0.499157
  H     -0.380992    2.215980    2.097655
  H      1.367176    2.393637    1.864327
  H      0.732601    1.066011    2.854990
  H      0.909173    2.431371   -0.648235
  H      0.043433    1.074254   -1.398869
  H     -0.818054    2.193045   -0.336905
  H     -4.463872   -0.501886   -2.918929
  H     -4.591323    1.280314   -2.976335
  H     -5.754435    0.333518   -1.996284
  H     -3.206274    1.658925    0.298174
  H     -3.853775    2.533555   -1.115550
  H     -4.977680    1.686205   -0.007238
  H      0.472180   -1.258010    2.303376

 Total Charge           Charge          ....    0
 Multiplicity           Mult            ....    1
 Number of Electrons    NEL             ....  184
 Basis Dimension        Dim             ....  615

ORBITAL ENERGIES
----------------

  NO   OCC          E(Eh)            E(eV)
   0   2.0000     -19.068776      -518.8878
   1   2.0000     -19.052649      -518.4489
   2   2.0000     -18.980302      -516.4803
   3   2.0000     -18.946342      -515.5562
   4   2.0000     -18.928471      -515.0699
   5   2.0000     -18.920370      -514.8495
   6   2.0000     -14.210122      -386.6771
   7   2.0000     -14.209595      -386.6627
   8   2.0000     -14.208141      -386.6232
   9   2.0000     -14.199584      -386.3903
  10   2.0000     -14.158436      -385.2706
  11   2.0000     -10.167089      -276.6605
  12   2.0000     -10.167005      -276.6583
  13   2.0000     -10.149958      -276.1944
  14   2.0000     -10.146562      -276.1020
  15   2.0000     -10.137305      -275.8501
  16   2.0000     -10.112159      -275.1658
  17   2.0000     -10.109824      -275.1023
  18   2.0000     -10.105238      -274.9775
  19   2.0000     -10.089802      -274.5575
  20   2.0000     -10.088215      -274.5143
  21   2.0000     -10.073380      -274.1106
  22   2.0000     -10.046277      -273.3731
  23   2.0000     -10.023101      -272.7424
  24   2.0000     -10.023057      -272.7412
  25   2.0000      -1.158274       -31.5182
  26   2.0000      -1.088195       -29.6113
  27   2.0000      -1.041394       -28.3378
  28   2.0000      -1.035605       -28.1802
  29   2.0000      -1.021831       -27.8054
  30   2.0000      -0.982330       -26.7305
  31   2.0000      -0.978751       -26.6332
  32   2.0000      -0.955786       -26.0083
  33   2.0000      -0.919286       -25.0150
  34   2.0000      -0.869888       -23.6709
  35   2.0000      -0.834427       -22.7059
  36   2.0000      -0.783276       -21.3140
  37   2.0000      -0.737771       -20.0758
  38   2.0000      -0.719114       -19.5681
  39   2.0000      -0.715223       -19.4622
  40   2.0000      -0.675312       -18.3762
  41   2.0000      -0.671145       -18.2628
  42   2.0000      -0.662707       -18.0332
  43   2.0000      -0.636707       -17.3257
  44   2.0000      -0.621501       -16.9119
  45   2.0000      -0.606150       -16.4942
  46   2.0000      -0.588544       -16.0151
  47   2.0000      -0.559643       -15.2287
  48   2.0000      -0.550631       -14.9834
  49   2.0000      -0.539879       -14.6909
  50   2.0000      -0.526003       -14.3133
  51   2.0000      -0.511167       -13.9096
  52   2.0000      -0.497153       -13.5282
  53   2.0000      -0.489151       -13.3105
  54   2.0000      -0.483253       -13.1500
  55   2.0000      -0.466817       -12.7027
  56   2.0000      -0.463828       -12.6214
  57   2.0000      -0.456359       -12.4182
  58   2.0000      -0.445804       -12.1310
  59   2.0000      -0.434090       -11.8122
  60   2.0000      -0.427788       -11.6407
  61   2.0000      -0.419381       -11.4119
  62   2.0000      -0.411748       -11.2042
  63   2.0000      -0.406312       -11.0563
  64   2.0000      -0.402672       -10.9573
  65   2.0000      -0.399050       -10.8587
  66   2.0000      -0.390021       -10.6130
  67   2.0000      -0.387480       -10.5439
  68   2.0000      -0.383818       -10.4442
  69   2.0000      -0.382651       -10.4125
  70   2.0000      -0.379025       -10.3138
  71   2.0000      -0.376140       -10.2353
  72   2.0000      -0.367750       -10.0070
  73   2.0000      -0.357341        -9.7237
  74   2.0000      -0.353555        -9.6207
  75   2.0000      -0.347528        -9.4567
  76   2.0000      -0.345561        -9.4032
  77   2.0000      -0.339552        -9.2397
  78   2.0000      -0.336119        -9.1463
  79   2.0000      -0.324654        -8.8343
  80   2.0000      -0.318585        -8.6691
  81   2.0000      -0.316837        -8.6216
  82   2.0000      -0.284523        -7.7423
  83   2.0000      -0.271360        -7.3841
  84   2.0000      -0.270330        -7.3561
  85   2.0000      -0.267829        -7.2880
  86   2.0000      -0.266581        -7.2540
  87   2.0000      -0.258781        -7.0418
  88   2.0000      -0.256498        -6.9797
  89   2.0000      -0.235723        -6.4143
  90   2.0000      -0.203940        -5.5495
  91   2.0000      -0.192435        -5.2364
  92   0.0000      -0.093309        -2.5391
  93   0.0000      -0.090835        -2.4717
  94   0.0000      -0.028039        -0.7630
  95   0.0000      -0.022051        -0.6000
  96   0.0000      -0.009589        -0.2609

MULLIKEN ATOMIC CHARGES
-----------------------
   0 C :   -0.633240
   1 C :    0.400633
   2 N :   -0.275407
   3 N :   -0.174596
   4 C :    0.375210
   5 C :   -0.055454
   6 O :   -0.494807
   7 N :   -0.109131
   8 C :    0.136355
   9 C :   -0.562516
  10 C :   -0.598662
  11 C :    0.106366
  12 N :   -0.138146
  13 C :   -0.000573
  14 C :    0.264654
  15 O :   -0.278412
  16 O :   -0.205172
  17 C :   -0.277203
  18 C :   -0.301690
  19 C :    0.024344
  20 O :   -0.357724
  21 C :    0.050844
  22 O :   -0.383501
  23 N :   -0.016587
  24 O :   -0.055884
  25 H :    0.200525
  26 H :    0.203666
  27 H :    0.205889
  28 H :    0.327939
  29 H :    0.188071
  30 H :    0.195781
  31 H :    0.196578
  32 H :    0.186376
  33 H :    0.192671
  34 H :    0.194565
  35 H :    0.194878
  36 H :    0.192595
  37 H :    0.195899
  38 H :    0.210125
  39 H :    0.192936
  40 H :    0.190378
  41 H :    0.291424
Sum of atomic charges:   -0.0000000

LOEWDIN ATOMIC CHARGES
----------------------
   0 C :   -0.316352
   1 C :    0.381809
   2 N :   -0.356285
   3 N :   -0.330665
   4 C :    0.415377
   5 C :    0.385571
   6 O :   -0.487494
   7 N :   -0.557545
   8 C :    0.110232
   9 C :   -0.341757
  10 C :   -0.336460
  11 C :    0.342043
  12 N :   -0.605868
  13 C :    0.109307
  14 C :    0.453063
  15 O :   -0.341780
  16 O :   -0.770578
  17 C :   -0.018853
  18 C :   -0.024384
  19 C :    0.276571
  20 O :   -0.493166
  21 C :    0.368773
  22 O :   -0.435801
  23 N :   -0.465580
  24 O :   -0.391036
  25 H :    0.191855
  26 H :    0.193123
  27 H :    0.191770
  28 H :    0.302651
  29 H :    0.174403
  30 H :    0.175689
  31 H :    0.181886
  32 H :    0.170174
  33 H :    0.176996
  34 H :    0.181811
  35 H :    0.200537
  36 H :    0.197811
  37 H :    0.191712
  38 H :    0.210073
  39 H :    0.196460
  40 H :    0.186503
  41 H :    0.307403

  Mayer bond orders larger than 0.100000
B(  0-C ,  1-C ) :   0.8266 B(  0-C , 25-H ) :   0.9453 B(  0-C , 26-H ) :   0.9384
B(  0-C , 27-H ) :   0.9890 B(  1-C ,  2-N ) :   1.6194 B(  1-C ,  4-C ) :   0.1202
B(  1-C , 24-O ) :   1.0620 B(  2-N ,  3-N ) :   1.2689 B(  3-N ,  4-C ) :   1.7114
B(  4-C ,  5-C ) :   0.8536 B(  4-C , 24-O ) :   1.0886 B(  5-C ,  6-O ) :   1.7854
B(  5-C ,  7-N ) :   1.2173 B(  7-N ,  8-C ) :   0.8046 B(  7-N , 28-H ) :   0.8799
B(  8-C ,  9-C ) :   0.8922 B(  8-C , 10-C ) :   0.9108 B(  8-C , 11-C ) :   0.9838
B(  9-C , 29-H ) :   0.9569 B(  9-C , 30-H ) :   0.9775 B(  9-C , 31-H ) :   0.9431
B( 10-C , 32-H ) :   0.9713 B( 10-C , 33-H ) :   0.9613 B( 10-C , 34-H ) :   0.9607
B( 11-C , 12-N ) :   1.8035 B( 11-C , 23-N ) :   1.0903 B( 12-N , 13-C ) :   0.9057
B( 13-C , 14-C ) :   1.1404 B( 13-C , 19-C ) :   1.0640 B( 13-C , 20-O ) :  -0.1037
B( 14-C , 15-O ) :   2.0039 B( 14-C , 16-O ) :   0.4708 B( 14-C , 20-O ) :   0.1067
B( 16-O , 17-C ) :   0.8503 B( 16-O , 18-C ) :   0.8331 B( 17-C , 35-H ) :   0.9510
B( 17-C , 36-H ) :   0.9408 B( 17-C , 37-H ) :   0.9389 B( 18-C , 38-H ) :   0.9383
B( 18-C , 39-H ) :   0.9473 B( 18-C , 40-H ) :   0.9355 B( 19-C , 20-O ) :   1.9382
B( 19-C , 21-C ) :   0.8595 B( 21-C , 22-O ) :   2.0564 B( 21-C , 23-N ) :   1.0337
B( 23-N , 41-H ) :   0.8534

Dispersion correction           -0.019004671
FINAL SINGLE POINT ENERGY     -1268.600258534535

DIPOLE MOMENT
-------------
                                X             Y             Z
Electronic contribution:      4.19522     -17.45107       9.85311
Nuclear contribution   :     -4.29958      24.10222     -15.82335
                        -----------------------------------------
Total Dipole Moment    :     -0.10436       6.65114      -5.97024
                        -----------------------------------------
Magnitude (a.u.)       :      8.93825
Magnitude (Debye)      :     22.71923

Rotational constants in cm-1:     0.013311     0.003612     0.003240
Rotational constants in MHz :   399.052828   108.271725    97.118853

                             ****ORCA TERMINATED NORMALLY****
TOTAL RUN TIME: 0 days 0 hours 2 minutes 26 seconds 146 msec
