   * xtb version 6.5.1 (579679a) compiled by 'ehlert@majestix' on 2022-07-11
          program call               : /lustre/hpc/kemi/ree/PhD/git/ReactivityQM/dep/xtb-6.5.1/bin/xtb --gfn 1 /lustre/hpc/kemi/ree/PhD/git/ReactivityQM/calculations/R02methylcation/reac01prodN16/conf05/R02methylcation_reac01prodN16_conf05_gfn1.xyz --opt --vfukui --chrg 0 --uhf 0 --alpb DMSO

   ID    Z sym.   atoms
    1    6 C      1, 2, 5, 6, 9-12, 14, 15, 18-20, 22
    2    7 N      3, 4, 8, 13, 24
    3    8 O      7, 16, 17, 21, 23, 25
    4    1 H      26-42

      * Solvation model:               ALPB
        Solvent                        DMSO
        Solvent mass                       7.8130E+01 g/mol
          :  Hamiltonian                  GFN1-xTB          :
 * total energy  :   -82.9274923 Eh     change       -0.6920686E-11 Eh
 * total energy  :   -82.9430087 Eh     change       -0.1551643E-01 Eh
 * total energy  :   -82.9497355 Eh     change       -0.6726796E-02 Eh
 * total energy  :   -82.9514791 Eh     change       -0.1743604E-02 Eh
 * total energy  :   -82.9535203 Eh     change       -0.2041231E-02 Eh
 * total energy  :   -82.9549372 Eh     change       -0.1416838E-02 Eh
 * total energy  :   -82.9559440 Eh     change       -0.1006849E-02 Eh
 * total energy  :   -82.9564919 Eh     change       -0.5478829E-03 Eh
 * total energy  :   -82.9567961 Eh     change       -0.3042306E-03 Eh
 * total energy  :   -82.9569496 Eh     change       -0.1534233E-03 Eh
 * total energy  :   -82.9590575 Eh     change       -0.2208174E-04 Eh
 * total energy  :   -82.9590698 Eh     change       -0.1237436E-04 Eh
 * total energy  :   -82.9590767 Eh     change       -0.6916269E-05 Eh
 * total energy  :   -82.9590837 Eh     change       -0.6953341E-05 Eh
 * total energy  :   -82.9590914 Eh     change       -0.7671297E-05 Eh
 * total energy  :   -82.9590993 Eh     change       -0.7910407E-05 Eh
 * total energy  :   -82.9591066 Eh     change       -0.7315865E-05 Eh
 * total energy  :   -82.9591128 Eh     change       -0.6232795E-05 Eh
 * total energy  :   -82.9591157 Eh     change       -0.2882231E-05 Eh
   *** GEOMETRY OPTIMIZATION CONVERGED AFTER 44 ITERATIONS ***

 final structure:
================
42
 xtb: 6.5.1 (579679a)
C            6.23117781128072       -0.69923194456037       -1.90205417164194
C            5.48464382714658       -0.88574648651929       -0.63932274652449
N            5.88735432795887       -1.47573478956772        0.44275502171191
N            4.86397357671245       -1.39626759364873        1.33791885825911
C            3.89807896502014       -0.76408320393822        0.74744388224987
C            2.57362781246778       -0.41191072693959        1.31249645013257
O            2.28590965182044       -0.67739997661272        2.47204152958660
N            1.76264963788910        0.18194321266227        0.41738118168315
C            0.46434419818240        0.81027269973416        0.70702811595517
C            0.55576005181750        1.67594009087352        1.97125814787562
C            0.13038137969028        1.68565913283631       -0.50200357423312
C           -0.62036317854385       -0.24105865685747        0.88194935405559
N           -1.71301491420014       -0.12820520495404        0.22244232996903
C           -2.72837830840658       -1.06184850193579        0.39369339414857
C           -3.90681734626850       -0.91765816685822       -0.31279665792668
O           -4.94206022443444       -1.46729330674019       -0.47309415614791
O           -3.80946981112827        0.48670603441202       -1.25677173727923
C           -4.72591496209531        0.39421163642151       -2.35919364826124
C           -3.98495350411352        1.67218109814358       -0.46204948254320
C           -2.60426321712576       -2.19103857527809        1.28351577200900
O           -3.45860131148504       -3.05287123793725        1.45452212082422
C           -1.29312765801335       -2.25723104243474        2.05148586251563
O           -1.03228518158509       -3.13297241928417        2.85771493942006
N           -0.40487709351651       -1.25117098372205        1.78657832436863
O            4.23244049322839       -0.41506259536101       -0.51392842793986
H            6.26525047568200        0.35888697676607       -2.15914828873046
H            5.72840827679089       -1.22581265697766       -2.71325484585296
H            7.24255881366940       -1.08287644954612       -1.79037057630748
H            2.13940687539634        0.36275514067043       -0.49915717356290
H           -0.38099231911834        2.21598009856960        2.09765514475728
H            1.36717646984153        2.39363693315791        1.86432730042639
H            0.73260123612883        1.06601128253946        2.85498972364168
H            0.90917306817894        2.43137072311598       -0.64823535252326
H            0.04343343527397        1.07425370432436       -1.39886913617292
H           -0.81805379365908        2.19304467534826       -0.33690478791252
H           -4.46387228758620       -0.50188614810963       -2.91892907008053
H           -4.59132328832001        1.28031419356744       -2.97633524812331
H           -5.75443468785386        0.33351789229033       -1.99628350647774
H           -3.20627416753066        1.65892492645341        0.29817396816615
H           -3.85377490715088        2.53355471247194       -1.11554966718791
H           -4.97768005196623        1.68620476328356       -0.00723762071431
H            0.47217982991845       -1.25801025986461        2.30337645437884

          :  Hamiltonian                  GFN1-xTB          :
         :: total energy             -82.959115712335 Eh    ::
         :: gradient norm              0.000257321938 Eh/a0 ::
         :: HOMO-LUMO gap              2.469163784881 eV    ::
         :: SCC energy               -83.755665662679 Eh    ::
         :: -> Gsolv                  -0.075889968509 Eh    ::
         :: repulsion energy           0.822973961308 Eh    ::

    * Orbital Energies and Occupations

         #    Occupation            Energy/Eh            Energy/eV
      -------------------------------------------------------------
         1        2.0000           -0.8691741             -23.6514
       ...           ...                  ...                  ...
        55        2.0000           -0.5059586             -13.7678
        56        2.0000           -0.5042793             -13.7221
        57        2.0000           -0.4998326             -13.6011
        58        2.0000           -0.4940113             -13.4427
        59        2.0000           -0.4806943             -13.0804
        60        2.0000           -0.4727132             -12.8632
        61        2.0000           -0.4679742             -12.7342
        62        2.0000           -0.4638289             -12.6214
        63        2.0000           -0.4549182             -12.3790
        64        2.0000           -0.4530694             -12.3286
        65        2.0000           -0.4438544             -12.0779
        66        2.0000           -0.4175399             -11.3618
        67        2.0000           -0.4109338             -11.1821 (HOMO)
        68                         -0.3201937              -8.7129 (LUMO)
        69                         -0.3132083              -8.5228
        70                         -0.2705249              -7.3614
        71                         -0.2574111              -7.0045
        72                         -0.2375633              -6.4644
        73                         -0.2065236              -5.6198
        74                         -0.2010432              -5.4707
        75                         -0.1573095              -4.2806
        76                         -0.1487193              -4.0469
        77                         -0.1452023              -3.9512
        78                         -0.1422003              -3.8695
       ...                                ...                  ...
       134                          0.8609976              23.4289
      -------------------------------------------------------------
                  HL-Gap            0.0907401 Eh            2.4692 eV

Wiberg/Mayer (AO) data.
largest (>0.10) Wiberg bond orders for each atom

     #   Z sym  total        # sym  WBO       # sym  WBO       # sym  WBO
 ---------------------------------------------------------------------------
     1   6 C    3.986 --     2 C    1.032    28 H    0.982    26 H    0.964
                            27 H    0.961
     2   6 C    3.868 --     3 N    1.610    25 O    1.072     1 C    1.032
     3   7 N    2.982 --     2 C    1.610     4 N    1.200
     4   7 N    3.001 --     5 C    1.621     3 N    1.200
     5   6 C    3.873 --     4 N    1.621    25 O    1.047     6 C    0.997
     6   6 C    3.916 --     7 O    1.558     8 N    1.273     5 C    0.997
     7   8 O    1.913 --     6 C    1.558     8 N    0.175
     8   7 N    3.352 --     6 C    1.273     9 C    0.917    29 H    0.893
                             7 O    0.175
     9   6 C    3.934 --    11 C    1.001    10 C    0.981    12 C    0.971
                             8 N    0.917
    10   6 C    3.986 --    30 H    0.985    31 H    0.983     9 C    0.981
                            32 H    0.979
    11   6 C    3.991 --     9 C    1.001    33 H    0.984    34 H    0.983
                            35 H    0.981
    12   6 C    3.935 --    13 N    1.646    24 N    1.122     9 C    0.971
    13   7 N    3.038 --    12 C    1.646    14 C    1.109
    14   6 C    3.918 --    15 C    1.331    20 C    1.151    13 N    1.109
                            16 O    0.112
    15   6 C    3.811 --    16 O    1.775    14 C    1.331    17 O    0.504
    16   8 O    2.107 --    15 C    1.775    14 C    0.112
    17   8 O    2.396 --    18 C    0.874    19 C    0.871    15 C    0.504
    18   6 C    3.844 --    38 H    0.979    36 H    0.979    37 H    0.978
                            17 O    0.874
    19   6 C    3.843 --    41 H    0.982    40 H    0.978    39 H    0.973
                            17 O    0.871
    20   6 C    3.920 --    21 O    1.629    14 C    1.151    22 C    0.939
    21   8 O    1.915 --    20 C    1.629
    22   6 C    3.888 --    23 O    1.627    24 N    1.171    20 C    0.939
    23   8 O    1.903 --    22 C    1.627    24 N    0.139
    24   7 N    3.444 --    22 C    1.171    12 C    1.122    42 H    0.853
                            23 O    0.139
    25   8 O    2.316 --     2 C    1.072     5 C    1.047
    26   1 H    0.996 --     1 C    0.964
    27   1 H    0.997 --     1 C    0.961
    28   1 H    0.998 --     1 C    0.982
    29   1 H    0.937 --     8 N    0.893
    30   1 H    1.001 --    10 C    0.985
    31   1 H    0.999 --    10 C    0.983
    32   1 H    1.009 --    10 C    0.979
    33   1 H    0.998 --    11 C    0.984
    34   1 H    1.003 --    11 C    0.983
    35   1 H    1.010 --    11 C    0.981
    36   1 H    1.004 --    18 C    0.979
    37   1 H    1.001 --    18 C    0.978
    38   1 H    1.004 --    18 C    0.979
    39   1 H    1.024 --    19 C    0.973
    40   1 H    1.001 --    19 C    0.978
    41   1 H    0.998 --    19 C    0.982
    42   1 H    0.935 --    24 N    0.853
 ---------------------------------------------------------------------------

           -------------------------------------------------
          | TOTAL ENERGY              -82.959115712335 Eh   |
          | GRADIENT NORM               0.000257321938 Eh/α |
          | HOMO-LUMO GAP               2.469163784881 eV   |
           -------------------------------------------------

 * finished run on 2023/06/21 at 17:58:22.695
