   * xtb version 6.5.1 (579679a) compiled by 'ehlert@majestix' on 2022-07-11
          program call               : /lustre/hpc/kemi/ree/PhD/git/ReactivityQM/dep/xtb-6.5.1/bin/xtb --gfn 1 /lustre/hpc/kemi/ree/PhD/git/ReactivityQM/calculations/R02methylcation/reac01prodN19/conf03/R02methylcation_reac01prodN19_conf03_gfn1.xyz --opt --vfukui --chrg 0 --uhf 0 --alpb DMSO

   ID    Z sym.   atoms
    1    6 C      1, 3, 5, 7-10, 12, 14, 17, 18, 21, 23, 24
    2    8 O      2, 4, 13, 19, 22, 25
    3    7 N      6, 11, 15, 16, 20
    4    1 H      26-42

      * Solvation model:               ALPB
        Solvent                        DMSO
        Solvent mass                       7.8130E+01 g/mol
          :  Hamiltonian                  GFN1-xTB          :
 * total energy  :   -82.9777534 Eh     change       -0.6771472E-10 Eh
 * total energy  :   -82.9922941 Eh     change       -0.1454066E-01 Eh
 * total energy  :   -82.9983247 Eh     change       -0.6030643E-02 Eh
 * total energy  :   -83.0001750 Eh     change       -0.1850255E-02 Eh
 * total energy  :   -83.0014267 Eh     change       -0.1251748E-02 Eh
 * total energy  :   -83.0021555 Eh     change       -0.7287786E-03 Eh
 * total energy  :   -83.0026952 Eh     change       -0.5396882E-03 Eh
 * total energy  :   -83.0031442 Eh     change       -0.4490031E-03 Eh
 * total energy  :   -83.0034465 Eh     change       -0.3023640E-03 Eh
 * total energy  :   -83.0035938 Eh     change       -0.1472157E-03 Eh
 * total energy  :   -83.0050918 Eh     change       -0.2577810E-04 Eh
 * total energy  :   -83.0051163 Eh     change       -0.2450487E-04 Eh
 * total energy  :   -83.0051417 Eh     change       -0.2539796E-04 Eh
 * total energy  :   -83.0051649 Eh     change       -0.2321344E-04 Eh
 * total energy  :   -83.0051831 Eh     change       -0.1820462E-04 Eh
 * total energy  :   -83.0051963 Eh     change       -0.1323261E-04 Eh
 * total energy  :   -83.0052070 Eh     change       -0.1066135E-04 Eh
 * total energy  :   -83.0052172 Eh     change       -0.1027735E-04 Eh
 * total energy  :   -83.0052209 Eh     change       -0.3619851E-05 Eh
   *** GEOMETRY OPTIMIZATION CONVERGED AFTER 44 ITERATIONS ***

 final structure:
================
42
 xtb: 6.5.1 (579679a)
C           -6.28484922309557        1.15939696905385        0.97694604901433
O           -5.08247106150652        0.44217205583927        0.70093036898296
C           -3.99100652236244        1.17875694999552        0.47382474767487
O           -4.00515235095858        2.39378269384773        0.51298716026645
C           -2.77849764738599        0.38572059106471        0.15926207024468
N           -1.70231670195491        1.15723832191309       -0.12273263854731
C           -0.57019261104967        0.62987412453867       -0.45244640272600
C            0.62532400229151        1.47597423785719       -0.82457390645272
C            0.53561392552129        2.84588675327758       -0.14529964458341
C            0.68035201373039        1.62250928941585       -2.34907321165388
N            1.84320604928958        0.77824758972663       -0.40369692453435
C            2.03578740468790        0.38711924248102        0.87660193646357
O            1.19949274035932        0.47665284301216        1.75962005357853
C            3.37372569361129       -0.21057042306682        1.09960180696590
N            3.86747577244729       -0.66826194831471        2.20768051080296
N            5.11625926104119       -1.13049546692613        1.92042008501730
C            5.30822252966361       -0.92811447528617        0.65392492563958
C            6.50361360338465       -1.26151410070328       -0.14986294531610
O            4.24419923592920       -0.34707490749314        0.07564331418269
N           -0.44408766960954       -0.73282085384740       -0.54883148210617
C           -1.43591122247926       -1.56937159205038       -0.26240326820227
O           -1.10852436999163       -2.84332945566190       -0.41053927285028
C           -2.03572713228239       -3.90809535919808       -0.16174320274826
C           -2.74422945845844       -1.04530932841892        0.14646003579600
O           -3.68016585905772       -1.80917378848336        0.43083324060765
H           -6.54799478622515        1.79565513612091        0.12792112343107
H           -7.06213888648716        0.41597713085564        1.14353568435786
H           -6.16061464448090        1.78227410917339        1.86671093156447
H           -0.37699553446336        3.34645517520454       -0.46622541980796
H            0.51261643397660        2.72845792847351        0.93738972404365
H            1.39599769902762        3.45015803517349       -0.42372221578339
H            0.74874667939171        0.64266601547352       -2.81738129374518
H           -0.22001895216580        2.12244571586193       -2.70301249530155
H            1.54850151022784        2.21330133789012       -2.63414161951422
H            2.60936903319272        0.72924537922601       -1.05214256414906
H            7.24205413716366       -1.75694840018072        0.47591800536441
H            6.93208430229828       -0.35327896001324       -0.57305990309175
H            6.22291867719815       -1.91504179322494       -0.97529165290497
H            0.43405588792233       -1.12797474179153       -0.85464892928864
H           -1.48391822215928       -4.82454729511187       -0.36969460987096
H           -2.36721685915447       -3.89707809862833        0.87838782640387
H           -2.89758387702240       -3.83096563707564       -0.82676599723256

          :  Hamiltonian                  GFN1-xTB          :
         :: total energy             -83.005220865090 Eh    ::
         :: gradient norm              0.000227380829 Eh/a0 ::
         :: HOMO-LUMO gap              2.199405990554 eV    ::
         :: SCC energy               -83.784249141653 Eh    ::
         :: -> Gsolv                  -0.070870033233 Eh    ::
         :: repulsion energy           0.804359948958 Eh    ::

    * Orbital Energies and Occupations

         #    Occupation            Energy/Eh            Energy/eV
      -------------------------------------------------------------
         1        2.0000           -0.8677339             -23.6122
       ...           ...                  ...                  ...
        55        2.0000           -0.5074057             -13.8072
        56        2.0000           -0.5017258             -13.6527
        57        2.0000           -0.4912566             -13.3678
        58        2.0000           -0.4875837             -13.2678
        59        2.0000           -0.4827732             -13.1369
        60        2.0000           -0.4718972             -12.8410
        61        2.0000           -0.4688857             -12.7590
        62        2.0000           -0.4681042             -12.7378
        63        2.0000           -0.4623331             -12.5807
        64        2.0000           -0.4548744             -12.3778
        65        2.0000           -0.4518964             -12.2967
        66        2.0000           -0.4224524             -11.4955
        67        2.0000           -0.4115866             -11.1998 (HOMO)
        68                         -0.3307599              -9.0004 (LUMO)
        69                         -0.3147077              -8.5636
        70                         -0.2798783              -7.6159
        71                         -0.2585605              -7.0358
        72                         -0.2406127              -6.5474
        73                         -0.2020743              -5.4987
        74                         -0.1530837              -4.1656
        75                         -0.1424299              -3.8757
        76                         -0.1409011              -3.8341
        77                         -0.1357673              -3.6944
        78                         -0.1329934              -3.6189
       ...                                ...                  ...
       134                          0.7214115              19.6306
      -------------------------------------------------------------
                  HL-Gap            0.0808267 Eh            2.1994 eV

Wiberg/Mayer (AO) data.
largest (>0.10) Wiberg bond orders for each atom

     #   Z sym  total        # sym  WBO       # sym  WBO       # sym  WBO
 ---------------------------------------------------------------------------
     1   6 C    3.880 --    27 H    0.986    26 H    0.980    28 H    0.980
                             2 O    0.905
     2   8 O    2.199 --     3 C    1.102     1 C    0.905     4 O    0.128
     3   6 C    3.853 --     4 O    1.628     2 O    1.102     5 C    1.032
     4   8 O    1.896 --     3 C    1.628     2 O    0.128
     5   6 C    3.949 --     6 N    1.277    24 C    1.220     3 C    1.032
                            25 O    0.130
     6   7 N    3.044 --     7 C    1.545     5 C    1.277
     7   6 C    3.915 --     6 N    1.545    20 N    1.123     8 C    0.980
     8   6 C    3.935 --     9 C    0.988    10 C    0.983     7 C    0.980
                            11 N    0.925
     9   6 C    3.988 --     8 C    0.988    31 H    0.986    29 H    0.983
                            30 H    0.981
    10   6 C    3.987 --    32 H    0.984    33 H    0.983     8 C    0.983
                            34 H    0.982
    11   7 N    3.338 --    12 C    1.245     8 C    0.925    35 H    0.890
                            13 O    0.174
    12   6 C    3.916 --    13 O    1.589    11 N    1.245    14 C    0.996
    13   8 O    1.891 --    12 C    1.589    11 N    0.174
    14   6 C    3.874 --    15 N    1.621    19 O    1.047    12 C    0.996
    15   7 N    3.001 --    14 C    1.621    16 N    1.200
    16   7 N    2.982 --    17 C    1.608    15 N    1.200
    17   6 C    3.867 --    16 N    1.608    19 O    1.073    18 C    1.032
    18   6 C    3.986 --    17 C    1.032    36 H    0.982    38 H    0.963
                            37 H    0.962
    19   8 O    2.316 --    17 C    1.073    14 C    1.047
    20   7 N    3.535 --    21 C    1.324     7 C    1.123    39 H    0.876
    21   6 C    3.857 --    20 N    1.324    22 O    1.137    24 C    1.073
    22   8 O    2.223 --    21 C    1.137    23 C    0.878
    23   6 C    3.849 --    40 H    0.984    41 H    0.978    42 H    0.977
                            22 O    0.878
    24   6 C    3.951 --    25 O    1.502     5 C    1.220    21 C    1.073
    25   8 O    1.852 --    24 C    1.502     5 C    0.130
    26   1 H    1.009 --     1 C    0.980
    27   1 H    1.012 --     1 C    0.986
    28   1 H    1.009 --     1 C    0.980
    29   1 H    1.009 --     9 C    0.983
    30   1 H    1.009 --     9 C    0.981
    31   1 H    1.001 --     9 C    0.986
    32   1 H    0.999 --    10 C    0.984
    33   1 H    1.000 --    10 C    0.983
    34   1 H    0.996 --    10 C    0.982
    35   1 H    0.931 --    11 N    0.890
    36   1 H    0.998 --    18 C    0.982
    37   1 H    0.996 --    18 C    0.962
    38   1 H    0.996 --    18 C    0.963
    39   1 H    0.929 --    20 N    0.876
    40   1 H    1.010 --    23 C    0.984
    41   1 H    1.016 --    23 C    0.978
    42   1 H    1.016 --    23 C    0.977
 ---------------------------------------------------------------------------

           -------------------------------------------------
          | TOTAL ENERGY              -83.005220865090 Eh   |
          | GRADIENT NORM               0.000227380829 Eh/α |
          | HOMO-LUMO GAP               2.199405990554 eV   |
           -------------------------------------------------

 * finished run on 2023/06/21 at 18:02:53.220
