   * xtb version 6.5.1 (579679a) compiled by 'ehlert@majestix' on 2022-07-11
          program call               : /lustre/hpc/kemi/ree/PhD/git/ReactivityQM/dep/xtb-6.5.1/bin/xtb --gfn 1 /lustre/hpc/kemi/ree/PhD/git/ReactivityQM/calculations/R02methylcation/reac01prodN07/conf16/R02methylcation_reac01prodN07_conf16_gfn1.xyz --opt --vfukui --chrg 0 --uhf 0 --alpb DMSO

   ID    Z sym.   atoms
    1    6 C      1, 3, 5, 7-10, 12, 14, 17-19, 22, 24
    2    8 O      2, 4, 13, 20, 23, 25
    3    7 N      6, 11, 15, 16, 21
    4    1 H      26-42

      * Solvation model:               ALPB
        Solvent                        DMSO
        Solvent mass                       7.8130E+01 g/mol
          :  Hamiltonian                  GFN1-xTB          :
 * total energy  :   -82.9534266 Eh     change       -0.1899991E-10 Eh
 * total energy  :   -82.9695835 Eh     change       -0.1615692E-01 Eh
 * total energy  :   -82.9762602 Eh     change       -0.6676709E-02 Eh
 * total energy  :   -82.9772667 Eh     change       -0.1006546E-02 Eh
 * total energy  :   -82.9778610 Eh     change       -0.5943004E-03 Eh
 * total energy  :   -82.9780583 Eh     change       -0.1972629E-03 Eh
 * total energy  :   -82.9782573 Eh     change       -0.1990339E-03 Eh
 * total energy  :   -82.9784420 Eh     change       -0.1846931E-03 Eh
 * total energy  :   -82.9785963 Eh     change       -0.1542946E-03 Eh
 * total energy  :   -82.9787126 Eh     change       -0.1162991E-03 Eh
 * total energy  :   -82.9795368 Eh     change       -0.1358914E-04 Eh
 * total energy  :   -82.9795512 Eh     change       -0.1444251E-04 Eh
 * total energy  :   -82.9795673 Eh     change       -0.1605555E-04 Eh
 * total energy  :   -82.9795791 Eh     change       -0.1188251E-04 Eh
 * total energy  :   -82.9795890 Eh     change       -0.9885421E-05 Eh
 * total energy  :   -82.9796010 Eh     change       -0.1200620E-04 Eh
 * total energy  :   -82.9796111 Eh     change       -0.1006078E-04 Eh
 * total energy  :   -82.9796162 Eh     change       -0.5075121E-05 Eh
 * total energy  :   -82.9796197 Eh     change       -0.3528433E-05 Eh
   *** GEOMETRY OPTIMIZATION CONVERGED AFTER 55 ITERATIONS ***

 final structure:
================
42
 xtb: 6.5.1 (579679a)
C            6.92110348935081       -0.06521539436099        1.50319729791247
O            5.79543843811834        0.56884900326339        0.91081574732319
C            4.74832476538330       -0.24048339039954        0.61765076119756
O            4.79901073183686       -1.44059929143561        0.85913779285858
C            3.61041686150871        0.43332066590760        0.00704935775786
N            2.57766492432124       -0.43386819237948       -0.29541778660725
C            1.50822534497468       -0.01318860590704       -0.86006003124949
C            0.41587659329366       -1.00335791622541       -1.22527599562069
C            0.22036249599218       -1.07403092970639       -2.74388039744587
C            0.78283944729514       -2.38290636353544       -0.67661029081203
N           -0.85782077375359       -0.62346763083898       -0.56472595380451
C           -1.69030818759292        0.33666215265892       -0.96555731457381
O           -1.53663714127808        1.13011655463999       -1.87568430197421
C           -2.94521550248879        0.39765842569248       -0.13694384856300
N           -3.91452821445981        1.25310451731894       -0.26218550864514
N           -4.81130532375675        0.90141369809288        0.67742848695400
C           -6.05280632433802        1.63496476535315        0.80823285523710
C           -4.38001873173500       -0.14763718152641        1.34462698135856
C           -5.03049868411655       -0.88321694320631        2.44006711441328
O           -3.20322610213203       -0.48257397714898        0.85276463071899
N            1.33468473900597        1.31326194808639       -1.19315306611835
C            2.25809273948337        2.29021114674065       -0.92115626350365
O            2.01617088388827        3.45786993887215       -1.21665582108400
C            3.54204134211286        1.82486059136397       -0.26789689524633
O            4.42119077024620        2.66910366826042       -0.02071122042410
H            6.65666848401215       -0.48923438916543        2.47679918399779
H            7.68894406138580        0.69741627907075        1.62927654136652
H            7.29643077124511       -0.86715336815115        0.85988720689471
H            0.05410541333493       -0.08720964260869       -3.17017951061366
H            1.11413815510005       -1.50407016392070       -3.19449648860081
H           -0.63285784331663       -1.70791671427158       -2.97677548837470
H            0.00274062154379       -3.10141257782270       -0.91832060802870
H            1.72305796198583       -2.71092649499957       -1.11820431943856
H            0.90792663517844       -2.33665181240541        0.40427969042843
H           -1.15145451639584       -1.20680254746970        0.20012837029363
H           -5.93077837517299        2.59566351605873        0.31370379839129
H           -6.85026815848949        1.06432916054803        0.33403598681872
H           -6.27261103270515        1.76840437506679        1.86478929726585
H           -4.31606035363609       -1.56529732492130        2.89655066866510
H           -5.87262910801892       -1.45611930892464        2.04673303720548
H           -5.41822137859596       -0.18750835323810        3.18411362926296
H            0.47179108139021        1.60685010758608       -1.62737632559637

          :  Hamiltonian                  GFN1-xTB          :
         :: total energy             -82.979619701552 Eh    ::
         :: gradient norm              0.000337588697 Eh/a0 ::
         :: HOMO-LUMO gap              0.393961349296 eV    ::
         :: SCC energy               -83.767270266308 Eh    ::
         :: -> Gsolv                  -0.137013088068 Eh    ::
         :: repulsion energy           0.812680148421 Eh    ::

    * Orbital Energies and Occupations

         #    Occupation            Energy/Eh            Energy/eV
      -------------------------------------------------------------
         1        2.0000           -0.9361127             -25.4729
       ...           ...                  ...                  ...
        55        2.0000           -0.5047324             -13.7345
        56        2.0000           -0.5008360             -13.6284
        57        2.0000           -0.4959074             -13.4943
        58        2.0000           -0.4893835             -13.3168
        59        2.0000           -0.4824146             -13.1272
        60        2.0000           -0.4683450             -12.7443
        61        2.0000           -0.4667719             -12.7015
        62        2.0000           -0.4584729             -12.4757
        63        2.0000           -0.4424628             -12.0400
        64        2.0000           -0.4389727             -11.9451
        65        2.0000           -0.4204692             -11.4415
        66        2.0000           -0.3818338             -10.3902
        67        1.9990           -0.3697811             -10.0623 (HOMO)
        68        0.0010           -0.3553033              -9.6683 (LUMO)
        69                         -0.3417732              -9.3001
        70                         -0.2725852              -7.4174
        71                         -0.2455127              -6.6807
        72                         -0.2365448              -6.4367
        73                         -0.1994919              -5.4285
        74                         -0.1838775              -5.0036
        75                         -0.1711845              -4.6582
        76                         -0.1292547              -3.5172
        77                         -0.1239109              -3.3718
        78                         -0.1237540              -3.3675
       ...                                ...                  ...
       134                          0.7538310              20.5128
      -------------------------------------------------------------
                  HL-Gap            0.0144778 Eh            0.3940 eV

Wiberg/Mayer (AO) data.
largest (>0.10) Wiberg bond orders for each atom

     #   Z sym  total        # sym  WBO       # sym  WBO       # sym  WBO
 ---------------------------------------------------------------------------
     1   6 C    3.897 --    27 H    0.987    26 H    0.981    28 H    0.980
                             2 O    0.923
     2   8 O    2.163 --     3 C    1.052     1 C    0.923     4 O    0.111
     3   6 C    3.850 --     4 O    1.578     5 C    1.109     2 O    1.052
     4   8 O    1.853 --     3 C    1.578     2 O    0.111
     5   6 C    3.909 --    24 C    1.268     6 N    1.157     3 C    1.109
                            25 O    0.128
     6   7 N    3.033 --     7 C    1.629     5 C    1.157
     7   6 C    3.933 --     6 N    1.629    21 N    1.099     8 C    0.967
     8   6 C    3.913 --    10 C    1.002     9 C    0.988     7 C    0.967
                            11 N    0.889
     9   6 C    3.988 --     8 C    0.988    31 H    0.985    30 H    0.984
                            29 H    0.980
    10   6 C    3.991 --     8 C    1.002    32 H    0.986    34 H    0.982
                            33 H    0.981
    11   7 N    3.395 --    12 C    1.319    35 H    0.892     8 C    0.889
                            13 O    0.201
    12   6 C    3.926 --    13 O    1.576    11 N    1.319    14 C    0.957
    13   8 O    1.928 --    12 C    1.576    11 N    0.201
    14   6 C    3.833 --    15 N    1.613    20 O    1.050    12 C    0.957
    15   7 N    2.977 --    14 C    1.613    16 N    1.149
    16   7 N    3.632 --    18 C    1.427    15 N    1.149    17 C    0.911
    17   6 C    3.887 --    36 H    0.977    38 H    0.974    37 H    0.965
                            16 N    0.911
    18   6 C    3.841 --    16 N    1.427    20 O    1.145    19 C    1.042
    19   6 C    3.961 --    18 C    1.042    39 H    0.971    41 H    0.954
                            40 H    0.938
    20   8 O    2.371 --    18 C    1.145    14 C    1.050
    21   7 N    3.428 --    22 C    1.163     7 C    1.099    42 H    0.881
                            23 O    0.136
    22   6 C    3.879 --    23 O    1.579    21 N    1.163    24 C    0.966
    23   8 O    1.859 --    22 C    1.579    21 N    0.136
    24   6 C    3.941 --    25 O    1.525     5 C    1.268    22 C    0.966
    25   8 O    1.827 --    24 C    1.525     5 C    0.128
    26   1 H    1.013 --     1 C    0.981
    27   1 H    1.015 --     1 C    0.987
    28   1 H    1.014 --     1 C    0.980
    29   1 H    1.009 --     9 C    0.980
    30   1 H    1.002 --     9 C    0.984
    31   1 H    0.999 --     9 C    0.985
    32   1 H    0.999 --    10 C    0.986
    33   1 H    1.011 --    10 C    0.981
    34   1 H    1.007 --    10 C    0.982
    35   1 H    0.933 --    11 N    0.892
    36   1 H    0.992 --    17 C    0.977
    37   1 H    0.989 --    17 C    0.965
    38   1 H    0.990 --    17 C    0.974
    39   1 H    0.986 --    19 C    0.971
    40   1 H    0.985 --    19 C    0.938
    41   1 H    0.987 --    19 C    0.954
    42   1 H    0.949 --    21 N    0.881
 ---------------------------------------------------------------------------

           -------------------------------------------------
          | TOTAL ENERGY              -82.979619701552 Eh   |
          | GRADIENT NORM               0.000337588697 Eh/α |
          | HOMO-LUMO GAP               0.393961349296 eV   |
           -------------------------------------------------

 * finished run on 2023/06/21 at 17:38:12.738
