   * xtb version 6.5.1 (579679a) compiled by 'ehlert@majestix' on 2022-07-11
          program call               : /lustre/hpc/kemi/ree/PhD/git/ReactivityQM/dep/xtb-6.5.1/bin/xtb --gfn 1 /lustre/hpc/kemi/ree/PhD/git/ReactivityQM/calculations/R02methylcation/reac01prodE05/conf19/R02methylcation_reac01prodE05_conf19_gfn1.xyz --opt --vfukui --chrg -2 --uhf 0 --alpb DMSO

   ID    Z sym.   atoms
    1    6 C      1, 3, 5, 6, 8, 11-14, 16, 18, 21, 22, 25
    2    8 O      2, 4, 7, 9, 17, 23
    3    7 N      10, 15, 19, 20, 24
    4    1 H      26-42

      * Solvation model:               ALPB
        Solvent                        DMSO
        Solvent mass                       7.8130E+01 g/mol
          :  Hamiltonian                  GFN1-xTB          :
 * total energy  :   -83.5511916 Eh     change       -0.6906475E-11 Eh
 * total energy  :   -83.5642119 Eh     change       -0.1302023E-01 Eh
 * total energy  :   -83.5700860 Eh     change       -0.5874150E-02 Eh
 * total energy  :   -83.5717956 Eh     change       -0.1709626E-02 Eh
 * total energy  :   -83.5730297 Eh     change       -0.1234034E-02 Eh
 * total energy  :   -83.5737404 Eh     change       -0.7107104E-03 Eh
 * total energy  :   -83.5743649 Eh     change       -0.6244784E-03 Eh
 * total energy  :   -83.5750086 Eh     change       -0.6437253E-03 Eh
 * total energy  :   -83.5756756 Eh     change       -0.6670549E-03 Eh
 * total energy  :   -83.5763444 Eh     change       -0.6687910E-03 Eh
 * total energy  :   -83.5872066 Eh     change       -0.1280916E-04 Eh
 * total energy  :   -83.5872151 Eh     change       -0.8466537E-05 Eh
 * total energy  :   -83.5872224 Eh     change       -0.7248194E-05 Eh
 * total energy  :   -83.5872294 Eh     change       -0.7022964E-05 Eh
 * total energy  :   -83.5872380 Eh     change       -0.8585393E-05 Eh
 * total energy  :   -83.5872470 Eh     change       -0.9058250E-05 Eh
 * total energy  :   -83.5872550 Eh     change       -0.7949223E-05 Eh
 * total energy  :   -83.5872614 Eh     change       -0.6397263E-05 Eh
 * total energy  :   -83.5872662 Eh     change       -0.4815100E-05 Eh
   *** GEOMETRY OPTIMIZATION CONVERGED AFTER 60 ITERATIONS ***

 final structure:
================
42
 xtb: 6.5.1 (579679a)
C            4.88655969959026        0.91630794074216       -2.40766849340875
O            3.90641156838470        0.34368968043183       -1.56626214326021
C            4.08167557242877        0.58620888504532       -0.19913847980247
O            5.04671698866503        1.26759971054386        0.15710376266453
C            3.08088521814717       -0.02816162518111        0.60160060245028
C            3.02239974854722        0.09295491657428        2.00779993938091
O            3.80557107001097        0.75401848510458        2.73048681064259
C            1.83521084202147       -0.59761404731978        2.66630889056843
O            1.81168164712215       -0.93013285313552        3.87048512356298
N            0.75094832345814       -0.76261815929621        1.88338765924250
C            0.75195152448991       -0.79488267137246        0.44095999669593
C           -0.07936630729351        0.34660375424263       -0.16622105079459
C            0.24175994006561        1.74516973592718        0.40393608646828
C            0.09696607542946        0.33906167337003       -1.69174567855471
N           -1.48603017247197        0.01240539224344        0.15974507534095
C           -2.56971045646334        0.70608102134261       -0.24608091452271
O           -2.55212365359801        1.80301880404119       -0.81238680833455
C           -3.81891810769438        0.00423268400936        0.09719848481803
N           -3.92032554988955       -1.15840819630782        0.69695291455565
N           -5.25627428055908       -1.42218743219411        0.82009026629162
C           -5.88484323793228       -0.41887145374422        0.29613513911643
C           -7.35085715904096       -0.23521197249482        0.18647368966031
O           -5.04631591693860        0.52037710225716       -0.18112088883409
N            2.09691313420760       -0.84194632587973       -0.09687422798363
C            2.55450881064727       -2.23519438779250       -0.24245216386394
H            4.65893972219497        0.60898671236998       -3.42917735356074
H            4.87385567857373        2.01190962180958       -2.34902063427762
H            5.89210678608326        0.56763630300384       -2.14212224852334
H           -0.05120064496230       -1.17322269455958        2.33595223819053
H            1.29614313276045        1.96760779179513        0.23576950814564
H           -0.35932532605119        2.51602301297564       -0.07764589807759
H            0.04293274045321        1.76216792256983        1.47634026687006
H           -0.49699186396026        1.12207194020406       -2.16238525170544
H            1.14933221412973        0.49477943067591       -1.93443641011898
H           -0.21004674291146       -0.62763196272746       -2.09172691141842
H           -1.64295870505890       -0.93236460029509        0.48329629645922
H           -7.85860887355714       -1.06346814596929        0.67417605351310
H           -7.64854728145472       -0.19733642808270       -0.86133057194649
H           -7.64972960282012        0.70174981145747        0.65574705103776
H            3.47701695374744       -2.25636820724654       -0.82782840093475
H            2.73910734355260       -2.71965400053729        0.72823366724121
H            1.78257914797193       -2.79538616861140       -0.77292799298094

          :  Hamiltonian                  GFN1-xTB          :
         :: total energy             -83.587266183670 Eh    ::
         :: gradient norm              0.000470633905 Eh/a0 ::
         :: HOMO-LUMO gap              0.123817168621 eV    ::
         :: SCC energy               -84.308495626410 Eh    ::
         :: -> Gsolv                  -0.276959792693 Eh    ::
         :: repulsion energy           0.748672653899 Eh    ::

    * Orbital Energies and Occupations

         #    Occupation            Energy/Eh            Energy/eV
      -------------------------------------------------------------
         1        2.0000           -0.8322151             -22.6457
       ...           ...                  ...                  ...
        56        2.0000           -0.4405255             -11.9873
        57        2.0000           -0.4379334             -11.9168
        58        2.0000           -0.4297367             -11.6937
        59        2.0000           -0.4293465             -11.6831
        60        2.0000           -0.4152597             -11.2998
        61        2.0000           -0.4143891             -11.2761
        62        2.0000           -0.4043987             -11.0042
        63        2.0000           -0.4022121             -10.9447
        64        2.0000           -0.3844292             -10.4608
        65        2.0000           -0.3570498              -9.7158
        66        2.0000           -0.3395414              -9.2394
        67        2.0000           -0.3190987              -8.6831
        68        1.8328           -0.2835181              -7.7149 (HOMO)
        69        0.1672           -0.2789679              -7.5911 (LUMO)
        70                         -0.2324646              -6.3257
        71                         -0.2271800              -6.1819
        72                         -0.1625279              -4.4226
        73                         -0.1618863              -4.4052
        74                         -0.1330362              -3.6201
        75                         -0.1095974              -2.9823
        76                         -0.1004553              -2.7335
        77                         -0.0864151              -2.3515
        78                         -0.0857813              -2.3342
        79                         -0.0791393              -2.1535
       ...                                ...                  ...
       134                          0.7689884              20.9252
      -------------------------------------------------------------
                  HL-Gap            0.0045502 Eh            0.1238 eV

Wiberg/Mayer (AO) data.
largest (>0.10) Wiberg bond orders for each atom

     #   Z sym  total        # sym  WBO       # sym  WBO       # sym  WBO
 ---------------------------------------------------------------------------
     1   6 C    3.917 --    26 H    0.987    27 H    0.980    28 H    0.980
                             2 O    0.947
     2   8 O    2.101 --     3 C    0.957     1 C    0.947
     3   6 C    3.851 --     4 O    1.520     5 C    1.243     2 O    0.957
     4   8 O    1.819 --     3 C    1.520
     5   6 C    3.889 --     6 C    1.309     3 C    1.243    24 N    0.970
                             7 O    0.128
     6   6 C    3.933 --     7 O    1.486     5 C    1.309     8 C    0.949
     7   8 O    1.784 --     6 C    1.486     5 C    0.128
     8   6 C    3.878 --     9 O    1.478    10 N    1.272     6 C    0.949
     9   8 O    1.753 --     8 C    1.478    10 N    0.154
    10   7 N    3.377 --     8 C    1.272    11 C    0.945    29 H    0.918
                             9 O    0.154
    11   6 C    3.253 --    24 N    0.971    12 C    0.962    10 N    0.945
    12   6 C    3.897 --    14 C    0.993    13 C    0.981    11 C    0.962
                            15 N    0.892
    13   6 C    3.988 --    32 H    0.986    30 H    0.985    31 H    0.983
                            12 C    0.981
    14   6 C    3.995 --    12 C    0.993    35 H    0.987    33 H    0.986
                            34 H    0.982
    15   7 N    3.318 --    16 C    1.256    36 H    0.908    12 C    0.892
                            17 O    0.167
    16   6 C    3.877 --    17 O    1.512    15 N    1.256    18 C    1.025
    17   8 O    1.811 --    16 C    1.512    15 N    0.167
    18   6 C    3.791 --    19 N    1.538    23 O    1.027    16 C    1.025
    19   7 N    2.917 --    18 C    1.538    20 N    1.185
    20   7 N    2.980 --    21 C    1.624    19 N    1.185
    21   6 C    3.853 --    20 N    1.624    23 O    1.069    22 C    1.027
    22   6 C    3.991 --    21 C    1.027    37 H    0.984    39 H    0.969
                            38 H    0.967
    23   8 O    2.266 --    21 C    1.069    18 C    1.027
    24   7 N    3.061 --    11 C    0.971     5 C    0.970    25 C    0.969
    25   6 C    3.982 --    42 H    0.989    40 H    0.988    41 H    0.982
                            24 N    0.969
    26   1 H    1.019 --     1 C    0.987
    27   1 H    1.019 --     1 C    0.980
    28   1 H    1.020 --     1 C    0.980
    29   1 H    0.981 --    10 N    0.918
    30   1 H    1.018 --    13 C    0.985
    31   1 H    1.018 --    13 C    0.983
    32   1 H    1.015 --    13 C    0.986
    33   1 H    1.014 --    14 C    0.986
    34   1 H    1.032 --    14 C    0.982
    35   1 H    1.016 --    14 C    0.987
    36   1 H    0.985 --    15 N    0.908
    37   1 H    1.001 --    22 C    0.984
    38   1 H    0.999 --    22 C    0.967
    39   1 H    0.999 --    22 C    0.969
    40   1 H    1.026 --    25 C    0.988
    41   1 H    1.013 --    25 C    0.982
    42   1 H    1.036 --    25 C    0.989
 ---------------------------------------------------------------------------

           -------------------------------------------------
          | TOTAL ENERGY              -83.587266183670 Eh   |
          | GRADIENT NORM               0.000470633905 Eh/α |
          | HOMO-LUMO GAP               0.123817168621 eV   |
           -------------------------------------------------

 * finished run on 2023/06/21 at 17:12:15.407
