                         Program Version 5.0.1 -  RELEASE  -
|  1> # ORCA input file
|  2> ! SP r2SCAN-3c CPCM
|  3>
|  4> %maxcore 1875.0
|  5> %pal nprocs 4 end
|  6> %cpcm smd true SMDsolvent "DMSO" end
|  7>
|  8> *xyz 1 1
|  9> C      -3.440778   -0.405242    2.868325
| 10> N      -2.515008   -0.144458    1.759026
| 11> C      -2.920380    0.072050    0.474644
| 12> C      -4.383407    0.082282    0.055874
| 13> C      -4.975058    1.465961    0.366361
| 14> C      -4.474642   -0.182340   -1.456944
| 15> N      -5.124974   -0.940996    0.780702
| 16> N      -2.062525    0.327921   -0.473992
| 17> C      -0.738073    0.345986   -0.224857
| 18> C       1.140624    0.296706   -1.809538
| 19> C       1.534634    0.905775   -3.109514
| 20> O      -0.007942    0.710415   -1.359062
| 21> N       1.859459   -0.597041   -1.197744
| 22> C       3.145764   -1.118227   -1.654176
| 23> C       4.282370   -0.580442   -0.810466
| 24> C       4.303942    0.751384   -0.404970
| 25> C       5.368413    1.243030    0.336252
| 26> C       6.399749    0.378799    0.659050
| 27> F       7.427845    0.846149    1.375983
| 28> C       6.406206   -0.949964    0.273425
| 29> C       5.334121   -1.426540   -0.466876
| 30> C      -0.244847    0.107193    1.017892
| 31> O       1.068076    0.103023    1.351329
| 32> C      -1.169457   -0.168670    2.098589
| 33> O      -0.771601   -0.393147    3.235599
| 34> H      -2.923165   -0.177598    3.799658
| 35> H      -3.733260   -1.453586    2.855148
| 36> H      -4.323328    0.217929    2.771911
| 37> H      -5.998804    1.511460   -0.002281
| 38> H      -4.981118    1.658355    1.437767
| 39> H      -4.387028    2.238632   -0.127401
| 40> H      -5.521872   -0.248879   -1.746247
| 41> H      -4.000241    0.622799   -2.015741
| 42> H      -3.978499   -1.119549   -1.703036
| 43> H      -4.854744   -1.853974    0.439522
| 44> H      -6.112523   -0.824218    0.597886
| 45> H       2.531996    1.337683   -3.046740
| 46> H       0.816745    1.679144   -3.375494
| 47> H       1.540617    0.140949   -3.886747
| 48> H       1.562725   -0.930838   -0.287033
| 49> H       3.285531   -0.851753   -2.703224
| 50> H       3.093184   -2.206866   -1.578073
| 51> H       3.482128    1.408161   -0.660789
| 52> H       5.395696    2.275317    0.660155
| 53> H       7.228224   -1.597199    0.549103
| 54> H       5.315815   -2.463045   -0.778946
| 55> H       1.119408   -0.092533    2.309709
| 56> **                         ****END OF INPUT****

CARTESIAN COORDINATES (ANGSTROEM)
---------------------------------
  C     -3.440778   -0.405242    2.868325
  N     -2.515008   -0.144458    1.759026
  C     -2.920380    0.072050    0.474644
  C     -4.383407    0.082282    0.055874
  C     -4.975058    1.465961    0.366361
  C     -4.474642   -0.182340   -1.456944
  N     -5.124974   -0.940996    0.780702
  N     -2.062525    0.327921   -0.473992
  C     -0.738073    0.345986   -0.224857
  C      1.140624    0.296706   -1.809538
  C      1.534634    0.905775   -3.109514
  O     -0.007942    0.710415   -1.359062
  N      1.859459   -0.597041   -1.197744
  C      3.145764   -1.118227   -1.654176
  C      4.282370   -0.580442   -0.810466
  C      4.303942    0.751384   -0.404970
  C      5.368413    1.243030    0.336252
  C      6.399749    0.378799    0.659050
  F      7.427845    0.846149    1.375983
  C      6.406206   -0.949964    0.273425
  C      5.334121   -1.426540   -0.466876
  C     -0.244847    0.107193    1.017892
  O      1.068076    0.103023    1.351329
  C     -1.169457   -0.168670    2.098589
  O     -0.771601   -0.393147    3.235599
  H     -2.923165   -0.177598    3.799658
  H     -3.733260   -1.453586    2.855148
  H     -4.323328    0.217929    2.771911
  H     -5.998804    1.511460   -0.002281
  H     -4.981118    1.658355    1.437767
  H     -4.387028    2.238632   -0.127401
  H     -5.521872   -0.248879   -1.746247
  H     -4.000241    0.622799   -2.015741
  H     -3.978499   -1.119549   -1.703036
  H     -4.854744   -1.853974    0.439522
  H     -6.112523   -0.824218    0.597886
  H      2.531996    1.337683   -3.046740
  H      0.816745    1.679144   -3.375494
  H      1.540617    0.140949   -3.886747
  H      1.562725   -0.930838   -0.287033
  H      3.285531   -0.851753   -2.703224
  H      3.093184   -2.206866   -1.578073
  H      3.482128    1.408161   -0.660789
  H      5.395696    2.275317    0.660155
  H      7.228224   -1.597199    0.549103
  H      5.315815   -2.463045   -0.778946
  H      1.119408   -0.092533    2.309709

 Total Charge           Charge          ....    1
 Multiplicity           Mult            ....    1
 Number of Electrons    NEL             ....  184
 Basis Dimension        Dim             ....  625

ORBITAL ENERGIES
----------------

  NO   OCC          E(Eh)            E(eV)
   0   2.0000     -24.507581      -666.8852
   1   2.0000     -19.069026      -518.8946
   2   2.0000     -19.017769      -517.4998
   3   2.0000     -18.945225      -515.5258
   4   2.0000     -14.251753      -387.8099
   5   2.0000     -14.249727      -387.7548
   6   2.0000     -14.179708      -385.8495
   7   2.0000     -14.134913      -384.6305
   8   2.0000     -10.211769      -277.8764
   9   2.0000     -10.165984      -276.6305
  10   2.0000     -10.158101      -276.4160
  11   2.0000     -10.136891      -275.8388
  12   2.0000     -10.130820      -275.6736
  13   2.0000     -10.124887      -275.5122
  14   2.0000     -10.096081      -274.7283
  15   2.0000     -10.087695      -274.5001
  16   2.0000     -10.060041      -273.7476
  17   2.0000     -10.058336      -273.7012
  18   2.0000     -10.057503      -273.6786
  19   2.0000     -10.049994      -273.4742
  20   2.0000     -10.049446      -273.4593
  21   2.0000     -10.047084      -273.3950
  22   2.0000     -10.046538      -273.3802
  23   2.0000     -10.023516      -272.7538
  24   2.0000     -10.013851      -272.4907
  25   2.0000      -1.200430       -32.6654
  26   2.0000      -1.136560       -30.9274
  27   2.0000      -1.070386       -29.1267
  28   2.0000      -1.030453       -28.0401
  29   2.0000      -0.983881       -26.7728
  30   2.0000      -0.970128       -26.3985
  31   2.0000      -0.903079       -24.5740
  32   2.0000      -0.868854       -23.6427
  33   2.0000      -0.844142       -22.9703
  34   2.0000      -0.797240       -21.6940
  35   2.0000      -0.765501       -20.8303
  36   2.0000      -0.748838       -20.3769
  37   2.0000      -0.734040       -19.9742
  38   2.0000      -0.726182       -19.7604
  39   2.0000      -0.708547       -19.2805
  40   2.0000      -0.687721       -18.7138
  41   2.0000      -0.661937       -18.0122
  42   2.0000      -0.656850       -17.8738
  43   2.0000      -0.653909       -17.7938
  44   2.0000      -0.604126       -16.4391
  45   2.0000      -0.601623       -16.3710
  46   2.0000      -0.587975       -15.9996
  47   2.0000      -0.579586       -15.7713
  48   2.0000      -0.572045       -15.5661
  49   2.0000      -0.546587       -14.8734
  50   2.0000      -0.532548       -14.4914
  51   2.0000      -0.522325       -14.2132
  52   2.0000      -0.509478       -13.8636
  53   2.0000      -0.489579       -13.3221
  54   2.0000      -0.477464       -12.9925
  55   2.0000      -0.473268       -12.8783
  56   2.0000      -0.466869       -12.7042
  57   2.0000      -0.457552       -12.4506
  58   2.0000      -0.451697       -12.2913
  59   2.0000      -0.441679       -12.0187
  60   2.0000      -0.433954       -11.8085
  61   2.0000      -0.429752       -11.6942
  62   2.0000      -0.425107       -11.5677
  63   2.0000      -0.420333       -11.4379
  64   2.0000      -0.416018       -11.3204
  65   2.0000      -0.412120       -11.2143
  66   2.0000      -0.409448       -11.1417
  67   2.0000      -0.403263       -10.9733
  68   2.0000      -0.394998       -10.7484
  69   2.0000      -0.392316       -10.6755
  70   2.0000      -0.385441       -10.4884
  71   2.0000      -0.381516       -10.3816
  72   2.0000      -0.379285       -10.3209
  73   2.0000      -0.366986        -9.9862
  74   2.0000      -0.366642        -9.9768
  75   2.0000      -0.360120        -9.7994
  76   2.0000      -0.357972        -9.7409
  77   2.0000      -0.354449        -9.6450
  78   2.0000      -0.347691        -9.4612
  79   2.0000      -0.343646        -9.3511
  80   2.0000      -0.338702        -9.2166
  81   2.0000      -0.333226        -9.0676
  82   2.0000      -0.319724        -8.7001
  83   2.0000      -0.316596        -8.6150
  84   2.0000      -0.305799        -8.3212
  85   2.0000      -0.277560        -7.5528
  86   2.0000      -0.274987        -7.4828
  87   2.0000      -0.262695        -7.1483
  88   2.0000      -0.253375        -6.8947
  89   2.0000      -0.233105        -6.3431
  90   2.0000      -0.222370        -6.0510
  91   2.0000      -0.209583        -5.7030
  92   0.0000      -0.091111        -2.4792
  93   0.0000      -0.062374        -1.6973
  94   0.0000      -0.049096        -1.3360
  95   0.0000      -0.044502        -1.2110
  96   0.0000      -0.035956        -0.9784

MULLIKEN ATOMIC CHARGES
-----------------------
   0 C :   -0.411012
   1 N :    0.217200
   2 C :    0.136822
   3 C :    0.130226
   4 C :   -0.529705
   5 C :   -0.558109
   6 N :   -0.650599
   7 N :   -0.188031
   8 C :   -0.096098
   9 C :    0.415348
  10 C :   -0.596723
  11 O :   -0.009014
  12 N :   -0.121128
  13 C :   -0.347927
  14 C :    0.164785
  15 C :   -0.129398
  16 C :   -0.331406
  17 C :    0.358058
  18 F :   -0.229388
  19 C :   -0.269997
  20 C :   -0.240666
  21 C :    0.254266
  22 O :   -0.422272
  23 C :    0.126076
  24 O :   -0.498105
  25 H :    0.186800
  26 H :    0.197695
  27 H :    0.190666
  28 H :    0.183378
  29 H :    0.175843
  30 H :    0.187843
  31 H :    0.174546
  32 H :    0.175130
  33 H :    0.176939
  34 H :    0.290147
  35 H :    0.294975
  36 H :    0.227665
  37 H :    0.211148
  38 H :    0.240067
  39 H :    0.331746
  40 H :    0.218419
  41 H :    0.211705
  42 H :    0.191680
  43 H :    0.199327
  44 H :    0.199593
  45 H :    0.189683
  46 H :    0.371807
Sum of atomic charges:    1.0000000

LOEWDIN ATOMIC CHARGES
----------------------
   0 C :   -0.073189
   1 N :   -0.614274
   2 C :    0.388215
   3 C :    0.064959
   4 C :   -0.349595
   5 C :   -0.361867
   6 N :   -0.693971
   7 N :   -0.513169
   8 C :    0.385845
   9 C :    0.442194
  10 C :   -0.295092
  11 O :   -0.415709
  12 N :   -0.515804
  13 C :    0.030819
  14 C :   -0.078602
  15 C :   -0.133302
  16 C :   -0.151838
  17 C :    0.204912
  18 F :   -0.289989
  19 C :   -0.153123
  20 C :   -0.136568
  21 C :    0.255418
  22 O :   -0.474409
  23 C :    0.383793
  24 O :   -0.491591
  25 H :    0.203394
  26 H :    0.200517
  27 H :    0.201605
  28 H :    0.172088
  29 H :    0.168709
  30 H :    0.172640
  31 H :    0.164599
  32 H :    0.170018
  33 H :    0.169665
  34 H :    0.254333
  35 H :    0.256915
  36 H :    0.203485
  37 H :    0.198557
  38 H :    0.208040
  39 H :    0.312961
  40 H :    0.217853
  41 H :    0.218651
  42 H :    0.193112
  43 H :    0.196047
  44 H :    0.196012
  45 H :    0.189450
  46 H :    0.317291

  Mayer bond orders larger than 0.100000
B(  0-C ,  1-N ) :   0.9022 B(  0-C , 25-H ) :   0.9375 B(  0-C , 26-H ) :   0.9305
B(  0-C , 27-H ) :   0.9301 B(  1-N ,  2-C ) :   1.3227 B(  1-N , 23-C ) :   1.0964
B(  2-C ,  3-C ) :   0.9009 B(  2-C ,  7-N ) :   1.4845 B(  3-C ,  4-C ) :   0.9453
B(  3-C ,  5-C ) :   0.9584 B(  3-C ,  6-N ) :   0.8245 B(  4-C , 28-H ) :   0.9576
B(  4-C , 29-H ) :   0.9476 B(  4-C , 30-H ) :   0.9709 B(  5-C , 31-H ) :   0.9670
B(  5-C , 32-H ) :   0.9737 B(  5-C , 33-H ) :   0.9659 B(  6-N , 34-H ) :   0.9091
B(  6-N , 35-H ) :   0.9098 B(  7-N ,  8-C ) :   1.3912 B(  8-C , 11-O ) :   1.0194
B(  8-C , 21-C ) :   1.3964 B(  8-C , 22-O ) :   0.1056 B(  9-C , 10-C ) :   0.8832
B(  9-C , 11-O ) :   1.1618 B(  9-C , 12-N ) :   1.4930 B( 10-C , 36-H ) :   0.9248
B( 10-C , 37-H ) :   0.9556 B( 10-C , 38-H ) :   0.9295 B( 12-N , 13-C ) :   0.8888
B( 12-N , 39-H ) :   0.8766 B( 13-C , 14-C ) :   0.8062 B( 13-C , 40-H ) :   0.9345
B( 13-C , 41-H ) :   0.9661 B( 14-C , 15-C ) :   1.3796 B( 14-C , 20-C ) :   1.3963
B( 15-C , 16-C ) :   1.3935 B( 15-C , 42-H ) :   0.9325 B( 16-C , 17-C ) :   1.3894
B( 16-C , 43-H ) :   0.9328 B( 17-C , 18-F ) :   0.8939 B( 17-C , 19-C ) :   1.4045
B( 19-C , 20-C ) :   1.3587 B( 19-C , 44-H ) :   0.9321 B( 20-C , 45-H ) :   0.9479
B( 21-C , 22-O ) :   0.9098 B( 21-C , 23-C ) :   1.0353 B( 22-O , 46-H ) :   0.8109
B( 23-C , 24-O ) :   1.8189

Dispersion correction           -0.020893602
FINAL SINGLE POINT ENERGY     -1205.229410078858

DIPOLE MOMENT
-------------
                                X             Y             Z
Electronic contribution:     31.95934       1.15385       7.57594
Nuclear contribution   :    -33.14519      -2.20073     -10.81835
                        -----------------------------------------
Total Dipole Moment    :     -1.18585      -1.04688      -3.24241
                        -----------------------------------------
Magnitude (a.u.)       :      3.60768
Magnitude (Debye)      :      9.17001

Rotational constants in cm-1:     0.016587     0.003085     0.002780
Rotational constants in MHz :   497.266824    92.481245    83.349462

                             ****ORCA TERMINATED NORMALLY****
TOTAL RUN TIME: 0 days 0 hours 2 minutes 21 seconds 845 msec
