   * xtb version 6.5.1 (579679a) compiled by 'ehlert@majestix' on 2022-07-11
          program call               : /lustre/hpc/kemi/ree/PhD/git/ReactivityQM/dep/xtb-6.5.1/bin/xtb --gfn 1 /lustre/hpc/kemi/ree/PhD/git/ReactivityQM/calculations/RaltegravirCLI/reac02prodN07/conf19/RaltegravirCLI_reac02prodN07_conf19_gfn1.xyz --opt --vfukui --chrg 1 --uhf 0 --alpb DMSO

   ID    Z sym.   atoms
    1    6 C      1, 3-6, 9-11, 14-18, 20-22, 24
    2    7 N      2, 7, 8, 13
    3    8 O      12, 23, 25
    4    9 F      19
    5    1 H      26-47

      * Solvation model:               ALPB
        Solvent                        DMSO
        Solvent mass                       7.8130E+01 g/mol
          :  Hamiltonian                  GFN1-xTB          :
 * total energy  :   -79.3925144 Eh     change       -0.1705303E-12 Eh
 * total energy  :   -79.4068808 Eh     change       -0.1436641E-01 Eh
 * total energy  :   -79.4143775 Eh     change       -0.7496649E-02 Eh
 * total energy  :   -79.4164595 Eh     change       -0.2081989E-02 Eh
 * total energy  :   -79.4185636 Eh     change       -0.2104151E-02 Eh
 * total energy  :   -79.4198501 Eh     change       -0.1286513E-02 Eh
 * total energy  :   -79.4213420 Eh     change       -0.1491892E-02 Eh
 * total energy  :   -79.4227935 Eh     change       -0.1451536E-02 Eh
 * total energy  :   -79.4246693 Eh     change       -0.1875743E-02 Eh
 * total energy  :   -79.4284282 Eh     change       -0.3758936E-02 Eh
 * total energy  :   -79.5308795 Eh     change       -0.6650930E-04 Eh
 * total energy  :   -79.5308943 Eh     change       -0.1480197E-04 Eh
 * total energy  :   -79.5309215 Eh     change       -0.2727712E-04 Eh
 * total energy  :   -79.5309550 Eh     change       -0.3349142E-04 Eh
 * total energy  :   -79.5308783 Eh     change        0.7671209E-04 Eh
 * total energy  :   -79.5309675 Eh     change       -0.8917121E-04 Eh
 * total energy  :   -79.5309767 Eh     change       -0.9211902E-05 Eh
 * total energy  :   -79.5309828 Eh     change       -0.6145520E-05 Eh
 * total energy  :   -79.5309875 Eh     change       -0.4694700E-05 Eh
   *** GEOMETRY OPTIMIZATION CONVERGED AFTER 144 ITERATIONS ***

 final structure:
================
47
 xtb: 6.5.1 (579679a)
C           -3.44077767360752       -0.40524168758385        2.86832505772214
N           -2.51500822498581       -0.14445797174945        1.75902571744920
C           -2.92038036035831        0.07205027558653        0.47464377778084
C           -4.38340721461997        0.08228238064133        0.05587414526216
C           -4.97505787692143        1.46596141555217        0.36636089126344
C           -4.47464224644751       -0.18234042592849       -1.45694423458598
N           -5.12497376221367       -0.94099648843089        0.78070216559327
N           -2.06252451026337        0.32792053608399       -0.47399162287454
C           -0.73807324155580        0.34598565702855       -0.22485654591021
C            1.14062352824891        0.29670573378220       -1.80953830352326
C            1.53463440656666        0.90577537814711       -3.10951371989570
O           -0.00794189900001        0.71041522804315       -1.35906193805548
N            1.85945885845181       -0.59704119210402       -1.19774436060908
C            3.14576436408926       -1.11822656038609       -1.65417582859520
C            4.28237039622167       -0.58044231635417       -0.81046586128629
C            4.30394208016796        0.75138382764852       -0.40497008372261
C            5.36841325432039        1.24302951124921        0.33625198680000
C            6.39974866713735        0.37879909839019        0.65905007490496
F            7.42784510603175        0.84614872671751        1.37598337268865
C            6.40620557629426       -0.94996447263887        0.27342545732654
C            5.33412130116213       -1.42653985188203       -0.46687595351721
C           -0.24484735692463        0.10719253030373        1.01789188506697
O            1.06807574457296        0.10302286045402        1.35132948467782
C           -1.16945673962352       -0.16866963904509        2.09858873814829
O           -0.77160067191613       -0.39314674597697        3.23559861739696
H           -2.92316488216747       -0.17759815998348        3.79965756527402
H           -3.73326001194948       -1.45358602194234        2.85514789803758
H           -4.32332761178707        0.21792918059764        2.77191081184495
H           -5.99880382042526        1.51145976606914       -0.00228127917809
H           -4.98111842479080        1.65835519557986        1.43776669941946
H           -4.38702766331018        2.23863153081289       -0.12740138399497
H           -5.52187248513881       -0.24887853316725       -1.74624669810216
H           -4.00024112746404        0.62279943729168       -2.01574090818696
H           -3.97849888757061       -1.11954948380726       -1.70303561426678
H           -4.85474390152460       -1.85397412124853        0.43952246876865
H           -6.11252344048248       -0.82421794328586        0.59788622201695
H            2.53199644727912        1.33768276682312       -3.04673956981421
H            0.81674494318784        1.67914392547601       -3.37549425591613
H            1.54061723039430        0.14094939439493       -3.88674675305594
H            1.56272533312267       -0.93083772682456       -0.28703325450139
H            3.28553076087345       -0.85175311406979       -2.70322426601638
H            3.09318378205975       -2.20686596892431       -1.57807264605324
H            3.48212795113283        1.40816059965556       -0.66078931329086
H            5.39569633543035        2.27531666393126        0.66015470027783
H            7.22822389815600       -1.59719914347986        0.54910313483665
H            5.31581526239815       -2.46304502593690       -0.77894571277992
H            1.11940780774749       -0.09253302552140        2.30970923516755

          :  Hamiltonian                  GFN1-xTB          :
         :: total energy             -79.530987535608 Eh    ::
         :: gradient norm              0.000674663974 Eh/a0 ::
         :: HOMO-LUMO gap              2.208439263433 eV    ::
         :: SCC energy               -80.433436127590 Eh    ::
         :: -> Gsolv                  -0.100156927660 Eh    ::
         :: repulsion energy           0.932143189250 Eh    ::

    * Orbital Energies and Occupations

         #    Occupation            Energy/Eh            Energy/eV
      -------------------------------------------------------------
         1        2.0000           -0.9007981             -24.5120
       ...           ...                  ...                  ...
        55        2.0000           -0.5197176             -14.1422
        56        2.0000           -0.5102127             -13.8836
        57        2.0000           -0.5071933             -13.8014
        58        2.0000           -0.5045219             -13.7287
        59        2.0000           -0.4960331             -13.4977
        60        2.0000           -0.4890756             -13.3084
        61        2.0000           -0.4809649             -13.0877
        62        2.0000           -0.4766192             -12.9695
        63        2.0000           -0.4694805             -12.7752
        64        2.0000           -0.4672586             -12.7148
        65        2.0000           -0.4536558             -12.3446
        66        2.0000           -0.4410511             -12.0016
        67        2.0000           -0.4219172             -11.4810 (HOMO)
        68                         -0.3407586              -9.2725 (LUMO)
        69                         -0.3084847              -8.3943
        70                         -0.2895330              -7.8786
        71                         -0.2890314              -7.8649
        72                         -0.2838445              -7.7238
        73                         -0.1856394              -5.0515
        74                         -0.1762037              -4.7947
        75                         -0.1614891              -4.3943
        76                         -0.1509851              -4.1085
        77                         -0.1391193              -3.7856
        78                         -0.1309022              -3.5620
       ...                                ...                  ...
       144                          0.6866119              18.6837
      -------------------------------------------------------------
                  HL-Gap            0.0811586 Eh            2.2084 eV

Wiberg/Mayer (AO) data.
largest (>0.10) Wiberg bond orders for each atom

     #   Z sym  total        # sym  WBO       # sym  WBO       # sym  WBO
 ---------------------------------------------------------------------------
     1   6 C    3.911 --    28 H    0.978    26 H    0.975    27 H    0.974
                             2 N    0.919
     2   7 N    3.521 --     3 C    1.211    24 C    1.118     1 C    0.919
                            25 O    0.128
     3   6 C    3.914 --     8 N    1.509     2 N    1.211     4 C    0.978
     4   6 C    3.964 --     7 N    0.988     6 C    0.987     3 C    0.978
                             5 C    0.977
     5   6 C    3.992 --    31 H    0.985    29 H    0.982    30 H    0.980
                             4 C    0.977
     6   6 C    3.993 --     4 C    0.987    32 H    0.985    34 H    0.985
                            33 H    0.983
     7   7 N    2.976 --     4 C    0.988    35 H    0.940    36 H    0.936
     8   7 N    3.018 --     3 C    1.509     9 C    1.225
     9   6 C    3.858 --    22 C    1.494     8 N    1.225    12 O    0.899
    10   6 C    3.849 --    13 N    1.509    12 O    1.182    11 C    1.023
    11   6 C    3.973 --    10 C    1.023    38 H    0.976    37 H    0.958
                            39 H    0.947
    12   8 O    2.311 --    10 C    1.182     9 C    0.899    13 N    0.111
    13   7 N    3.495 --    10 C    1.509    14 C    0.921    40 H    0.857
                            12 O    0.111
    14   6 C    3.913 --    15 C    0.988    42 H    0.964    41 H    0.963
                            13 N    0.921
    15   6 C    3.984 --    16 C    1.417    21 C    1.416    14 C    0.988
    16   6 C    3.994 --    17 C    1.446    15 C    1.417    43 H    0.970
                            20 C    0.110
    17   6 C    3.991 --    16 C    1.446    18 C    1.397    44 H    0.968
                            21 C    0.110
    18   6 C    3.864 --    20 C    1.398    17 C    1.397    19 F    0.937
    19   9 F    1.068 --    18 C    0.937
    20   6 C    3.990 --    21 C    1.445    18 C    1.398    45 H    0.967
                            16 C    0.110
    21   6 C    3.992 --    20 C    1.445    15 C    1.416    46 H    0.969
                            17 C    0.110
    22   6 C    3.921 --     9 C    1.494    24 C    1.098    23 O    1.058
    23   8 O    2.050 --    22 C    1.058    47 H    0.794
    24   6 C    3.921 --    25 O    1.556     2 N    1.118    22 C    1.098
    25   8 O    1.907 --    24 C    1.556     2 N    0.128
    26   1 H    1.006 --     1 C    0.975
    27   1 H    1.014 --     1 C    0.974
    28   1 H    1.021 --     1 C    0.978
    29   1 H    0.998 --     5 C    0.982
    30   1 H    1.003 --     5 C    0.980
    31   1 H    1.003 --     5 C    0.985
    32   1 H    1.002 --     6 C    0.985
    33   1 H    1.011 --     6 C    0.983
    34   1 H    1.006 --     6 C    0.985
    35   1 H    0.954 --     7 N    0.940
    36   1 H    0.950 --     7 N    0.936
    37   1 H    0.993 --    11 C    0.958
    38   1 H    0.993 --    11 C    0.976
    39   1 H    0.989 --    11 C    0.947
    40   1 H    0.922 --    13 N    0.857
    41   1 H    1.000 --    14 C    0.963
    42   1 H    0.997 --    14 C    0.964
    43   1 H    1.000 --    16 C    0.970
    44   1 H    0.996 --    17 C    0.968
    45   1 H    0.995 --    20 C    0.967
    46   1 H    0.996 --    21 C    0.969
    47   1 H    0.837 --    23 O    0.794
 ---------------------------------------------------------------------------

           -------------------------------------------------
          | TOTAL ENERGY              -79.530987535608 Eh   |
          | GRADIENT NORM               0.000674663974 Eh/α |
          | HOMO-LUMO GAP               2.208439263433 eV   |
           -------------------------------------------------

 * finished run on 2023/06/20 at 15:25:46.572
