                         Program Version 5.0.1 -  RELEASE  -
|  1> # ORCA input file
|  2> ! SP r2SCAN-3c CPCM
|  3>
|  4> %maxcore 1875.0
|  5> %pal nprocs 4 end
|  6> %cpcm smd true SMDsolvent "DMSO" end
|  7>
|  8> *xyz -2 1
|  9> C      -2.362851    3.793024    0.616517
| 10> O      -2.028515    2.688235   -0.198389
| 11> C      -2.035693    1.459432    0.436985
| 12> O      -2.284897    1.417794    1.650433
| 13> C      -1.771214    0.339661   -0.404083
| 14> C      -1.527472    0.398448   -1.790742
| 15> O      -1.462979    1.436890   -2.491504
| 16> C      -1.272331   -0.939273   -2.468373
| 17> O      -1.360579   -1.112961   -3.701106
| 18> N      -0.866187   -1.943157   -1.663472
| 19> C      -1.053415   -2.023619   -0.250152
| 20> C       0.230048   -2.341710    0.510713
| 21> C      -0.043086   -2.363614    2.013966
| 22> C       0.772100   -3.713284    0.072555
| 23> N       1.271556   -1.349965    0.148435
| 24> C       1.773360   -0.326929    0.883602
| 25> O       1.799059   -0.264153    2.126013
| 26> C       2.351436    0.702589    0.020097
| 27> N       2.271070    0.756683   -1.292230
| 28> N       3.001479    1.846618   -1.686334
| 29> C       3.481103    2.384245   -0.613117
| 30> C       4.346513    3.584119   -0.517851
| 31> O       3.116651    1.723544    0.505534
| 32> N      -1.824540   -0.935449    0.293758
| 33> C      -3.217429   -1.361072    0.537724
| 34> H      -3.379112    3.697297    1.016559
| 35> H      -2.304887    4.686523   -0.006399
| 36> H      -1.669453    3.894672    1.460285
| 37> H      -0.674306   -2.814227   -2.131932
| 38> H       0.867742   -2.562349    2.577538
| 39> H      -0.470227   -1.416164    2.345378
| 40> H      -0.760379   -3.158005    2.221449
| 41> H       1.052263   -3.697261   -0.979947
| 42> H       1.651726   -3.981562    0.657500
| 43> H       0.004846   -4.472002    0.217997
| 44> H       1.377624   -1.260094   -0.857679
| 45> H       5.342064    3.303706   -0.173314
| 46> H       4.427786    4.053489   -1.495438
| 47> H       3.931986    4.295734    0.195788
| 48> H      -3.781362   -1.476832   -0.398749
| 49> H      -3.196919   -2.321897    1.053294
| 50> H      -3.722574   -0.627124    1.169670
| 51> **                         ****END OF INPUT****

CARTESIAN COORDINATES (ANGSTROEM)
---------------------------------
  C     -2.362851    3.793024    0.616517
  O     -2.028515    2.688235   -0.198389
  C     -2.035693    1.459432    0.436985
  O     -2.284897    1.417794    1.650433
  C     -1.771214    0.339661   -0.404083
  C     -1.527472    0.398448   -1.790742
  O     -1.462979    1.436890   -2.491504
  C     -1.272331   -0.939273   -2.468373
  O     -1.360579   -1.112961   -3.701106
  N     -0.866187   -1.943157   -1.663472
  C     -1.053415   -2.023619   -0.250152
  C      0.230048   -2.341710    0.510713
  C     -0.043086   -2.363614    2.013966
  C      0.772100   -3.713284    0.072555
  N      1.271556   -1.349965    0.148435
  C      1.773360   -0.326929    0.883602
  O      1.799059   -0.264153    2.126013
  C      2.351436    0.702589    0.020097
  N      2.271070    0.756683   -1.292230
  N      3.001479    1.846618   -1.686334
  C      3.481103    2.384245   -0.613117
  C      4.346513    3.584119   -0.517851
  O      3.116651    1.723544    0.505534
  N     -1.824540   -0.935449    0.293758
  C     -3.217429   -1.361072    0.537724
  H     -3.379112    3.697297    1.016559
  H     -2.304887    4.686523   -0.006399
  H     -1.669453    3.894672    1.460285
  H     -0.674306   -2.814227   -2.131932
  H      0.867742   -2.562349    2.577538
  H     -0.470227   -1.416164    2.345378
  H     -0.760379   -3.158005    2.221449
  H      1.052263   -3.697261   -0.979947
  H      1.651726   -3.981562    0.657500
  H      0.004846   -4.472002    0.217997
  H      1.377624   -1.260094   -0.857679
  H      5.342064    3.303706   -0.173314
  H      4.427786    4.053489   -1.495438
  H      3.931986    4.295734    0.195788
  H     -3.781362   -1.476832   -0.398749
  H     -3.196919   -2.321897    1.053294
  H     -3.722574   -0.627124    1.169670

 Total Charge           Charge          ....   -2
 Multiplicity           Mult            ....    1
 Number of Electrons    NEL             ....  186
 Basis Dimension        Dim             ....  615

ORBITAL ENERGIES
----------------

  NO   OCC          E(Eh)            E(eV)
   0   2.0000     -19.037148      -518.0271
   1   2.0000     -18.945918      -515.5446
   2   2.0000     -18.887970      -513.9678
   3   2.0000     -18.879954      -513.7497
   4   2.0000     -18.872138      -513.5370
   5   2.0000     -18.856286      -513.1056
   6   2.0000     -14.178546      -385.8179
   7   2.0000     -14.176951      -385.7744
   8   2.0000     -14.161716      -385.3599
   9   2.0000     -14.155433      -385.1889
  10   2.0000     -14.123396      -384.3171
  11   2.0000     -10.123482      -275.4739
  12   2.0000     -10.114097      -275.2186
  13   2.0000     -10.110650      -275.1248
  14   2.0000     -10.099077      -274.8099
  15   2.0000     -10.076074      -274.1839
  16   2.0000     -10.053451      -273.5683
  17   2.0000     -10.050929      -273.4997
  18   2.0000     -10.048141      -273.4238
  19   2.0000     -10.035463      -273.0788
  20   2.0000     -10.015489      -272.5353
  21   2.0000     -10.011211      -272.4189
  22   2.0000     -10.000607      -272.1303
  23   2.0000     -10.000009      -272.1141
  24   2.0000      -9.992204      -271.9017
  25   2.0000      -1.120830       -30.4993
  26   2.0000      -1.012181       -27.5429
  27   2.0000      -0.968504       -26.3543
  28   2.0000      -0.955896       -26.0113
  29   2.0000      -0.947686       -25.7878
  30   2.0000      -0.920005       -25.0346
  31   2.0000      -0.910038       -24.7634
  32   2.0000      -0.884662       -24.0729
  33   2.0000      -0.860568       -23.4173
  34   2.0000      -0.817519       -22.2458
  35   2.0000      -0.805125       -21.9086
  36   2.0000      -0.734697       -19.9921
  37   2.0000      -0.694191       -18.8899
  38   2.0000      -0.685482       -18.6529
  39   2.0000      -0.642956       -17.4957
  40   2.0000      -0.635385       -17.2897
  41   2.0000      -0.635142       -17.2831
  42   2.0000      -0.624754       -17.0004
  43   2.0000      -0.586233       -15.9522
  44   2.0000      -0.581755       -15.8304
  45   2.0000      -0.559280       -15.2188
  46   2.0000      -0.540574       -14.7098
  47   2.0000      -0.501093       -13.6354
  48   2.0000      -0.496931       -13.5222
  49   2.0000      -0.492776       -13.4091
  50   2.0000      -0.466742       -12.7007
  51   2.0000      -0.455034       -12.3821
  52   2.0000      -0.444641       -12.0993
  53   2.0000      -0.439809       -11.9678
  54   2.0000      -0.431526       -11.7424
  55   2.0000      -0.410395       -11.1674
  56   2.0000      -0.408788       -11.1237
  57   2.0000      -0.404832       -11.0160
  58   2.0000      -0.389540       -10.5999
  59   2.0000      -0.387909       -10.5555
  60   2.0000      -0.382518       -10.4088
  61   2.0000      -0.374193       -10.1823
  62   2.0000      -0.371046       -10.0967
  63   2.0000      -0.369010       -10.0413
  64   2.0000      -0.363813        -9.8999
  65   2.0000      -0.359094        -9.7714
  66   2.0000      -0.356456        -9.6997
  67   2.0000      -0.346356        -9.4248
  68   2.0000      -0.342744        -9.3265
  69   2.0000      -0.338576        -9.2131
  70   2.0000      -0.329575        -8.9682
  71   2.0000      -0.326805        -8.8928
  72   2.0000      -0.322227        -8.7682
  73   2.0000      -0.321094        -8.7374
  74   2.0000      -0.319321        -8.6892
  75   2.0000      -0.307362        -8.3637
  76   2.0000      -0.297992        -8.1088
  77   2.0000      -0.295291        -8.0353
  78   2.0000      -0.289648        -7.8817
  79   2.0000      -0.281855        -7.6697
  80   2.0000      -0.274860        -7.4793
  81   2.0000      -0.249437        -6.7875
  82   2.0000      -0.239522        -6.5177
  83   2.0000      -0.232592        -6.3291
  84   2.0000      -0.227323        -6.1858
  85   2.0000      -0.210177        -5.7192
  86   2.0000      -0.202463        -5.5093
  87   2.0000      -0.199840        -5.4379
  88   2.0000      -0.191932        -5.2227
  89   2.0000      -0.179307        -4.8792
  90   2.0000      -0.151782        -4.1302
  91   2.0000      -0.128775        -3.5041
  92   2.0000      -0.090851        -2.4722
  93   0.0000      -0.061612        -1.6765
  94   0.0000      -0.024263        -0.6602
  95   0.0000      -0.001531        -0.0417
  96   0.0000       0.052879         1.4389
  97   0.0000       0.059381         1.6158

MULLIKEN ATOMIC CHARGES
-----------------------
   0 C :   -0.344426
   1 O :   -0.156750
   2 C :    0.136991
   3 O :   -0.466686
   4 C :   -0.220484
   5 C :   -0.088181
   6 O :   -0.377688
   7 C :   -0.096750
   8 O :   -0.421650
   9 N :    0.039142
  10 C :   -0.546961
  11 C :    0.211859
  12 C :   -0.622505
  13 C :   -0.584767
  14 N :   -0.031515
  15 C :   -0.260005
  16 O :   -0.452652
  17 C :    0.309343
  18 N :   -0.144158
  19 N :   -0.349917
  20 C :    0.390058
  21 C :   -0.649306
  22 O :   -0.045453
  23 N :    0.158741
  24 C :   -0.462445
  25 H :    0.153083
  26 H :    0.154350
  27 H :    0.154561
  28 H :    0.263635
  29 H :    0.169769
  30 H :    0.180049
  31 H :    0.157028
  32 H :    0.162286
  33 H :    0.165302
  34 H :    0.173486
  35 H :    0.292928
  36 H :    0.194697
  37 H :    0.198355
  38 H :    0.190413
  39 H :    0.148940
  40 H :    0.154504
  41 H :    0.162777
Sum of atomic charges:   -2.0000000

LOEWDIN ATOMIC CHARGES
----------------------
   0 C :   -0.068422
   1 O :   -0.630968
   2 C :    0.369957
   3 O :   -0.535599
   4 C :    0.072796
   5 C :    0.218234
   6 O :   -0.597074
   7 C :    0.315757
   8 O :   -0.549390
   9 N :   -0.591002
  10 C :    0.135457
  11 C :    0.083880
  12 C :   -0.365749
  13 C :   -0.380768
  14 N :   -0.610833
  15 C :    0.337524
  16 O :   -0.536491
  17 C :    0.403792
  18 N :   -0.404196
  19 N :   -0.395639
  20 C :    0.353223
  21 C :   -0.325668
  22 O :   -0.387532
  23 N :   -0.866001
  24 C :   -0.156354
  25 H :    0.166081
  26 H :    0.171137
  27 H :    0.166643
  28 H :    0.279065
  29 H :    0.163685
  30 H :    0.177733
  31 H :    0.156955
  32 H :    0.162538
  33 H :    0.158366
  34 H :    0.162918
  35 H :    0.297091
  36 H :    0.186061
  37 H :    0.186860
  38 H :    0.184621
  39 H :    0.151411
  40 H :    0.168664
  41 H :    0.171239

  Mayer bond orders larger than 0.100000
B(  0-C ,  1-O ) :   0.8579 B(  0-C , 25-H ) :   0.9672 B(  0-C , 26-H ) :   0.9718
B(  0-C , 27-H ) :   0.9670 B(  1-O ,  2-C ) :   1.0556 B(  2-C ,  3-O ) :   1.8278
B(  2-C ,  4-C ) :   1.2928 B(  4-C ,  5-C ) :   1.0332 B(  4-C ,  6-O ) :  -0.1004
B(  4-C , 23-N ) :   0.6505 B(  5-C ,  6-O ) :   1.9871 B(  5-C ,  7-C ) :   0.8921
B(  7-C ,  8-O ) :   2.0461 B(  7-C ,  9-N ) :   1.1131 B(  7-C , 10-C ) :   0.1077
B(  9-N , 10-C ) :   0.9378 B(  9-N , 28-H ) :   0.8829 B( 10-C , 11-C ) :   0.6669
B( 10-C , 23-N ) :   1.0049 B( 11-C , 12-C ) :   0.8424 B( 11-C , 13-C ) :   0.9363
B( 11-C , 14-N ) :   0.8504 B( 12-C , 29-H ) :   0.9758 B( 12-C , 30-H ) :   0.9816
B( 12-C , 31-H ) :   0.9677 B( 13-C , 32-H ) :   0.9753 B( 13-C , 33-H ) :   0.9713
B( 13-C , 34-H ) :   0.9878 B( 14-N , 15-C ) :   1.1042 B( 14-N , 35-H ) :   0.8800
B( 15-C , 16-O ) :   1.8952 B( 15-C , 17-C ) :   0.8673 B( 17-C , 18-N ) :   1.5947
B( 17-C , 22-O ) :   1.0851 B( 18-N , 19-N ) :   1.1994 B( 19-N , 20-C ) :   1.6564
B( 20-C , 21-C ) :   0.8237 B( 20-C , 22-O ) :   1.0594 B( 21-C , 36-H ) :   0.9425
B( 21-C , 37-H ) :   0.9931 B( 21-C , 38-H ) :   0.9537 B( 23-N , 24-C ) :   0.8613
B( 24-C , 39-H ) :   0.9732 B( 24-C , 40-H ) :   0.9726 B( 24-C , 41-H ) :   0.9638

Dispersion correction           -0.020845936
FINAL SINGLE POINT ENERGY     -1268.801476542283

DIPOLE MOMENT
-------------
                                X             Y             Z
Electronic contribution:      5.65374       7.01603      -8.52092
Nuclear contribution   :     -1.83658      -6.40541      10.83209
                        -----------------------------------------
Total Dipole Moment    :      3.81717       0.61062       2.31118
                        -----------------------------------------
Magnitude (a.u.)       :      4.50390
Magnitude (Debye)      :     11.44801

Rotational constants in cm-1:     0.008648     0.006590     0.005542
Rotational constants in MHz :   259.273825   197.570319   166.151881

                             ****ORCA TERMINATED NORMALLY****
TOTAL RUN TIME: 0 days 0 hours 1 minutes 56 seconds 374 msec
