   * xtb version 6.5.1 (579679a) compiled by 'ehlert@majestix' on 2022-07-11
          program call               : /lustre/hpc/kemi/ree/PhD/git/ReactivityQM/dep/xtb-6.5.1/bin/xtb --gfn 1 /lustre/hpc/kemi/ree/PhD/git/ReactivityQM/calculations/R02oxygendeprot/reac01prodE05/conf02/R02oxygendeprot_reac01prodE05_conf02_gfn1.xyz --opt --vfukui --chrg -2 --uhf 0 --alpb DMSO

   ID    Z sym.   atoms
    1    6 C      1, 3, 5, 6, 8, 11-14, 16, 18, 21, 22, 25
    2    8 O      2, 4, 7, 9, 17, 23
    3    7 N      10, 15, 19, 20, 24
    4    1 H      26-42

      * Solvation model:               ALPB
        Solvent                        DMSO
        Solvent mass                       7.8130E+01 g/mol
          :  Hamiltonian                  GFN1-xTB          :
 * total energy  :   -83.5584359 Eh     change       -0.1422791E-09 Eh
 * total energy  :   -83.5714081 Eh     change       -0.1297224E-01 Eh
 * total energy  :   -83.5766018 Eh     change       -0.5193626E-02 Eh
 * total energy  :   -83.5779306 Eh     change       -0.1328851E-02 Eh
 * total energy  :   -83.5787563 Eh     change       -0.8256958E-03 Eh
 * total energy  :   -83.5791031 Eh     change       -0.3467968E-03 Eh
 * total energy  :   -83.5793572 Eh     change       -0.2540414E-03 Eh
 * total energy  :   -83.5795766 Eh     change       -0.2194369E-03 Eh
 * total energy  :   -83.5797502 Eh     change       -0.1735717E-03 Eh
 * total energy  :   -83.5798956 Eh     change       -0.1454353E-03 Eh
 * total energy  :   -83.5923417 Eh     change       -0.1868314E-04 Eh
 * total energy  :   -83.5923495 Eh     change       -0.7834146E-05 Eh
 * total energy  :   -83.5923682 Eh     change       -0.1871878E-04 Eh
 * total energy  :   -83.5923814 Eh     change       -0.1322028E-04 Eh
 * total energy  :   -83.5923863 Eh     change       -0.4841620E-05 Eh
 * total energy  :   -83.5923987 Eh     change       -0.1242372E-04 Eh
 * total energy  :   -83.5924038 Eh     change       -0.5063826E-05 Eh
 * total energy  :   -83.5924091 Eh     change       -0.5306498E-05 Eh
 * total energy  :   -83.5924125 Eh     change       -0.3397323E-05 Eh
   *** GEOMETRY OPTIMIZATION CONVERGED AFTER 128 ITERATIONS ***

 final structure:
================
42
 xtb: 6.5.1 (579679a)
C           -2.36285146277150        3.79302438272065        0.61651712778964
O           -2.02851533409553        2.68823530417937       -0.19838854738123
C           -2.03569295931538        1.45943207844434        0.43698525414375
O           -2.28489723548968        1.41779412601894        1.65043269642036
C           -1.77121391315309        0.33966131079858       -0.40408259040439
C           -1.52747158217649        0.39844832875021       -1.79074242631562
O           -1.46297857793514        1.43689041115924       -2.49150387623697
C           -1.27233053189856       -0.93927312934991       -2.46837340553720
O           -1.36057919757215       -1.11296106451151       -3.70110623441431
N           -0.86618669541849       -1.94315724517056       -1.66347178986498
C           -1.05341526931222       -2.02361945395133       -0.25015151410422
C            0.23004769158937       -2.34171038952853        0.51071341998932
C           -0.04308644942363       -2.36361375075516        2.01396626334849
C            0.77209980898993       -3.71328367512106        0.07255491854656
N            1.27155587801841       -1.34996535845651        0.14843481714734
C            1.77336002371417       -0.32692945261407        0.88360213194484
O            1.79905948355518       -0.26415250400038        2.12601309514609
C            2.35143615694642        0.70258861697168        0.02009679185988
N            2.27107017481682        0.75668334309629       -1.29222990926071
N            3.00147858385644        1.84661783949134       -1.68633442423207
C            3.48110260833608        2.38424515555662       -0.61311716341211
C            4.34651278683356        3.58411938265265       -0.51785112699290
O            3.11665096423307        1.72354429452541        0.50553417470393
N           -1.82453982436284       -0.93544915957752        0.29375841583165
C           -3.21742861296848       -1.36107193099459        0.53772430580802
H           -3.37911192803564        3.69729702309566        1.01655926092269
H           -2.30488749431580        4.68652328214507       -0.00639872448710
H           -1.66945295909255        3.89467202709268        1.46028498623622
H           -0.67430559656763       -2.81422712944653       -2.13193216406225
H            0.86774232108533       -2.56234876500977        2.57753779299644
H           -0.47022731484411       -1.41616441088693        2.34537764636986
H           -0.76037876949730       -3.15800527468036        2.22144921868327
H            1.05226263934201       -3.69726058201676       -0.97994653562877
H            1.65172552821328       -3.98156236352650        0.65750020929297
H            0.00484560749990       -4.47200176900613        0.21799705489002
H            1.37762362628084       -1.26009403752141       -0.85767890367843
H            5.34206413893909        3.30370621588886       -0.17331411424875
H            4.42778571286603        4.05348862747820       -1.49543828204131
H            3.93198578542379        4.29573408946541        0.19578844173500
H           -3.78136204466752       -1.47683161128313       -0.39874914429672
H           -3.19691850949951       -2.32189730026782        1.05329423301670
H           -3.72257425818407       -0.62712448184844        1.16966961973845

          :  Hamiltonian                  GFN1-xTB          :
         :: total energy             -83.592412467984 Eh    ::
         :: gradient norm              0.000908168704 Eh/a0 ::
         :: HOMO-LUMO gap              0.492086500675 eV    ::
         :: SCC energy               -84.313041491073 Eh    ::
         :: -> Gsolv                  -0.292561164429 Eh    ::
         :: repulsion energy           0.749294426329 Eh    ::

    * Orbital Energies and Occupations

         #    Occupation            Energy/Eh            Energy/eV
      -------------------------------------------------------------
         1        2.0000           -0.8202884             -22.3212
       ...           ...                  ...                  ...
        56        2.0000           -0.4422924             -12.0354
        57        2.0000           -0.4394631             -11.9584
        58        2.0000           -0.4202382             -11.4353
        59        2.0000           -0.4194559             -11.4140
        60        2.0000           -0.4174920             -11.3605
        61        2.0000           -0.4063257             -11.0567
        62        2.0000           -0.4053149             -11.0292
        63        2.0000           -0.3994219             -10.8688
        64        2.0000           -0.3896152             -10.6020
        65        2.0000           -0.3643462              -9.9144
        66        2.0000           -0.3460030              -9.4152
        67        2.0000           -0.3234052              -8.8003
        68        1.9999           -0.2841987              -7.7334 (HOMO)
        69        0.0001           -0.2661148              -7.2414 (LUMO)
        70                         -0.2309982              -6.2858
        71                         -0.2225618              -6.0562
        72                         -0.1651675              -4.4944
        73                         -0.1506112              -4.0983
        74                         -0.1300274              -3.5382
        75                         -0.1105672              -3.0087
        76                         -0.1027178              -2.7951
        77                         -0.1014554              -2.7607
        78                         -0.0903545              -2.4587
        79                         -0.0780212              -2.1231
       ...                                ...                  ...
       134                          0.7480880              20.3565
      -------------------------------------------------------------
                  HL-Gap            0.0180838 Eh            0.4921 eV

Wiberg/Mayer (AO) data.
largest (>0.10) Wiberg bond orders for each atom

     #   Z sym  total        # sym  WBO       # sym  WBO       # sym  WBO
 ---------------------------------------------------------------------------
     1   6 C    3.915 --    27 H    0.987    26 H    0.980    28 H    0.980
                             2 O    0.945
     2   8 O    2.116 --     3 C    0.986     1 C    0.945
     3   6 C    3.856 --     4 O    1.501     5 C    1.233     2 O    0.986
     4   8 O    1.814 --     3 C    1.501
     5   6 C    3.894 --     6 C    1.324     3 C    1.233    24 N    0.972
                             7 O    0.133
     6   6 C    3.940 --     7 O    1.482     5 C    1.324     8 C    0.951
     7   8 O    1.787 --     6 C    1.482     5 C    0.133
     8   6 C    3.889 --     9 O    1.485    10 N    1.254     6 C    0.951
     9   8 O    1.762 --     8 C    1.485    10 N    0.149
    10   7 N    3.399 --     8 C    1.254    11 C    0.974    29 H    0.914
                             9 O    0.149
    11   6 C    3.508 --    24 N    0.984    10 N    0.974    12 C    0.964
    12   6 C    3.924 --    13 C    1.004    14 C    0.990    11 C    0.964
                            15 N    0.886
    13   6 C    3.996 --    12 C    1.004    32 H    0.986    30 H    0.986
                            31 H    0.980
    14   6 C    3.995 --    12 C    0.990    34 H    0.987    35 H    0.986
                            33 H    0.984
    15   7 N    3.337 --    16 C    1.223    36 H    0.913    12 C    0.886
                            17 O    0.155
    16   6 C    3.928 --    17 O    1.463    15 N    1.223    18 C    1.055
    17   8 O    1.791 --    16 C    1.463    15 N    0.155
    18   6 C    3.851 --    19 N    1.511    16 C    1.055    23 O    1.016
    19   7 N    2.977 --    18 C    1.511    20 N    1.177
    20   7 N    2.980 --    21 C    1.634    19 N    1.177
    21   6 C    3.851 --    20 N    1.634    23 O    1.062    22 C    1.025
    22   6 C    3.993 --    21 C    1.025    38 H    0.985    39 H    0.972
                            37 H    0.967
    23   8 O    2.249 --    21 C    1.062    18 C    1.016
    24   7 N    3.096 --    11 C    0.984     5 C    0.972    25 C    0.960
    25   6 C    3.974 --    41 H    0.988    42 H    0.987    40 H    0.983
                            24 N    0.960
    26   1 H    1.019 --     1 C    0.980
    27   1 H    1.019 --     1 C    0.987
    28   1 H    1.020 --     1 C    0.980
    29   1 H    0.977 --    10 N    0.914
    30   1 H    1.019 --    13 C    0.986
    31   1 H    1.030 --    13 C    0.980
    32   1 H    1.013 --    13 C    0.986
    33   1 H    1.008 --    14 C    0.984
    34   1 H    1.009 --    14 C    0.987
    35   1 H    1.014 --    14 C    0.986
    36   1 H    0.985 --    15 N    0.913
    37   1 H    1.001 --    22 C    0.967
    38   1 H    1.003 --    22 C    0.985
    39   1 H    1.000 --    22 C    0.972
    40   1 H    1.013 --    25 C    0.983
    41   1 H    1.034 --    25 C    0.988
    42   1 H    1.028 --    25 C    0.987
 ---------------------------------------------------------------------------

           -------------------------------------------------
          | TOTAL ENERGY              -83.592412467984 Eh   |
          | GRADIENT NORM               0.000908168704 Eh/α |
          | HOMO-LUMO GAP               0.492086500675 eV   |
           -------------------------------------------------

 * finished run on 2023/06/21 at 17:06:33.350
