   * xtb version 6.5.1 (579679a) compiled by 'ehlert@majestix' on 2022-07-11
          program call               : /lustre/hpc/kemi/ree/PhD/git/ReactivityQM/dep/xtb-6.5.1/bin/xtb --gfn 1 /lustre/hpc/kemi/ree/PhD/git/ReactivityQM/calculations/R01/reac01prodE06/conf04/R01_reac01prodE06_conf04_gfn1.xyz --opt --vfukui --chrg -1 --uhf 0 --alpb DMSO

   ID    Z sym.   atoms
    1    6 C      1, 3, 5, 8-10
    2    8 O      2, 4, 11
    3    7 N      6, 7
    4    1 H      12-20

      * Solvation model:               ALPB
        Solvent                        DMSO
        Solvent mass                       7.8130E+01 g/mol
          :  Hamiltonian                  GFN1-xTB          :
 * total energy  :   -38.3452712 Eh     change       -0.2629008E-11 Eh
 * total energy  :   -38.3528009 Eh     change       -0.7529631E-02 Eh
 * total energy  :   -38.3548182 Eh     change       -0.2017354E-02 Eh
 * total energy  :   -38.3550176 Eh     change       -0.1993299E-03 Eh
 * total energy  :   -38.3551283 Eh     change       -0.1107184E-03 Eh
 * total energy  :   -38.3551497 Eh     change       -0.2140039E-04 Eh
 * total energy  :   -38.3551639 Eh     change       -0.1417639E-04 Eh
 * total energy  :   -38.3551696 Eh     change       -0.5762825E-05 Eh
 * total energy  :   -38.3551716 Eh     change       -0.1995461E-05 Eh
   *** GEOMETRY OPTIMIZATION CONVERGED AFTER 9 ITERATIONS ***

 final structure:
================
20
 xtb: 6.5.1 (579679a)
C            4.10413012429972        0.31720929397420       -0.46164968879339
O            2.78719700905892       -0.16900664680773       -0.64958517472371
C            1.79935492366318        0.54451917440877        0.02873490342620
O            2.10576423079404        1.52198885833032        0.72523105561870
C            0.52180698592890        0.00671964829076       -0.19950436030244
N            0.21785010712498       -1.04782652506397       -0.95496388805358
N           -1.05336255701506       -1.27866057167487       -0.94608988353408
C           -1.68930932235240       -0.26555928899584       -0.08493264552412
C           -2.68745564172941        0.56128289579132       -0.91102068580926
C           -2.39122471554317       -0.95736318532929        1.09475738831252
O           -0.63444318197266        0.55896461087870        0.38443559810310
H            4.77075652099860       -0.32830503573762       -1.03443890056669
H            4.19887625488427        1.34890261034252       -0.81982814195803
H            4.38846273695987        0.28779531469837        0.59671072837134
H           -3.13698725674662        1.33592696620734       -0.29253516532949
H           -3.46860847765014       -0.08822508769763       -1.30033737436596
H           -2.16544832678088        1.02920343117194       -1.74428622634189
H           -3.17782610703908       -1.61059202535423        0.72325267613913
H           -2.82398137339044       -0.21460122534970        1.76253933410450
H           -1.66555393349276       -1.55237221208342        1.64716545122746

          :  Hamiltonian                  GFN1-xTB          :
         :: total energy             -38.355171611732 Eh    ::
         :: gradient norm              0.000628238306 Eh/a0 ::
         :: HOMO-LUMO gap              2.120768402495 eV    ::
         :: SCC energy               -38.663019479579 Eh    ::
         :: -> Gsolv                  -0.096792697851 Eh    ::
         :: repulsion energy           0.316300464096 Eh    ::

    * Orbital Energies and Occupations

         #    Occupation            Energy/Eh            Energy/eV
      -------------------------------------------------------------
         1        2.0000           -0.7798697             -21.2213
       ...           ...                  ...                  ...
        19        2.0000           -0.5081544             -13.8276
        20        2.0000           -0.4953067             -13.4780
        21        2.0000           -0.4864492             -13.2370
        22        2.0000           -0.4840975             -13.1730
        23        2.0000           -0.4777987             -13.0016
        24        2.0000           -0.4703413             -12.7986
        25        2.0000           -0.4504261             -12.2567
        26        2.0000           -0.4496078             -12.2345
        27        2.0000           -0.4391485             -11.9498
        28        2.0000           -0.4243197             -11.5463
        29        2.0000           -0.4127267             -11.2309
        30        2.0000           -0.3743747             -10.1873
        31        2.0000           -0.3215069              -8.7486 (HOMO)
        32                         -0.2435701              -6.6279 (LUMO)
        33                         -0.1280999              -3.4858
        34                         -0.1157384              -3.1494
        35                         -0.1056113              -2.8738
        36                         -0.0996799              -2.7124
        37                         -0.0588681              -1.6019
        38                         -0.0539094              -1.4669
        39                         -0.0521251              -1.4184
        40                         -0.0472750              -1.2864
        41                         -0.0290691              -0.7910
        42                         -0.0274567              -0.7471
       ...                                ...                  ...
        62                          0.7027380              19.1225
      -------------------------------------------------------------
                  HL-Gap            0.0779368 Eh            2.1208 eV

Wiberg/Mayer (AO) data.
largest (>0.10) Wiberg bond orders for each atom

     #   Z sym  total        # sym  WBO       # sym  WBO       # sym  WBO
 ---------------------------------------------------------------------------
     1   6 C    3.908 --    12 H    0.987    13 H    0.981    14 H    0.981
                             2 O    0.939
     2   8 O    2.085 --     3 C    0.961     1 C    0.939
     3   6 C    3.882 --     4 O    1.489     5 C    1.250     2 O    0.961
                             7 N    0.105
     4   8 O    1.811 --     3 C    1.489
     5   6 C    3.846 --     6 N    1.367     3 C    1.250    11 O    0.931
                             7 N    0.151
     6   7 N    3.024 --     7 N    1.503     5 C    1.367
     7   7 N    2.899 --     6 N    1.503     8 C    0.977     5 C    0.151
                             3 C    0.105
     8   6 C    3.900 --     9 C    0.978    10 C    0.978     7 N    0.977
                            11 O    0.929
     9   6 C    3.995 --    16 H    0.988    15 H    0.986    17 H    0.985
                             8 C    0.978
    10   6 C    3.995 --    18 H    0.988    19 H    0.986    20 H    0.985
                             8 C    0.978
    11   8 O    2.050 --     5 C    0.931     8 C    0.929
    12   1 H    1.018 --     1 C    0.987
    13   1 H    1.016 --     1 C    0.981
    14   1 H    1.016 --     1 C    0.981
    15   1 H    1.008 --     9 C    0.986
    16   1 H    1.010 --     9 C    0.988
    17   1 H    1.014 --     9 C    0.985
    18   1 H    1.010 --    10 C    0.988
    19   1 H    1.008 --    10 C    0.986
    20   1 H    1.014 --    10 C    0.985
 ---------------------------------------------------------------------------

           -------------------------------------------------
          | TOTAL ENERGY              -38.355171611732 Eh   |
          | GRADIENT NORM               0.000628238306 Eh/α |
          | HOMO-LUMO GAP               2.120768402495 eV   |
           -------------------------------------------------

 * finished run on 2023/06/20 at 14:54:20.819
