   * xtb version 6.5.1 (579679a) compiled by 'ehlert@majestix' on 2022-07-11
          program call               : /lustre/hpc/kemi/ree/PhD/git/ReactivityQM/dep/xtb-6.5.1/bin/xtb --gfn 1 /lustre/hpc/kemi/ree/PhD/git/ReactivityQM/calculations/R01/reac02prodN11/conf17/R01_reac02prodN11_conf17_gfn1.xyz --opt --vfukui --chrg 1 --uhf 0 --alpb DMSO

   ID    Z sym.   atoms
    1    6 C      1, 3, 5, 6, 8, 11-15
    2    8 O      2, 4, 7, 9
    3    7 N      10, 16, 17
    4    1 H      18-33

      * Solvation model:               ALPB
        Solvent                        DMSO
        Solvent mass                       7.8130E+01 g/mol
          :  Hamiltonian                  GFN1-xTB          :
 * total energy  :   -57.7889426 Eh     change       -0.3452527E-10 Eh
 * total energy  :   -57.8007881 Eh     change       -0.1184555E-01 Eh
 * total energy  :   -57.8050200 Eh     change       -0.4231849E-02 Eh
 * total energy  :   -57.8059433 Eh     change       -0.9232754E-03 Eh
 * total energy  :   -57.8063851 Eh     change       -0.4418732E-03 Eh
 * total energy  :   -57.8065557 Eh     change       -0.1705549E-03 Eh
 * total energy  :   -57.8066777 Eh     change       -0.1220479E-03 Eh
 * total energy  :   -57.8067587 Eh     change       -0.8093770E-04 Eh
 * total energy  :   -57.8068137 Eh     change       -0.5501334E-04 Eh
 * total energy  :   -57.8068513 Eh     change       -0.3760186E-04 Eh
 * total energy  :   -57.8668878 Eh     change       -0.7263400E-05 Eh
 * total energy  :   -57.8668932 Eh     change       -0.5322524E-05 Eh
 * total energy  :   -57.8668983 Eh     change       -0.5192631E-05 Eh
 * total energy  :   -57.8669046 Eh     change       -0.6270024E-05 Eh
 * total energy  :   -57.8669096 Eh     change       -0.5014942E-05 Eh
 * total energy  :   -57.8669173 Eh     change       -0.7625112E-05 Eh
 * total energy  :   -57.8669209 Eh     change       -0.3630593E-05 Eh
 * total energy  :   -57.8669261 Eh     change       -0.5255364E-05 Eh
 * total energy  :   -57.8669291 Eh     change       -0.2921603E-05 Eh
   *** GEOMETRY OPTIMIZATION CONVERGED AFTER 122 ITERATIONS ***

 final structure:
================
33
 xtb: 6.5.1 (579679a)
C            3.70527181656628        2.49192191743061       -1.51225544083819
O            2.65481658064019        1.65081786462910       -1.02114708160280
C            2.99206645576198        0.40292523635981       -0.69834331082019
O            4.11320976500097       -0.03318439732439       -0.80054656410048
C            1.82137484419398       -0.37587302801493       -0.19378594732820
C            1.90084012585624       -1.64804999039512        0.29879513478008
O            3.02524173162888       -2.35363061576410        0.39182515491017
C            0.69620527840472       -2.32211713882708        0.77079535394839
O            0.73169741926558       -3.46226833061240        1.20976262425507
N           -0.48096360373029       -1.58392114358725        0.69509534735730
C           -1.67358153975146       -2.28453196029739        1.16782569659180
C           -0.47811506726046       -0.31642145296147        0.16264368752864
C           -1.71148745303634        0.57458135975101        0.07057802384656
C           -2.12796560713085        1.11812461648899        1.43818919300689
C           -1.42755922388845        1.73287305422385       -0.88966480795302
N           -2.88978730887980       -0.16547773315251       -0.52431967330638
N            0.60652395809583        0.25144538773023       -0.24492446911137
H            4.52657445605336        2.52721859790487       -0.79185933119245
H            3.27231008110272        3.48132751200324       -1.64408404551767
H            4.07454042420849        2.10932707257777       -2.46677330966192
H            2.82030126848197       -3.22890979004004        0.77163482620121
H           -2.61514193204318       -0.71086771435615       -1.33473561238786
H           -1.34455182070838       -3.12119033913655        1.78460316380876
H           -2.29095253729276       -1.62178588966172        1.76397026687874
H           -2.23270742853703       -2.66870770876730        0.31705908372018
H           -1.29327912119872        1.67411594758262        1.86432320744378
H           -2.40310425165762        0.32073386953712        2.12382829021543
H           -2.97716618401163        1.78933662550994        1.32294918678666
H           -0.60895919337517        2.33484330971734       -0.49838371321782
H           -2.31304021201453        2.35802561173482       -0.98613981682935
H           -1.14367507805153        1.35181322828402       -1.86883158802267
H           -3.58988434635968        0.50609464445962       -0.82396083088092
H           -3.33905429633615       -0.77858662302213        0.14587530149981

          :  Hamiltonian                  GFN1-xTB          :
         :: total energy             -57.866929065247 Eh    ::
         :: gradient norm              0.000354473759 Eh/a0 ::
         :: HOMO-LUMO gap              2.955574148731 eV    ::
         :: SCC energy               -58.446321464670 Eh    ::
         :: -> Gsolv                  -0.137944837472 Eh    ::
         :: repulsion energy           0.598715597712 Eh    ::

    * Orbital Energies and Occupations

         #    Occupation            Energy/Eh            Energy/eV
      -------------------------------------------------------------
         1        2.0000           -0.8981217             -24.4391
       ...           ...                  ...                  ...
        35        2.0000           -0.5531938             -15.0532
        36        2.0000           -0.5484203             -14.9233
        37        2.0000           -0.5466169             -14.8742
        38        2.0000           -0.5453259             -14.8391
        39        2.0000           -0.5348413             -14.5538
        40        2.0000           -0.5289728             -14.3941
        41        2.0000           -0.5202380             -14.1564
        42        2.0000           -0.5034798             -13.7004
        43        2.0000           -0.4959735             -13.4961
        44        2.0000           -0.4928404             -13.4109
        45        2.0000           -0.4791539             -13.0384
        46        2.0000           -0.4630225             -12.5995
        47        2.0000           -0.4464891             -12.1496 (HOMO)
        48                         -0.3378737              -9.1940 (LUMO)
        49                         -0.3076678              -8.3721
        50                         -0.2530328              -6.8854
        51                         -0.2086979              -5.6790
        52                         -0.1753659              -4.7719
        53                         -0.1718877              -4.6773
        54                         -0.1599710              -4.3530
        55                         -0.1468920              -3.9971
        56                         -0.1424319              -3.8758
        57                         -0.1367980              -3.7225
        58                         -0.1194408              -3.2502
       ...                                ...                  ...
       100                          0.7366181              20.0444
      -------------------------------------------------------------
                  HL-Gap            0.1086154 Eh            2.9556 eV

Wiberg/Mayer (AO) data.
largest (>0.10) Wiberg bond orders for each atom

     #   Z sym  total        # sym  WBO       # sym  WBO       # sym  WBO
 ---------------------------------------------------------------------------
     1   6 C    3.867 --    19 H    0.986    18 H    0.979    20 H    0.979
                             2 O    0.893
     2   8 O    2.201 --     3 C    1.116     1 C    0.893     4 O    0.137
     3   6 C    3.855 --     4 O    1.667     2 O    1.116     5 C    0.994
     4   8 O    1.932 --     3 C    1.667     2 O    0.137
     5   6 C    3.959 --     6 C    1.491    17 N    1.182     3 C    0.994
     6   6 C    3.922 --     5 C    1.491     7 O    1.126     8 C    1.065
     7   8 O    2.103 --     6 C    1.126    21 H    0.800
     8   6 C    3.910 --     9 O    1.579    10 N    1.116     6 C    1.065
     9   8 O    1.926 --     8 C    1.579    10 N    0.135
    10   7 N    3.499 --    12 C    1.163     8 C    1.116    11 C    0.928
                             9 O    0.135
    11   6 C    3.917 --    24 H    0.974    25 H    0.973    23 H    0.966
                            10 N    0.928
    12   6 C    3.941 --    17 N    1.587    10 N    1.163    13 C    0.979
    13   6 C    3.884 --    15 C    1.000    14 C    0.991    12 C    0.979
                            16 N    0.873
    14   6 C    3.981 --    13 C    0.991    28 H    0.979    26 H    0.976
                            27 H    0.975
    15   6 C    3.981 --    13 C    1.000    31 H    0.982    30 H    0.981
                            29 H    0.975
    16   7 N    3.564 --    22 H    0.887    33 H    0.887    32 H    0.883
                            13 C    0.873
    17   7 N    3.040 --    12 C    1.587     5 C    1.182
    18   1 H    1.007 --     1 C    0.979
    19   1 H    1.010 --     1 C    0.986
    20   1 H    1.006 --     1 C    0.979
    21   1 H    0.840 --     7 O    0.800
    22   1 H    0.905 --    16 N    0.887
    23   1 H    1.000 --    11 C    0.966
    24   1 H    1.000 --    11 C    0.974
    25   1 H    0.995 --    11 C    0.973
    26   1 H    0.995 --    14 C    0.976
    27   1 H    0.997 --    14 C    0.975
    28   1 H    0.992 --    14 C    0.979
    29   1 H    1.009 --    15 C    0.975
    30   1 H    0.995 --    15 C    0.981
    31   1 H    1.000 --    15 C    0.982
    32   1 H    0.904 --    16 N    0.883
    33   1 H    0.919 --    16 N    0.887
 ---------------------------------------------------------------------------

           -------------------------------------------------
          | TOTAL ENERGY              -57.866929065247 Eh   |
          | GRADIENT NORM               0.000354473759 Eh/α |
          | HOMO-LUMO GAP               2.955574148731 eV   |
           -------------------------------------------------

 * finished run on 2023/06/20 at 15:11:29.777
