   * xtb version 6.5.1 (579679a) compiled by 'ehlert@majestix' on 2022-07-11
          program call               : /lustre/hpc/kemi/ree/PhD/git/ReactivityQM/dep/xtb-6.5.1/bin/xtb --gfn 1 /lustre/hpc/kemi/ree/PhD/git/ReactivityQM/calculations/R03/reac02prodE13/conf12/R03_reac02prodE13_conf12_gfn1.xyz --opt --vfukui --chrg -1 --uhf 0 --alpb DMSO

   ID    Z sym.   atoms
    1    6 C      1, 3, 5, 6, 8, 10, 12-16, 18, 20, 23, 24
    2    8 O      2, 4, 7, 9, 19, 25
    3    7 N      11, 17, 21, 22, 26
    4    1 H      27-46

      * Solvation model:               ALPB
        Solvent                        DMSO
        Solvent mass                       7.8130E+01 g/mol
          :  Hamiltonian                  GFN1-xTB          :
 * total energy  :   -87.0065587 Eh     change       -0.9553958E-10 Eh
 * total energy  :   -87.0216331 Eh     change       -0.1507438E-01 Eh
 * total energy  :   -87.0273834 Eh     change       -0.5750364E-02 Eh
 * total energy  :   -87.0287328 Eh     change       -0.1349387E-02 Eh
 * total energy  :   -87.0298650 Eh     change       -0.1132142E-02 Eh
 * total energy  :   -87.0305380 Eh     change       -0.6730565E-03 Eh
 * total energy  :   -87.0310990 Eh     change       -0.5609959E-03 Eh
 * total energy  :   -87.0315329 Eh     change       -0.4339401E-03 Eh
 * total energy  :   -87.0318155 Eh     change       -0.2825220E-03 Eh
 * total energy  :   -87.0320011 Eh     change       -0.1855911E-03 Eh
 * total energy  :   -87.0329481 Eh     change       -0.2644237E-04 Eh
 * total energy  :   -87.0329544 Eh     change       -0.6210181E-05 Eh
 * total energy  :   -87.0329916 Eh     change       -0.3724659E-04 Eh
 * total energy  :   -87.0330016 Eh     change       -0.1002758E-04 Eh
 * total energy  :   -87.0330176 Eh     change       -0.1598727E-04 Eh
 * total energy  :   -87.0330293 Eh     change       -0.1168194E-04 Eh
 * total energy  :   -87.0330349 Eh     change       -0.5641223E-05 Eh
 * total energy  :   -87.0330428 Eh     change       -0.7886891E-05 Eh
 * total energy  :   -87.0330462 Eh     change       -0.3345993E-05 Eh
   *** GEOMETRY OPTIMIZATION CONVERGED AFTER 35 ITERATIONS ***

 final structure:
================
46
 xtb: 6.5.1 (579679a)
C           -4.53781671758468        3.92909738222903        1.14825743596561
O           -3.48065879403563        2.99805028104293        1.02120229606225
C           -3.74305759438952        1.92099740243024        0.17178876815879
O           -4.86541682350711        1.86819746298865       -0.41869403990878
C           -2.73940016099427        0.97279680148505        0.05823777765854
C           -2.89805132968871       -0.16736228189421       -0.83182382906849
O           -4.00897077954360       -0.22750916789533       -1.62003218188914
C           -1.93539294022993       -1.10995283847364       -0.88085663989803
O           -1.92034671973592       -2.20957999851512       -1.72195417481558
C           -3.01477091936273       -3.11077932507828       -1.60163463127477
N           -0.80346516451146       -1.01676203576453        0.00284340236470
C            0.20749398535551       -2.04697950535899       -0.16094316513836
C           -0.59974649721815        0.21493066260141        0.63321642036424
C            0.68552758884753        0.50012948209182        1.40908117018264
C            0.77758824578922        2.00692372831212        1.70185445473094
C            0.68255542041599       -0.26462947955333        2.73883477277184
N            1.87705358868915        0.10227316179476        0.65472056532432
C            2.13287984299713        0.55831909240473       -0.59894173715487
O            1.36524753039650        1.25508580408789       -1.25846461388372
C            3.42795824485635        0.10334743309092       -1.12594983064150
N            3.93284529191401        0.34224315789439       -2.30806270263163
N            5.14171446641109       -0.29235064443742       -2.35333939664105
C            5.30427586454229       -0.87653148908952       -1.21012262165655
C            6.45951796492123       -1.68877356143345       -0.76610638272902
O            4.26161307887254       -0.67251661361652       -0.38119002507308
N           -1.50121824799106        1.11991358778819        0.70307750756443
H           -4.20362943581197        4.70479871138316        1.83933753777563
H           -4.78607669512746        4.38690241670395        0.18248926124195
H           -5.44130634218893        3.45323819008412        1.54901096326770
H           -4.58379879666165        0.55157755521396       -1.31577689477674
H           -3.15295086992520       -3.42962076880269       -0.56172042666559
H           -3.94581822345112       -2.65850747693784       -1.96361387013907
H           -2.77523818022550       -3.98166026572568       -2.21409605522603
H            0.89737066023044       -2.04085090961314        0.67665145139350
H           -0.28282969528914       -3.02136663341977       -0.18613666721064
H            0.77374946156495       -1.91472304463577       -1.09023921327266
H            0.73162775638543        2.57548194767950        0.77337020824991
H           -0.05292466189761        2.30894617934576        2.33819156264406
H            1.71564929131932        2.22349794233903        2.20979740028730
H            0.64491011016131       -1.34032207037635        2.58187406431349
H           -0.18732462083496        0.03119404660071        3.32403597256956
H            1.58180208611247       -0.02945749193054        3.30606713352663
H            2.61685942084791       -0.35088771496345        1.16019005957505
H            6.12589422012405       -2.68103035628081       -0.46389589084169
H            6.93797767895786       -1.21915862691697        0.09317814470992
H            7.17810141049193       -1.77662912889164       -1.57740634017460

          :  Hamiltonian                  GFN1-xTB          :
         :: total energy             -87.033046167805 Eh    ::
         :: gradient norm              0.000923132892 Eh/a0 ::
         :: HOMO-LUMO gap              0.117946355952 eV    ::
         :: SCC energy               -87.820747960966 Eh    ::
         :: -> Gsolv                  -0.125660523056 Eh    ::
         :: repulsion energy           0.816925593426 Eh    ::

    * Orbital Energies and Occupations

         #    Occupation            Energy/Eh            Energy/eV
      -------------------------------------------------------------
         1        2.0000           -0.8445697             -22.9819
       ...           ...                  ...                  ...
        59        2.0000           -0.4634319             -12.6106
        60        2.0000           -0.4609955             -12.5443
        61        2.0000           -0.4459861             -12.1359
        62        2.0000           -0.4435460             -12.0695
        63        2.0000           -0.4406156             -11.9898
        64        2.0000           -0.4399505             -11.9717
        65        2.0000           -0.4327503             -11.7757
        66        2.0000           -0.4242215             -11.5437
        67        2.0000           -0.4144942             -11.2790
        68        2.0000           -0.4042077             -10.9991
        69        2.0000           -0.3876367             -10.5481
        70        2.0000           -0.3813332             -10.3766
        71        1.8146           -0.2971172              -8.0850 (HOMO)
        72        0.1854           -0.2927828              -7.9670 (LUMO)
        73                         -0.2409335              -6.5561
        74                         -0.2243088              -6.1038
        75                         -0.1906147              -5.1869
        76                         -0.1766231              -4.8062
        77                         -0.1357076              -3.6928
        78                         -0.1224862              -3.3330
        79                         -0.1184692              -3.2237
        80                         -0.1127984              -3.0694
        81                         -0.1112896              -3.0283
        82                         -0.1025053              -2.7893
       ...                                ...                  ...
       144                          0.7215205              19.6336
      -------------------------------------------------------------
                  HL-Gap            0.0043344 Eh            0.1179 eV

Wiberg/Mayer (AO) data.
largest (>0.10) Wiberg bond orders for each atom

     #   Z sym  total        # sym  WBO       # sym  WBO       # sym  WBO
 ---------------------------------------------------------------------------
     1   6 C    3.914 --    27 H    0.987    29 H    0.981    28 H    0.981
                             2 O    0.945
     2   8 O    2.069 --     3 C    0.953     1 C    0.945
     3   6 C    3.835 --     5 C    1.381     4 O    1.351     2 O    0.953
     4   8 O    1.780 --     3 C    1.351    30 H    0.129     5 C    0.106
     5   6 C    3.808 --     3 C    1.381     6 C    1.089    26 N    1.070
                             4 O    0.106
     6   6 C    3.899 --     8 C    1.603     5 C    1.089     7 O    1.048
     7   8 O    1.986 --     6 C    1.048    30 H    0.741
     8   6 C    3.777 --     6 C    1.603     9 O    0.965    11 N    0.965
     9   8 O    2.039 --     8 C    0.965    10 C    0.927
    10   6 C    3.908 --    33 H    0.986    31 H    0.984    32 H    0.981
                             9 O    0.927
    11   7 N    3.263 --    13 C    1.079     8 C    0.965    12 C    0.958
                            26 N    0.117
    12   6 C    3.959 --    35 H    0.983    34 H    0.979    36 H    0.979
                            11 N    0.958
    13   6 C    3.928 --    26 N    1.675    11 N    1.079    14 C    0.968
    14   6 C    3.934 --    16 C    0.990    15 C    0.990    13 C    0.968
                            17 N    0.923
    15   6 C    3.992 --    14 C    0.990    39 H    0.987    38 H    0.984
                            37 H    0.982
    16   6 C    3.992 --    14 C    0.990    41 H    0.984    42 H    0.984
                            40 H    0.980
    17   7 N    3.302 --    18 C    1.218    14 C    0.923    43 H    0.903
                            19 O    0.161
    18   6 C    3.863 --    19 O    1.540    17 N    1.218    20 C    1.027
    19   8 O    1.817 --    18 C    1.540    17 N    0.161
    20   6 C    3.799 --    21 N    1.559    18 C    1.027    25 O    1.023
    21   7 N    2.904 --    20 C    1.559    22 N    1.190
    22   7 N    2.981 --    23 C    1.622    21 N    1.190
    23   6 C    3.850 --    22 N    1.622    25 O    1.062    24 C    1.029
    24   6 C    3.989 --    23 C    1.029    46 H    0.984    44 H    0.967
                            45 H    0.965
    25   8 O    2.269 --    23 C    1.062    20 C    1.023
    26   7 N    3.012 --    13 C    1.675     5 C    1.070    11 N    0.117
    27   1 H    1.019 --     1 C    0.987
    28   1 H    1.019 --     1 C    0.981
    29   1 H    1.018 --     1 C    0.981
    30   1 H    0.883 --     7 O    0.741     4 O    0.129
    31   1 H    1.012 --    10 C    0.984
    32   1 H    1.025 --    10 C    0.981
    33   1 H    1.018 --    10 C    0.986
    34   1 H    1.016 --    12 C    0.979
    35   1 H    1.013 --    12 C    0.983
    36   1 H    1.006 --    12 C    0.979
    37   1 H    1.020 --    15 C    0.982
    38   1 H    1.021 --    15 C    0.984
    39   1 H    1.005 --    15 C    0.987
    40   1 H    1.004 --    16 C    0.980
    41   1 H    1.005 --    16 C    0.984
    42   1 H    1.000 --    16 C    0.984
    43   1 H    0.947 --    17 N    0.903
    44   1 H    0.998 --    24 C    0.967
    45   1 H    0.998 --    24 C    0.965
    46   1 H    1.000 --    24 C    0.984
 ---------------------------------------------------------------------------

           -------------------------------------------------
          | TOTAL ENERGY              -87.033046167805 Eh   |
          | GRADIENT NORM               0.000923132892 Eh/α |
          | HOMO-LUMO GAP               0.117946355952 eV   |
           -------------------------------------------------

 * finished run on 2023/06/20 at 15:34:14.987
