   * xtb version 6.5.1 (579679a) compiled by 'ehlert@majestix' on 2022-07-11
          program call               : /lustre/hpc/kemi/ree/PhD/git/ReactivityQM/dep/xtb-6.5.1/bin/xtb --gfn 1 /lustre/hpc/kemi/ree/PhD/git/ReactivityQM/calculations/R02oxygendeprot/reac01prodN18/conf11/R02oxygendeprot_reac01prodN18_conf11_gfn1.xyz --opt --vfukui --chrg 0 --uhf 0 --alpb DMSO

   ID    Z sym.   atoms
    1    6 C      1, 3, 5, 6, 8, 11-15, 17, 19, 22, 23
    2    8 O      2, 4, 7, 9, 18, 24
    3    7 N      10, 16, 20, 21, 25
    4    1 H      26-42

      * Solvation model:               ALPB
        Solvent                        DMSO
        Solvent mass                       7.8130E+01 g/mol
          :  Hamiltonian                  GFN1-xTB          :
 * total energy  :   -82.9178847 Eh     change       -0.4973799E-11 Eh
 * total energy  :   -82.9347247 Eh     change       -0.1683991E-01 Eh
 * total energy  :   -82.9420950 Eh     change       -0.7370296E-02 Eh
 * total energy  :   -82.9433796 Eh     change       -0.1284666E-02 Eh
 * total energy  :   -82.9438912 Eh     change       -0.5116003E-03 Eh
 * total energy  :   -82.9440984 Eh     change       -0.2072028E-03 Eh
 * total energy  :   -82.9442442 Eh     change       -0.1457453E-03 Eh
 * total energy  :   -82.9443885 Eh     change       -0.1443149E-03 Eh
 * total energy  :   -82.9445390 Eh     change       -0.1505361E-03 Eh
 * total energy  :   -82.9446816 Eh     change       -0.1425617E-03 Eh
 * total energy  :   -82.9500635 Eh     change       -0.2191466E-04 Eh
 * total energy  :   -82.9500846 Eh     change       -0.2109848E-04 Eh
 * total energy  :   -82.9500994 Eh     change       -0.1479750E-04 Eh
 * total energy  :   -82.9501199 Eh     change       -0.2045689E-04 Eh
 * total energy  :   -82.9501319 Eh     change       -0.1203730E-04 Eh
 * total energy  :   -82.9501417 Eh     change       -0.9734625E-05 Eh
 * total energy  :   -82.9501508 Eh     change       -0.9182159E-05 Eh
 * total energy  :   -82.9501571 Eh     change       -0.6231806E-05 Eh
 * total energy  :   -82.9501613 Eh     change       -0.4230334E-05 Eh
   *** GEOMETRY OPTIMIZATION CONVERGED AFTER 85 ITERATIONS ***

 final structure:
================
42
 xtb: 6.5.1 (579679a)
C           -6.68168049204652        1.25926195971438        0.41887313164585
O           -5.46439575818883        0.90524308324825       -0.23463050047959
C           -4.35396299662165        0.95466982586298        0.51834092521346
O           -4.38116194906898        1.27866632469109        1.69222801408923
C           -3.13104531358572        0.57233999795389       -0.19770303088186
C           -3.06645505486616        0.28810997090988       -1.57639833182643
O           -3.97847077727392        0.26012116689493       -2.40525822517614
C           -1.65341284947761        0.07585717734870       -2.10503518693396
O           -1.24071465617162        0.19677840763578       -3.21328478876221
N           -0.66812491752036       -0.41947307697157       -1.07114746267852
C           -0.87884766860531       -1.89581822955548       -1.00648388437241
C           -0.85968668615195        0.22258473041400        0.25569601858575
C            0.34850147914780        0.36141016757309        1.16025693547144
C            0.26566689943150        1.73343551115292        1.84408242133270
C            0.35015306678942       -0.73827989130123        2.23156717432429
N            1.58349630296250        0.35758059542096        0.36983118056357
C            2.32959639697012       -0.72671379143242        0.04994298573128
O            1.98966064891551       -1.88964475850673        0.17740231065982
C            3.63019232200881       -0.31696655201794       -0.52872295302490
N            4.03800536227966        0.90213202298884       -0.71739835721255
N            5.28322943541409        0.81933069476550       -1.25908539978986
C            5.55818721047146       -0.44669939565224       -1.36513545241733
C            6.79844523518861       -1.06167100960265       -1.88541015487231
O            4.55224517666607       -1.21356317664015       -0.92152715095851
N           -2.00129359937914        0.63060330104332        0.59731446394495
H           -7.47847853336798        1.14022173447069       -0.31349774263389
H           -6.85771092011219        0.60352206616979        1.27603282536499
H           -6.64042738721996        2.29597475127392        0.76456674921778
H            0.27306867835526       -0.23625520579725       -1.42073923827884
H           -0.79551331971120       -2.29166812161963       -2.01602535630244
H           -1.86506692910363       -2.09248685955392       -0.59272715247784
H           -0.10431299617819       -2.31808796378741       -0.37296565198389
H           -0.66843433698282        1.80486807576961        2.39977836629630
H            0.29138431727772        2.52750108747358        1.10011657424954
H            1.10230865357639        1.85504338028989        2.52908211780843
H            1.25846298846450       -0.66866214159729        2.82708513776500
H           -0.51441973898478       -0.59369217717103        2.87808598451420
H            0.29128384592308       -1.72884453597613        1.78892891129556
H            2.01759846375338        1.25788188478117        0.21848826165477
H            6.55809566086794       -1.78374444586538       -2.66547916279048
H            7.31323893265797       -1.59157962422035       -1.08319910972455
H            7.45079580349296       -0.28928496057702       -2.28543819614851

          :  Hamiltonian                  GFN1-xTB          :
         :: total energy             -82.950161310938 Eh    ::
         :: gradient norm              0.000868998711 Eh/a0 ::
         :: HOMO-LUMO gap              1.679887317898 eV    ::
         :: SCC energy               -83.730789290381 Eh    ::
         :: -> Gsolv                  -0.065400754209 Eh    ::
         :: repulsion energy           0.807711286368 Eh    ::

    * Orbital Energies and Occupations

         #    Occupation            Energy/Eh            Energy/eV
      -------------------------------------------------------------
         1        2.0000           -0.8751632             -23.8144
       ...           ...                  ...                  ...
        55        2.0000           -0.5092725             -13.8580
        56        2.0000           -0.5047359             -13.7346
        57        2.0000           -0.5037053             -13.7065
        58        2.0000           -0.4878517             -13.2751
        59        2.0000           -0.4835818             -13.1589
        60        2.0000           -0.4760950             -12.9552
        61        2.0000           -0.4724993             -12.8574
        62        2.0000           -0.4680904             -12.7374
        63        2.0000           -0.4629696             -12.5980
        64        2.0000           -0.4578546             -12.4589
        65        2.0000           -0.4545088             -12.3678
        66        2.0000           -0.4300707             -11.7028
        67        2.0000           -0.4116399             -11.2013 (HOMO)
        68                         -0.3499051              -9.5214 (LUMO)
        69                         -0.3195387              -8.6951
        70                         -0.2892295              -7.8703
        71                         -0.2608093              -7.0970
        72                         -0.2510025              -6.8301
        73                         -0.2074010              -5.6437
        74                         -0.1650573              -4.4914
        75                         -0.1492589              -4.0615
        76                         -0.1433841              -3.9017
        77                         -0.1351253              -3.6769
        78                         -0.1335803              -3.6349
       ...                                ...                  ...
       134                          0.7687883              20.9198
      -------------------------------------------------------------
                  HL-Gap            0.0617347 Eh            1.6799 eV

Wiberg/Mayer (AO) data.
largest (>0.10) Wiberg bond orders for each atom

     #   Z sym  total        # sym  WBO       # sym  WBO       # sym  WBO
 ---------------------------------------------------------------------------
     1   6 C    3.883 --    26 H    0.986    28 H    0.980    27 H    0.980
                             2 O    0.909
     2   8 O    2.182 --     3 C    1.083     1 C    0.909     4 O    0.121
     3   6 C    3.859 --     4 O    1.609     2 O    1.083     5 C    1.072
     4   8 O    1.882 --     3 C    1.609     2 O    0.121
     5   6 C    3.906 --     6 C    1.292    25 N    1.125     3 C    1.072
                             7 O    0.150
     6   6 C    3.942 --     7 O    1.552     5 C    1.292     8 C    0.923
     7   8 O    1.892 --     6 C    1.552     5 C    0.150
     8   6 C    3.786 --     9 O    1.845     6 C    0.923    10 N    0.841
     9   8 O    2.062 --     8 C    1.845
    10   7 N    3.607 --    11 C    0.879    29 H    0.876    12 C    0.855
                             8 C    0.841
    11   6 C    3.883 --    31 H    0.986    30 H    0.981    32 H    0.967
                            10 N    0.879
    12   6 C    3.891 --    25 N    1.777    13 C    0.976    10 N    0.855
    13   6 C    3.932 --    14 C    0.986    15 C    0.978    12 C    0.976
                            16 N    0.926
    14   6 C    3.987 --    13 C    0.986    35 H    0.984    34 H    0.984
                            33 H    0.981
    15   6 C    3.985 --    37 H    0.984    36 H    0.982    38 H    0.978
                            13 C    0.978
    16   7 N    3.331 --    17 C    1.234    13 C    0.926    39 H    0.890
                            18 O    0.173
    17   6 C    3.914 --    18 O    1.589    16 N    1.234    19 C    0.996
    18   8 O    1.926 --    17 C    1.589    16 N    0.173
    19   6 C    3.879 --    20 N    1.605    24 O    1.065    17 C    0.996
    20   7 N    3.021 --    19 C    1.605    21 N    1.206
    21   7 N    2.981 --    22 C    1.598    20 N    1.206
    22   6 C    3.869 --    21 N    1.598    24 O    1.085    23 C    1.032
    23   6 C    3.985 --    22 C    1.032    42 H    0.982    40 H    0.965
                            41 H    0.960
    24   8 O    2.334 --    22 C    1.085    19 C    1.065
    25   7 N    3.084 --    12 C    1.777     5 C    1.125
    26   1 H    1.013 --     1 C    0.986
    27   1 H    1.010 --     1 C    0.980
    28   1 H    1.010 --     1 C    0.980
    29   1 H    0.937 --    10 N    0.876
    30   1 H    0.993 --    11 C    0.981
    31   1 H    0.996 --    11 C    0.986
    32   1 H    1.011 --    11 C    0.967
    33   1 H    1.009 --    14 C    0.981
    34   1 H    0.999 --    14 C    0.984
    35   1 H    0.998 --    14 C    0.984
    36   1 H    0.998 --    15 C    0.982
    37   1 H    1.002 --    15 C    0.984
    38   1 H    1.013 --    15 C    0.978
    39   1 H    0.948 --    16 N    0.890
    40   1 H    0.996 --    23 C    0.965
    41   1 H    0.996 --    23 C    0.960
    42   1 H    0.998 --    23 C    0.982
 ---------------------------------------------------------------------------

           -------------------------------------------------
          | TOTAL ENERGY              -82.950161310938 Eh   |
          | GRADIENT NORM               0.000868998711 Eh/α |
          | HOMO-LUMO GAP               1.679887317898 eV   |
           -------------------------------------------------

 * finished run on 2023/06/21 at 17:38:15.944
