   * xtb version 6.5.1 (579679a) compiled by 'ehlert@majestix' on 2022-07-11
          program call               : /lustre/hpc/kemi/ree/PhD/git/ReactivityQM/dep/xtb-6.5.1/bin/xtb --gfn 1 /lustre/hpc/kemi/ree/PhD/git/ReactivityQM/calculations/RaltegravirCLI/reac01prodN04/conf05/RaltegravirCLI_reac01prodN04_conf05_gfn1.xyz --opt --vfukui --chrg 1 --uhf 0 --alpb DMSO

   ID    Z sym.   atoms
    1    6 C      1-3, 6, 7
    2    7 N      4, 5
    3    8 O      8, 10
    4   17 Cl     9
    5    1 H      11-16

      * Solvation model:               ALPB
        Solvent                        DMSO
        Solvent mass                       7.8130E+01 g/mol
          :  Hamiltonian                  GFN1-xTB          :
 * total energy  :   -33.3622166 Eh     change       -0.6679102E-12 Eh
 * total energy  :   -33.3681638 Eh     change       -0.5947212E-02 Eh
 * total energy  :   -33.3699262 Eh     change       -0.1762443E-02 Eh
 * total energy  :   -33.3701282 Eh     change       -0.2020190E-03 Eh
 * total energy  :   -33.3701937 Eh     change       -0.6542528E-04 Eh
 * total energy  :   -33.3702101 Eh     change       -0.1644214E-04 Eh
 * total energy  :   -33.3702138 Eh     change       -0.3718785E-05 Eh
   *** GEOMETRY OPTIMIZATION CONVERGED AFTER 7 ITERATIONS ***

 final structure:
================
16
 xtb: 6.5.1 (579679a)
C           -1.37369373789090        1.30626151879076        0.31084049014936
C           -0.64284779274508        0.01552240315646       -0.09577176567233
C           -1.43049845645417       -1.24249389775587        0.30651807758247
N           -0.34235111289270        0.01343938101921       -1.47882315333740
N            0.90401931240981       -0.01234521516964       -1.66113092388883
C            1.49661135536831       -0.02914607533586       -0.42006247872539
C            3.00252127626379       -0.06242765797000       -0.19459095991085
O            3.74551852990095       -0.01833003122377       -1.12318651908715
Cl           3.44680999311824       -0.16970795019436        1.42969226919160
O            0.64357028342641       -0.01437287081511        0.51454766268161
H           -2.33336762638514        1.33665125823236       -0.19941930473868
H           -0.76772261384050        2.16321570237027        0.02481095320326
H           -1.51918518355032        1.29576044264077        1.38831736675001
H           -0.86762970282837       -2.12474741116647        0.00939097835461
H           -2.39431810835204       -1.22375391853167       -0.19633172789589
H           -1.56743741554824       -1.23352567804708        1.38519903534357

          :  Hamiltonian                  GFN1-xTB          :
         :: total energy             -33.370213827816 Eh    ::
         :: gradient norm              0.000442364217 Eh/a0 ::
         :: HOMO-LUMO gap              1.425594990274 eV    ::
         :: SCC energy               -33.644701329822 Eh    ::
         :: -> Gsolv                  -0.087573656795 Eh    ::
         :: repulsion energy           0.282098645881 Eh    ::

    * Orbital Energies and Occupations

         #    Occupation            Energy/Eh            Energy/eV
      -------------------------------------------------------------
         1        2.0000           -1.0019231             -27.2637
       ...           ...                  ...                  ...
        15        2.0000           -0.6406965             -17.4342
        16        2.0000           -0.6232713             -16.9601
        17        2.0000           -0.6140935             -16.7103
        18        2.0000           -0.5893967             -16.0383
        19        2.0000           -0.5875309             -15.9875
        20        2.0000           -0.5803008             -15.7908
        21        2.0000           -0.5762638             -15.6809
        22        2.0000           -0.5694116             -15.4945
        23        2.0000           -0.5568237             -15.1519
        24        2.0000           -0.5430039             -14.7759
        25        2.0000           -0.5319590             -14.4753
        26        2.0000           -0.5278661             -14.3640
        27        2.0000           -0.5170648             -14.0700 (HOMO)
        28                         -0.4646751             -12.6445 (LUMO)
        29                         -0.3887499             -10.5784
        30                         -0.3074733              -8.3668
        31                         -0.2540198              -6.9122
        32                         -0.1706022              -4.6423
        33                         -0.1648285              -4.4852
        34                         -0.1326504              -3.6096
        35                         -0.1270544              -3.4573
        36                         -0.1269364              -3.4541
        37                         -0.1204458              -3.2775
        38                         -0.1126270              -3.0647
       ...                                ...                  ...
        57                          0.7060737              19.2132
      -------------------------------------------------------------
                  HL-Gap            0.0523897 Eh            1.4256 eV

Wiberg/Mayer (AO) data.
largest (>0.10) Wiberg bond orders for each atom

     #   Z sym  total        # sym  WBO       # sym  WBO       # sym  WBO
 ---------------------------------------------------------------------------
     1   6 C    3.939 --    12 H    0.977    11 H    0.975    13 H    0.974
                             2 C    0.880
     2   6 C    3.811 --     4 N    1.079     3 C    0.881     1 C    0.880
                            10 O    0.865
     3   6 C    3.939 --    14 H    0.977    15 H    0.975    16 H    0.974
                             2 C    0.881
     4   7 N    2.998 --     5 N    1.670     2 C    1.079
     5   7 N    3.023 --     4 N    1.670     6 C    1.204
     6   6 C    3.798 --    10 O    1.376     5 N    1.204     7 C    0.931
     7   6 C    3.905 --     8 O    1.793     9 Cl   1.140     6 C    0.931
     8   8 O    2.074 --     7 C    1.793     9 Cl   0.201
     9  17 Cl   1.421 --     7 C    1.140     8 O    0.201
    10   8 O    2.427 --     6 C    1.376     2 C    0.865
    11   1 H    0.989 --     1 C    0.975
    12   1 H    0.988 --     1 C    0.977
    13   1 H    0.989 --     1 C    0.974
    14   1 H    0.988 --     3 C    0.977
    15   1 H    0.989 --     3 C    0.975
    16   1 H    0.989 --     3 C    0.974
 ---------------------------------------------------------------------------

           -------------------------------------------------
          | TOTAL ENERGY              -33.370213827816 Eh   |
          | GRADIENT NORM               0.000442364217 Eh/α |
          | HOMO-LUMO GAP               1.425594990274 eV   |
           -------------------------------------------------

 * finished run on 2023/06/20 at 14:54:56.707
