   * xtb version 6.5.1 (579679a) compiled by 'ehlert@majestix' on 2022-07-11
          program call               : /lustre/hpc/kemi/ree/PhD/git/ReactivityQM/dep/xtb-6.5.1/bin/xtb --gfn 1 /lustre/hpc/kemi/ree/PhD/git/ReactivityQM/calculations/R02methylcation/reac01prodN17/conf07/R02methylcation_reac01prodN17_conf07_gfn1.xyz --opt --vfukui --chrg 0 --uhf 0 --alpb DMSO

   ID    Z sym.   atoms
    1    6 C      1, 3, 5, 7-10, 12, 13, 15, 18, 19, 22, 24
    2    8 O      2, 4, 14, 20, 23, 25
    3    7 N      6, 11, 16, 17, 21
    4    1 H      26-42

      * Solvation model:               ALPB
        Solvent                        DMSO
        Solvent mass                       7.8130E+01 g/mol
          :  Hamiltonian                  GFN1-xTB          :
 * total energy  :   -82.9300640 Eh     change       -0.1470028E-08 Eh
 * total energy  :   -82.9439724 Eh     change       -0.1390844E-01 Eh
 * total energy  :   -82.9488595 Eh     change       -0.4887092E-02 Eh
 * total energy  :   -82.9497692 Eh     change       -0.9096477E-03 Eh
 * total energy  :   -82.9503421 Eh     change       -0.5729125E-03 Eh
 * total energy  :   -82.9506648 Eh     change       -0.3227350E-03 Eh
 * total energy  :   -82.9509142 Eh     change       -0.2494289E-03 Eh
 * total energy  :   -82.9511169 Eh     change       -0.2026625E-03 Eh
 * total energy  :   -82.9512708 Eh     change       -0.1538724E-03 Eh
 * total energy  :   -82.9513906 Eh     change       -0.1198014E-03 Eh
 * total energy  :   -82.9868220 Eh     change       -0.9763307E-05 Eh
 * total energy  :   -82.9868339 Eh     change       -0.1182754E-04 Eh
 * total energy  :   -82.9868466 Eh     change       -0.1268887E-04 Eh
 * total energy  :   -82.9868559 Eh     change       -0.9362796E-05 Eh
 * total energy  :   -82.9868710 Eh     change       -0.1504019E-04 Eh
 * total energy  :   -82.9868803 Eh     change       -0.9374443E-05 Eh
 * total energy  :   -82.9868884 Eh     change       -0.8052812E-05 Eh
 * total energy  :   -82.9868950 Eh     change       -0.6581913E-05 Eh
 * total energy  :   -82.9868993 Eh     change       -0.4275667E-05 Eh
   *** GEOMETRY OPTIMIZATION CONVERGED AFTER 193 ITERATIONS ***

 final structure:
================
42
 xtb: 6.5.1 (579679a)
C            2.54804224675485        3.68044531053601       -2.32585940964712
O            2.70024046600499        2.43175889740217       -1.65340693314210
C            1.56763665669659        1.77705806592723       -1.36262959857237
O            0.47704078363787        2.23381359552055       -1.65732596370117
C            1.79232140314338        0.49938161944373       -0.68464440038289
N            0.68236234228416       -0.30148562891500       -0.40621385867178
C            0.77539431749289       -1.49429253945020        0.10640925337091
C           -0.50678008118115       -2.26480159776517        0.25458050687579
C           -0.67054922744635       -3.20887986777884       -0.93915290862556
C           -0.59899927914878       -3.00860829666208        1.58558204549107
N           -1.49312893510699       -1.16683403672937        0.23669234146113
C           -2.85167642990773       -1.47303813067203       -0.22574139553023
C           -0.79737707857038        0.04459387621740       -0.83909721729258
O           -1.08363911614269       -0.20636026114196       -1.99679201720381
C           -1.26959746027561        1.26401350700737       -0.09428501589137
N           -2.20034773795477        2.09159762135539       -0.43466306728182
N           -2.38052581156525        2.93342238421103        0.63147645450735
C           -1.56678916286575        2.54662166317394        1.55729376365439
C           -1.38610622564902        3.12282721696551        2.90773456496455
O           -0.83553352144080        1.47827427227697        1.16812727609158
N            1.97006216164209       -2.01539724917010        0.44052934336465
C            3.17779156910531       -1.34061547102032        0.30536692920278
O            4.20507976968688       -1.87438424658240        0.66611895515875
C            3.09349917424732        0.03609304344019       -0.32459399605847
O            4.14669304687107        0.65210873486266       -0.48843097119543
H            2.01853912184792        3.54220172133641       -3.27253269776815
H            1.98840652976217        4.38233293555530       -1.70237397732716
H            3.55118885908225        4.06091556034356       -2.50915272620189
H           -1.58167792212953       -3.79326152570311       -0.83614187315080
H           -0.70071353308660       -2.64305521086797       -1.86988113809795
H            0.17805826857532       -3.89014664353361       -0.96322277797776
H           -1.60140565102173       -3.41334606678230        1.70863726643810
H            0.11093376878783       -3.83300612748334        1.60233016680335
H           -0.38301597147965       -2.33604764198064        2.41391870884191
H           -1.53584258492663       -0.76324960516617        1.16974360718025
H           -2.83259540201763       -1.64455812749772       -1.30101639443502
H           -3.47487281119453       -0.60950728464248       -0.00025326980584
H           -3.22505073964663       -2.34981698504280        0.29603535967611
H           -0.35046233422199        3.42958691893878        3.05238028717442
H           -2.04309901080757        3.98090050357799        3.02820248226630
H           -1.62365560703222        2.37583835390624        3.66424363913291
H            2.01015414920146       -2.93309525741661        0.85239965629778

          :  Hamiltonian                  GFN1-xTB          :
         :: total energy             -82.986899252772 Eh    ::
         :: gradient norm              0.000600332960 Eh/a0 ::
         :: HOMO-LUMO gap              2.589633367018 eV    ::
         :: SCC energy               -83.753337975426 Eh    ::
         :: -> Gsolv                  -0.088501256385 Eh    ::
         :: repulsion energy           0.796119718832 Eh    ::

    * Orbital Energies and Occupations

         #    Occupation            Energy/Eh            Energy/eV
      -------------------------------------------------------------
         1        2.0000           -0.8650941             -23.5404
       ...           ...                  ...                  ...
        55        2.0000           -0.5086366             -13.8407
        56        2.0000           -0.5026758             -13.6785
        57        2.0000           -0.5008205             -13.6280
        58        2.0000           -0.4942555             -13.4494
        59        2.0000           -0.4877203             -13.2715
        60        2.0000           -0.4783627             -13.0169
        61        2.0000           -0.4760905             -12.9551
        62        2.0000           -0.4739181             -12.8960
        63        2.0000           -0.4616363             -12.5618
        64        2.0000           -0.4508696             -12.2688
        65        2.0000           -0.4483265             -12.1996
        66        2.0000           -0.4242242             -11.5437
        67        2.0000           -0.4132270             -11.2445 (HOMO)
        68                         -0.3180597              -8.6548 (LUMO)
        69                         -0.3022322              -8.2242
        70                         -0.2846364              -7.7454
        71                         -0.2536794              -6.9030
        72                         -0.2341890              -6.3726
        73                         -0.1812150              -4.9311
        74                         -0.1586930              -4.3183
        75                         -0.1537057              -4.1825
        76                         -0.1469913              -3.9998
        77                         -0.1431102              -3.8942
        78                         -0.1414003              -3.8477
       ...                                ...                  ...
       134                          0.7513692              20.4458
      -------------------------------------------------------------
                  HL-Gap            0.0951673 Eh            2.5896 eV

Wiberg/Mayer (AO) data.
largest (>0.10) Wiberg bond orders for each atom

     #   Z sym  total        # sym  WBO       # sym  WBO       # sym  WBO
 ---------------------------------------------------------------------------
     1   6 C    3.881 --    28 H    0.986    27 H    0.980    26 H    0.980
                             2 O    0.907
     2   8 O    2.192 --     3 C    1.092     1 C    0.907     4 O    0.119
     3   6 C    3.868 --     4 O    1.588     2 O    1.092     5 C    1.090
     4   8 O    1.895 --     3 C    1.588     2 O    0.119
     5   6 C    3.855 --    24 C    1.249     3 C    1.090     6 N    1.064
                            25 O    0.134
     6   7 N    3.555 --     7 C    1.454     5 C    1.064    13 C    0.738
     7   6 C    3.924 --     6 N    1.454    21 N    1.208     8 C    0.981
     8   6 C    3.931 --    10 C    0.989     7 C    0.981     9 C    0.979
                            11 N    0.924
     9   6 C    3.980 --    31 H    0.981    29 H    0.980     8 C    0.979
                            30 H    0.978
    10   6 C    3.984 --     8 C    0.989    34 H    0.982    32 H    0.979
                            33 H    0.978
    11   7 N    3.507 --    12 C    0.938     8 C    0.924    35 H    0.903
                            13 C    0.540    14 O    0.125
    12   6 C    3.918 --    37 H    0.983    38 H    0.981    36 H    0.977
                            11 N    0.938
    13   6 C    3.888 --    14 O    1.538    15 C    0.951     6 N    0.738
                            11 N    0.540
    14   8 O    1.869 --    13 C    1.538    11 N    0.125
    15   6 C    3.877 --    16 N    1.653    20 O    1.047    13 C    0.951
    16   7 N    2.996 --    15 C    1.653    17 N    1.169
    17   7 N    2.983 --    18 C    1.644    16 N    1.169
    18   6 C    3.868 --    17 N    1.644    20 O    1.050    19 C    1.031
    19   6 C    3.987 --    18 C    1.031    40 H    0.982    39 H    0.965
                            41 H    0.964
    20   8 O    2.293 --    18 C    1.050    15 C    1.047
    21   7 N    3.452 --     7 C    1.208    22 C    1.086    42 H    0.878
                            23 O    0.118
    22   6 C    3.865 --    23 O    1.665    21 N    1.086    24 C    0.950
    23   8 O    1.935 --    22 C    1.665    21 N    0.118
    24   6 C    3.942 --    25 O    1.578     5 C    1.249    22 C    0.950
    25   8 O    1.887 --    24 C    1.578     5 C    0.134
    26   1 H    1.010 --     1 C    0.980
    27   1 H    1.009 --     1 C    0.980
    28   1 H    1.012 --     1 C    0.986
    29   1 H    0.996 --     9 C    0.980
    30   1 H    1.008 --     9 C    0.978
    31   1 H    0.998 --     9 C    0.981
    32   1 H    0.994 --    10 C    0.979
    33   1 H    0.995 --    10 C    0.978
    34   1 H    0.995 --    10 C    0.982
    35   1 H    0.944 --    11 N    0.903
    36   1 H    1.005 --    12 C    0.977
    37   1 H    0.998 --    12 C    0.983
    38   1 H    0.995 --    12 C    0.981
    39   1 H    0.997 --    19 C    0.965
    40   1 H    0.999 --    19 C    0.982
    41   1 H    0.998 --    19 C    0.964
    42   1 H    0.923 --    21 N    0.878
 ---------------------------------------------------------------------------

           -------------------------------------------------
          | TOTAL ENERGY              -82.986899252772 Eh   |
          | GRADIENT NORM               0.000600332960 Eh/α |
          | HOMO-LUMO GAP               2.589633367018 eV   |
           -------------------------------------------------

 * finished run on 2023/06/21 at 17:59:59.311
