   * xtb version 6.5.1 (579679a) compiled by 'ehlert@majestix' on 2022-07-11
          program call               : /lustre/hpc/kemi/ree/PhD/git/ReactivityQM/dep/xtb-6.5.1/bin/xtb --gfn 1 /lustre/hpc/kemi/ree/PhD/git/ReactivityQM/calculations/R03/reac02prodN05/conf13/R03_reac02prodN05_conf13_gfn1.xyz --opt --vfukui --chrg 1 --uhf 0 --alpb DMSO

   ID    Z sym.   atoms
    1    6 C      1, 3, 5, 6, 8, 11-15, 17, 19, 22, 23, 26
    2    8 O      2, 4, 7, 9, 18, 24
    3    7 N      10, 16, 20, 21, 25
    4    1 H      27-46

      * Solvation model:               ALPB
        Solvent                        DMSO
        Solvent mass                       7.8130E+01 g/mol
          :  Hamiltonian                  GFN1-xTB          :
 * total energy  :   -86.3043496 Eh     change       -0.2474110E-10 Eh
 * total energy  :   -86.3243842 Eh     change       -0.2003463E-01 Eh
 * total energy  :   -86.3321833 Eh     change       -0.7799115E-02 Eh
 * total energy  :   -86.3344338 Eh     change       -0.2250521E-02 Eh
 * total energy  :   -86.3358941 Eh     change       -0.1460271E-02 Eh
 * total energy  :   -86.3366209 Eh     change       -0.7267551E-03 Eh
 * total energy  :   -86.3370637 Eh     change       -0.4428637E-03 Eh
 * total energy  :   -86.3373652 Eh     change       -0.3014395E-03 Eh
 * total energy  :   -86.3376294 Eh     change       -0.2641816E-03 Eh
 * total energy  :   -86.3379489 Eh     change       -0.3195865E-03 Eh
 * total energy  :   -86.3401187 Eh     change       -0.2655386E-04 Eh
 * total energy  :   -86.3401303 Eh     change       -0.1163673E-04 Eh
 * total energy  :   -86.3401444 Eh     change       -0.1403402E-04 Eh
 * total energy  :   -86.3401561 Eh     change       -0.1178583E-04 Eh
 * total energy  :   -86.3401621 Eh     change       -0.5978911E-05 Eh
 * total energy  :   -86.3401697 Eh     change       -0.7583794E-05 Eh
 * total energy  :   -86.3401670 Eh     change        0.2661150E-05 Eh
 * total energy  :   -86.3401727 Eh     change       -0.5659193E-05 Eh
 * total energy  :   -86.3401754 Eh     change       -0.2660174E-05 Eh
   *** GEOMETRY OPTIMIZATION CONVERGED AFTER 39 ITERATIONS ***

 final structure:
================
46
 xtb: 6.5.1 (579679a)
C           -4.61154703437800        3.19830371833467       -0.49022953106783
O           -4.14002244027109        1.84990136471531       -0.32734191508841
C           -2.83932287118876        1.66531841729848       -0.33830659511280
O           -2.02059409802747        2.54079412106891       -0.46650432854601
C           -2.48107385486171        0.20291829658045       -0.21063880688025
C           -3.24387578798770       -0.78344629580375       -0.75594674952326
O           -4.39195783715320       -0.56750568654404       -1.37951052699584
C           -2.82822684974258       -2.17468110273394       -0.64617778635852
O           -3.52705754052008       -3.09507491520658       -1.01003879212202
N           -1.55873618428444       -2.37882237620042       -0.08847574443848
C           -1.27012469512342       -3.80918276546415        0.09859369628608
C           -0.74508318969396       -1.37308516874403        0.29404741226316
C            0.75155265175154       -1.61527403364273        0.54261814920509
C            1.01091064257958       -2.01008693291512        2.00458898445947
C            1.34510348444803       -2.65794631433796       -0.42795954121615
N            1.41888432518410       -0.36072378272446        0.19101847051674
C            2.67032769652023       -0.01110673215218        0.61746279611200
O            3.30355818069460       -0.55776909028726        1.49304245553327
C            3.12649322441555        1.18920197117098       -0.11848956086106
N            2.45403858875576        1.82415485119668       -1.03259667678083
N            3.22768482595696        2.86746066400671       -1.43373306536788
C            4.32579273481142        2.80425609868802       -0.73899507304719
C            5.48924864678505        3.71534880273507       -0.79884194387695
O            4.31817310203502        1.76575276787985        0.10859365531624
N           -1.25500412631966       -0.13895915481943        0.35953903069197
C           -0.63082542600458        0.90965269652906        1.19164004896145
H           -4.30777788480183        3.79741124209807        0.37035036740901
H           -5.69607516756437        3.13646894509056       -0.55154143242765
H           -4.19451081325715        3.62754358537242       -1.40345013418451
H           -4.78285486227883       -1.41317198942334       -1.66961488612067
H           -0.55052733156474       -3.94800945567451        0.89463046012676
H           -2.21061753684028       -4.28581499880117        0.37529978183073
H           -0.91781938227504       -4.23903466274919       -0.83665289200910
H            0.98880536473853       -1.13914065048804        2.65542528689923
H            0.25157607469187       -2.71292434436660        2.33949225770047
H            1.98814899250743       -2.48105407735027        2.08816840129717
H            1.24419988060311       -3.67254741376378       -0.05621775438305
H            0.88787172083006       -2.57743209264585       -1.41149994077557
H            2.40996105255570       -2.44831819295269       -0.52206330735225
H            1.13013913177816        0.04581527037054       -0.68839266439523
H            6.39751367003844        3.14534075216642       -0.99514914911260
H            5.61040354566696        4.22339644869260        0.15853360535857
H            5.33902046525168        4.45172574133761       -1.58490507346647
H           -0.06873739358921        1.60212978674453        0.56807487494398
H           -1.43122878735676        1.43947936096146        1.70338378396742
H            0.01419509248933        0.44874032676461        1.92876935263078

          :  Hamiltonian                  GFN1-xTB          :
         :: total energy             -86.340175358156 Eh    ::
         :: gradient norm              0.000976890683 Eh/a0 ::
         :: HOMO-LUMO gap              2.633552480912 eV    ::
         :: SCC energy               -87.174680487671 Eh    ::
         :: -> Gsolv                  -0.107935893430 Eh    ::
         :: repulsion energy           0.865156392772 Eh    ::

    * Orbital Energies and Occupations

         #    Occupation            Energy/Eh            Energy/eV
      -------------------------------------------------------------
         1        2.0000           -0.8917468             -24.2657
       ...           ...                  ...                  ...
        58        2.0000           -0.5339460             -14.5294
        59        2.0000           -0.5266289             -14.3303
        60        2.0000           -0.5231932             -14.2368
        61        2.0000           -0.5222998             -14.2125
        62        2.0000           -0.5189718             -14.1219
        63        2.0000           -0.5162492             -14.0479
        64        2.0000           -0.5005206             -13.6199
        65        2.0000           -0.4938842             -13.4393
        66        2.0000           -0.4822132             -13.1217
        67        2.0000           -0.4792494             -13.0410
        68        2.0000           -0.4761335             -12.9563
        69        2.0000           -0.4635842             -12.6148
        70        2.0000           -0.4617715             -12.5654 (HOMO)
        71                         -0.3649903              -9.9319 (LUMO)
        72                         -0.3640753              -9.9070
        73                         -0.3268674              -8.8945
        74                         -0.2858964              -7.7796
        75                         -0.2657130              -7.2304
        76                         -0.2202323              -5.9928
        77                         -0.2142134              -5.8290
        78                         -0.1674228              -4.5558
        79                         -0.1590116              -4.3269
        80                         -0.1518688              -4.1326
        81                         -0.1502789              -4.0893
       ...                                ...                  ...
       144                          0.7247581              19.7217
      -------------------------------------------------------------
                  HL-Gap            0.0967813 Eh            2.6336 eV

Wiberg/Mayer (AO) data.
largest (>0.10) Wiberg bond orders for each atom

     #   Z sym  total        # sym  WBO       # sym  WBO       # sym  WBO
 ---------------------------------------------------------------------------
     1   6 C    3.848 --    28 H    0.984    29 H    0.978    27 H    0.978
                             2 O    0.874
     2   8 O    2.237 --     3 C    1.166     1 C    0.874     4 O    0.146
     3   6 C    3.866 --     4 O    1.663     2 O    1.166     5 C    0.965
     4   8 O    1.956 --     3 C    1.663     2 O    0.146
     5   6 C    3.921 --     6 C    1.523    25 N    1.089     3 C    0.965
     6   6 C    3.929 --     5 C    1.523     7 O    1.143     8 C    1.050
     7   8 O    2.114 --     6 C    1.143    30 H    0.789
     8   6 C    3.906 --     9 O    1.640    10 N    1.069     6 C    1.050
     9   8 O    1.968 --     8 C    1.640    10 N    0.118
    10   7 N    3.531 --    12 C    1.287     8 C    1.069    11 C    0.905
                             9 O    0.118
    11   6 C    3.889 --    31 H    0.978    33 H    0.970    32 H    0.965
                            10 N    0.905
    12   6 C    3.897 --    25 N    1.368    10 N    1.287    13 C    0.973
    13   6 C    3.927 --    15 C    0.974    14 C    0.974    12 C    0.973
                            16 N    0.941
    14   6 C    3.978 --    35 H    0.979    13 C    0.974    36 H    0.974
                            34 H    0.974
    15   6 C    3.981 --    38 H    0.983    37 H    0.978    39 H    0.976
                            13 C    0.974
    16   7 N    3.293 --    17 C    1.186    13 C    0.941    40 H    0.892
                            18 O    0.163
    17   6 C    3.908 --    18 O    1.634    16 N    1.186    19 C    0.997
    18   8 O    1.943 --    17 C    1.634    16 N    0.163
    19   6 C    3.880 --    20 N    1.599    24 O    1.068    17 C    0.997
    20   7 N    3.025 --    19 C    1.599    21 N    1.210
    21   7 N    2.982 --    22 C    1.594    20 N    1.210
    22   6 C    3.867 --    21 N    1.594    24 O    1.085    23 C    1.033
    23   6 C    3.985 --    22 C    1.033    43 H    0.982    41 H    0.963
                            42 H    0.960
    24   8 O    2.337 --    22 C    1.085    19 C    1.068
    25   7 N    3.566 --    12 C    1.368     5 C    1.089    26 C    0.898
    26   6 C    3.887 --    46 H    0.976    45 H    0.972    44 H    0.968
                            25 N    0.898
    27   1 H    1.002 --     1 C    0.978
    28   1 H    1.007 --     1 C    0.984
    29   1 H    1.003 --     1 C    0.978
    30   1 H    0.823 --     7 O    0.789
    31   1 H    1.002 --    11 C    0.978
    32   1 H    0.997 --    11 C    0.965
    33   1 H    0.995 --    11 C    0.970
    34   1 H    1.002 --    14 C    0.974
    35   1 H    0.999 --    14 C    0.979
    36   1 H    1.007 --    14 C    0.974
    37   1 H    0.999 --    15 C    0.978
    38   1 H    0.995 --    15 C    0.983
    39   1 H    0.995 --    15 C    0.976
    40   1 H    0.949 --    16 N    0.892
    41   1 H    0.995 --    23 C    0.963
    42   1 H    0.995 --    23 C    0.960
    43   1 H    0.997 --    23 C    0.982
    44   1 H    1.013 --    26 C    0.968
    45   1 H    0.996 --    26 C    0.972
    46   1 H    1.004 --    26 C    0.976
 ---------------------------------------------------------------------------

           -------------------------------------------------
          | TOTAL ENERGY              -86.340175358156 Eh   |
          | GRADIENT NORM               0.000976890683 Eh/α |
          | HOMO-LUMO GAP               2.633552480912 eV   |
           -------------------------------------------------

 * finished run on 2023/06/20 at 15:40:28.058
