   * xtb version 6.5.1 (579679a) compiled by 'ehlert@majestix' on 2022-07-11
          program call               : /lustre/hpc/kemi/ree/PhD/git/ReactivityQM/dep/xtb-6.5.1/bin/xtb --gfn 1 /lustre/hpc/kemi/ree/PhD/git/ReactivityQM/calculations/R03/reac02prodN01/conf13/R03_reac02prodN01_conf13_gfn1.xyz --opt --vfukui --chrg 1 --uhf 0 --alpb DMSO

   ID    Z sym.   atoms
    1    6 C      1, 3, 5, 7-10, 12, 14, 17, 18, 20, 22, 23, 25
    2    8 O      2, 4, 13, 19, 24, 26
    3    7 N      6, 11, 15, 16, 21
    4    1 H      27-46

      * Solvation model:               ALPB
        Solvent                        DMSO
        Solvent mass                       7.8130E+01 g/mol
          :  Hamiltonian                  GFN1-xTB          :
 * total energy  :   -86.2608755 Eh     change       -0.4988010E-11 Eh
 * total energy  :   -86.2799326 Eh     change       -0.1905714E-01 Eh
 * total energy  :   -86.2888449 Eh     change       -0.8912253E-02 Eh
 * total energy  :   -86.2916957 Eh     change       -0.2850856E-02 Eh
 * total energy  :   -86.2935188 Eh     change       -0.1823060E-02 Eh
 * total energy  :   -86.2943898 Eh     change       -0.8709552E-03 Eh
 * total energy  :   -86.2949703 Eh     change       -0.5805741E-03 Eh
 * total energy  :   -86.2953332 Eh     change       -0.3629109E-03 Eh
 * total energy  :   -86.2955631 Eh     change       -0.2298809E-03 Eh
 * total energy  :   -86.2957438 Eh     change       -0.1806476E-03 Eh
 * total energy  :   -86.2971985 Eh     change       -0.3277861E-04 Eh
 * total energy  :   -86.2972426 Eh     change       -0.4403839E-04 Eh
 * total energy  :   -86.2972681 Eh     change       -0.2555193E-04 Eh
 * total energy  :   -86.2972872 Eh     change       -0.1908223E-04 Eh
 * total energy  :   -86.2973011 Eh     change       -0.1385211E-04 Eh
 * total energy  :   -86.2973163 Eh     change       -0.1519078E-04 Eh
 * total energy  :   -86.2973249 Eh     change       -0.8685645E-05 Eh
 * total energy  :   -86.2973316 Eh     change       -0.6617130E-05 Eh
 * total energy  :   -86.2973363 Eh     change       -0.4728526E-05 Eh
   *** GEOMETRY OPTIMIZATION CONVERGED AFTER 34 ITERATIONS ***

 final structure:
================
46
 xtb: 6.5.1 (579679a)
C           -6.36578104149800        1.92326497350932        0.17757625924133
O           -5.09170079921164        1.26721472316942        0.18273256868753
C           -5.06881723822708        0.01515973191462       -0.24634032674169
O           -6.05987794580713       -0.57713799725074       -0.63633107264572
C           -3.72709601064917       -0.61146827691305       -0.21302610719644
N           -2.67957739512454        0.14425798737434        0.23268228808640
C           -1.49114003673406       -0.35882056536388        0.30468633305659
C           -0.42629127520285        0.58263327719897        0.86142902286155
C           -0.25384512889044        0.31808802324112        2.35942836217126
C           -0.88415081586393        2.03423087867302        0.65083490900585
N            0.82033594165324        0.44137448118118        0.08768989265713
C            2.06273881983413        0.31884772906674        0.56812492851399
O            2.41355021568099        0.11799818814481        1.71357163450890
C            3.06607232007347        0.41373328135426       -0.54076469119822
N            2.87881746225386        0.61355699305085       -1.78994502574752
N            4.09043493892149        0.61851040056865       -2.42305567003125
C            5.01194515357725        0.42176479010723       -1.55899316492241
C            6.46846754130176        0.34469099801272       -1.74690149243499
O            4.43122851720182        0.27495780382590       -0.29295581363169
C            5.06838321201066        0.03525616890610        1.00508549662361
N           -1.22815374423248       -1.66012133156844       -0.03452983105641
C            0.09961734596256       -2.26022573115812        0.08825614116592
C           -2.20938152286239       -2.50592412258461       -0.56190901042543
O           -1.94060612485687       -3.64234013836896       -0.91502112737698
C           -3.54233696922384       -1.90708696837843       -0.62381168777287
O           -4.51352596953356       -2.69240273663521       -1.08762612614511
H           -6.77165954764053        1.94159062244711       -0.83644926417233
H           -6.19387601307529        2.93526751583068        0.53772724020157
H           -7.05826521786360        1.39512612185166        0.83695166989769
H           -1.23515994710340        0.39269937121961        2.82814293371204
H            0.15290022154773       -0.67055214153282        2.55488470132938
H            0.40427692975981        1.06310708044891        2.80064769611924
H           -0.10481354928264        2.71129802021025        0.99421298792546
H           -1.79682357011350        2.21741829112927        1.21509333804657
H           -1.08069297597625        2.21881520523373       -0.40380682120399
H            0.73432048533202        0.66203340221251       -0.89484286712010
H            6.97024139253911        1.10545940724388       -1.14785995461644
H            6.84050190553894       -0.63329816899038       -1.43920268741847
H            6.69319390969182        0.50389594342280       -2.80046237129553
H            4.80710132792207        0.86964823224934        1.65230842750343
H            4.67740365219631       -0.90428438187047        1.38844653402824
H            6.13660071235836       -0.01604505525172        0.82169855794093
H            0.57414854618590       -1.93739895482406        1.00839084658859
H           -0.01919804061169       -3.34363012485798        0.10121521191418
H            0.71169376204581       -1.97518080205093       -0.76542796316343
H           -5.37120443400177       -2.20598414518166       -1.08771890547623

          :  Hamiltonian                  GFN1-xTB          :
         :: total energy             -86.297336285676 Eh    ::
         :: gradient norm              0.000607322634 Eh/a0 ::
         :: HOMO-LUMO gap              1.809417740873 eV    ::
         :: SCC energy               -87.133226440533 Eh    ::
         :: -> Gsolv                  -0.124887048289 Eh    ::
         :: repulsion energy           0.865380553603 Eh    ::

    * Orbital Energies and Occupations

         #    Occupation            Energy/Eh            Energy/eV
      -------------------------------------------------------------
         1        2.0000           -0.9703857             -26.4055
       ...           ...                  ...                  ...
        58        2.0000           -0.5224799             -14.2174
        59        2.0000           -0.5190635             -14.1244
        60        2.0000           -0.5176631             -14.0863
        61        2.0000           -0.5154689             -14.0266
        62        2.0000           -0.5114074             -13.9161
        63        2.0000           -0.5031331             -13.6909
        64        2.0000           -0.4973709             -13.5341
        65        2.0000           -0.4938026             -13.4371
        66        2.0000           -0.4857925             -13.2191
        67        2.0000           -0.4817932             -13.1103
        68        2.0000           -0.4647922             -12.6476
        69        2.0000           -0.4516338             -12.2896
        70        2.0000           -0.4346919             -11.8286 (HOMO)
        71                         -0.3681970             -10.0191 (LUMO)
        72                         -0.3312012              -9.0124
        73                         -0.3162596              -8.6059
        74                         -0.2929375              -7.9712
        75                         -0.2495779              -6.7914
        76                         -0.2481719              -6.7531
        77                         -0.1911765              -5.2022
        78                         -0.1764612              -4.8018
        79                         -0.1653238              -4.4987
        80                         -0.1455269              -3.9600
        81                         -0.1403647              -3.8195
       ...                                ...                  ...
       144                          0.7138967              19.4261
      -------------------------------------------------------------
                  HL-Gap            0.0664949 Eh            1.8094 eV

Wiberg/Mayer (AO) data.
largest (>0.10) Wiberg bond orders for each atom

     #   Z sym  total        # sym  WBO       # sym  WBO       # sym  WBO
 ---------------------------------------------------------------------------
     1   6 C    3.864 --    28 H    0.986    27 H    0.979    29 H    0.979
                             2 O    0.890
     2   8 O    2.218 --     3 C    1.139     1 C    0.890     4 O    0.131
     3   6 C    3.849 --     4 O    1.608     2 O    1.139     5 C    1.018
     4   8 O    1.945 --     3 C    1.608     2 O    0.131
     5   6 C    3.962 --    25 C    1.477     6 N    1.184     3 C    1.018
     6   7 N    3.032 --     7 C    1.575     5 C    1.184
     7   6 C    3.935 --     6 N    1.575    21 N    1.175     8 C    0.971
     8   6 C    3.916 --     9 C    0.986    10 C    0.985     7 C    0.971
                            11 N    0.904
     9   6 C    3.985 --     8 C    0.986    30 H    0.982    32 H    0.979
                            31 H    0.977
    10   6 C    3.987 --     8 C    0.985    33 H    0.985    35 H    0.983
                            34 H    0.980
    11   7 N    3.383 --    12 C    1.293     8 C    0.904    36 H    0.891
                            13 O    0.193
    12   6 C    3.926 --    13 O    1.589    11 N    1.293    14 C    0.967
    13   8 O    1.947 --    12 C    1.589    11 N    0.193
    14   6 C    3.802 --    15 N    1.704    12 C    0.967    19 O    0.889
    15   7 N    3.046 --    14 C    1.704    16 N    1.148
    16   7 N    3.024 --    17 C    1.694    15 N    1.148
    17   6 C    3.801 --    16 N    1.694    18 C    1.044    19 O    0.877
    18   6 C    3.968 --    17 C    1.044    39 H    0.969    37 H    0.950
                            38 H    0.949
    19   8 O    2.656 --    14 C    0.889    17 C    0.877    20 C    0.743
    20   6 C    3.720 --    42 H    0.974    40 H    0.967    41 H    0.967
                            19 O    0.743
    21   7 N    3.501 --     7 C    1.175    23 C    1.103    22 C    0.931
                            24 O    0.137
    22   6 C    3.922 --    43 H    0.979    45 H    0.977    44 H    0.972
                            21 N    0.931
    23   6 C    3.911 --    24 O    1.594    21 N    1.103    25 C    1.065
    24   8 O    1.912 --    23 C    1.594    21 N    0.137
    25   6 C    3.923 --     5 C    1.477    26 O    1.129    23 C    1.065
    26   8 O    2.096 --    25 C    1.129    46 H    0.775
    27   1 H    1.006 --     1 C    0.979
    28   1 H    1.010 --     1 C    0.986
    29   1 H    1.005 --     1 C    0.979
    30   1 H    1.001 --     9 C    0.982
    31   1 H    1.007 --     9 C    0.977
    32   1 H    1.005 --     9 C    0.979
    33   1 H    1.000 --    10 C    0.985
    34   1 H    1.011 --    10 C    0.980
    35   1 H    1.003 --    10 C    0.983
    36   1 H    0.940 --    11 N    0.891
    37   1 H    0.988 --    18 C    0.950
    38   1 H    0.987 --    18 C    0.949
    39   1 H    0.989 --    18 C    0.969
    40   1 H    0.998 --    20 C    0.967
    41   1 H    0.998 --    20 C    0.967
    42   1 H    0.990 --    20 C    0.974
    43   1 H    1.004 --    22 C    0.979
    44   1 H    1.006 --    22 C    0.972
    45   1 H    1.005 --    22 C    0.977
    46   1 H    0.850 --    26 O    0.775
 ---------------------------------------------------------------------------

           -------------------------------------------------
          | TOTAL ENERGY              -86.297336285676 Eh   |
          | GRADIENT NORM               0.000607322634 Eh/α |
          | HOMO-LUMO GAP               1.809417740873 eV   |
           -------------------------------------------------

 * finished run on 2023/06/20 at 15:36:32.378
