   * xtb version 6.5.1 (579679a) compiled by 'ehlert@majestix' on 2022-07-11
          program call               : /lustre/hpc/kemi/ree/PhD/git/ReactivityQM/dep/xtb-6.5.1/bin/xtb --gfn 1 /lustre/hpc/kemi/ree/PhD/git/ReactivityQM/calculations/R03/reac01prodN03/conf03/R03_reac01prodN03_conf03_gfn1.xyz --opt --vfukui --chrg 1 --uhf 0 --alpb DMSO

   ID    Z sym.   atoms
    1    6 C      1-4, 6-9
    2    9 F      5
    3    7 N      10
    4    1 H      11-21

      * Solvation model:               ALPB
        Solvent                        DMSO
        Solvent mass                       7.8130E+01 g/mol
          :  Hamiltonian                  GFN1-xTB          :
 * total energy  :   -30.7629962 Eh     change       -0.6600942E-11 Eh
 * total energy  :   -30.7677855 Eh     change       -0.4789304E-02 Eh
 * total energy  :   -30.7693383 Eh     change       -0.1552849E-02 Eh
 * total energy  :   -30.7695813 Eh     change       -0.2429799E-03 Eh
 * total energy  :   -30.7698028 Eh     change       -0.2214862E-03 Eh
 * total energy  :   -30.7698955 Eh     change       -0.9273898E-04 Eh
 * total energy  :   -30.7700105 Eh     change       -0.1149447E-03 Eh
 * total energy  :   -30.7701512 Eh     change       -0.1407628E-03 Eh
 * total energy  :   -30.7702154 Eh     change       -0.6417258E-04 Eh
 * total energy  :   -30.7702821 Eh     change       -0.6668808E-04 Eh
 * total energy  :   -30.7705347 Eh     change       -0.1125882E-04 Eh
 * total energy  :   -30.7705443 Eh     change       -0.9554689E-05 Eh
 * total energy  :   -30.7705555 Eh     change       -0.1117050E-04 Eh
 * total energy  :   -30.7705629 Eh     change       -0.7423311E-05 Eh
 * total energy  :   -30.7705687 Eh     change       -0.5843457E-05 Eh
 * total energy  :   -30.7705755 Eh     change       -0.6770665E-05 Eh
 * total energy  :   -30.7705828 Eh     change       -0.7297296E-05 Eh
 * total energy  :   -30.7705889 Eh     change       -0.6079076E-05 Eh
 * total energy  :   -30.7705928 Eh     change       -0.3897062E-05 Eh
   *** GEOMETRY OPTIMIZATION CONVERGED AFTER 27 ITERATIONS ***

 final structure:
================
21
 xtb: 6.5.1 (579679a)
C           -0.36497031089194        1.90837140525602        0.02172771168463
C           -0.47123041614911        0.44839286575813       -0.52282316998133
C           -1.88493004270183        0.02798266534777       -0.54672816089701
C           -2.28263142080446       -1.08049637432316        0.12530186112844
F           -3.56066748281872       -1.43932125156510        0.11689667687260
C           -1.38372214338197       -1.88230441615320        0.85400565862724
C           -0.03702154781793       -1.57077406424638        0.86233424431271
C            0.45421496503290       -0.45853170571377        0.18545899498684
C            1.91449105230467       -0.20471034279846        0.18153046980116
N            2.33404078449553        0.83700034813713       -0.72705217105672
H            0.66217554843621        2.25105628995978       -0.07690487123556
H           -0.66292622754532        1.92397003956191        1.06713416241770
H           -1.02225716993876        2.54972674927338       -0.56059212495526
H           -0.12576786451217        0.53252212528517       -1.56532012731817
H           -2.59292102054262        0.64298857021859       -1.08857108684677
H           -1.75983483478708       -2.74593101933164        1.39027346653622
H            0.65225036327700       -2.21204165201168        1.39989345584796
H            2.20972656155352        0.07773159558117        1.20074337505101
H            2.42807412515209       -1.15644829110714       -0.02637289532202
H            2.16984234790055        0.55440850226787       -1.68313311841462
H            3.32406673373929        0.99640796060367       -0.60780135123927

          :  Hamiltonian                  GFN1-xTB          :
         :: total energy             -30.770592782463 Eh    ::
         :: gradient norm              0.000223406054 Eh/a0 ::
         :: HOMO-LUMO gap              0.789683917068 eV    ::
         :: SCC energy               -31.163351708185 Eh    ::
         :: -> Gsolv                  -0.085477129730 Eh    ::
         :: repulsion energy           0.403153300927 Eh    ::

    * Orbital Energies and Occupations

         #    Occupation            Energy/Eh            Energy/eV
      -------------------------------------------------------------
         1        2.0000           -0.9116298             -24.8067
       ...           ...                  ...                  ...
        15        2.0000           -0.5934722             -16.1492
        16        2.0000           -0.5930239             -16.1370
        17        2.0000           -0.5837483             -15.8846
        18        2.0000           -0.5759030             -15.6711
        19        2.0000           -0.5672767             -15.4364
        20        2.0000           -0.5514328             -15.0053
        21        2.0000           -0.5489770             -14.9384
        22        2.0000           -0.5481746             -14.9166
        23        2.0000           -0.5370442             -14.6137
        24        2.0000           -0.5287029             -14.3867
        25        2.0000           -0.5209560             -14.1759
        26        2.0000           -0.4967832             -13.5182
        27        2.0000           -0.4423751             -12.0376 (HOMO)
        28        0.0000           -0.4133548             -11.2480 (LUMO)
        29                         -0.3232942              -8.7973
        30                         -0.2402358              -6.5371
        31                         -0.1590908              -4.3291
        32                         -0.1505130              -4.0957
        33                         -0.1452428              -3.9523
        34                         -0.1384123              -3.7664
        35                         -0.1320390              -3.5930
        36                         -0.1181364              -3.2147
        37                         -0.1078800              -2.9356
        38                         -0.0956159              -2.6018
       ...                                ...                  ...
        62                          0.5407205              14.7138
      -------------------------------------------------------------
                  HL-Gap            0.0290203 Eh            0.7897 eV

Wiberg/Mayer (AO) data.
largest (>0.10) Wiberg bond orders for each atom

     #   Z sym  total        # sym  WBO       # sym  WBO       # sym  WBO
 ---------------------------------------------------------------------------
     1   6 C    3.963 --    12 H    0.986    13 H    0.982    11 H    0.974
                             2 C    0.885
     2   6 C    3.992 --     8 C    1.086     3 C    1.081     1 C    0.885
                            14 H    0.867
     3   6 C    3.974 --     4 C    1.567     2 C    1.081    15 H    0.960
     4   6 C    3.882 --     3 C    1.567     6 C    1.262     5 F    0.963
     5   9 F    1.104 --     4 C    0.963
     6   6 C    3.961 --     7 C    1.469     4 C    1.262    16 H    0.960
     7   6 C    3.987 --     6 C    1.469     8 C    1.421    17 H    0.961
     8   6 C    3.929 --     7 C    1.421     2 C    1.086     9 C    1.068
     9   6 C    3.981 --     8 C    1.068    10 N    1.016    19 H    0.917
                            18 H    0.912
    10   7 N    3.009 --     9 C    1.016    20 H    0.928    21 H    0.924
    11   1 H    1.015 --     1 C    0.974
    12   1 H    0.996 --     1 C    0.986
    13   1 H    0.995 --     1 C    0.982
    14   1 H    0.988 --     2 C    0.867
    15   1 H    0.986 --     3 C    0.960
    16   1 H    0.987 --     6 C    0.960
    17   1 H    0.988 --     7 C    0.961
    18   1 H    0.995 --     9 C    0.912
    19   1 H    0.991 --     9 C    0.917
    20   1 H    0.944 --    10 N    0.928
    21   1 H    0.938 --    10 N    0.924
 ---------------------------------------------------------------------------

           -------------------------------------------------
          | TOTAL ENERGY              -30.770592782463 Eh   |
          | GRADIENT NORM               0.000223406054 Eh/α |
          | HOMO-LUMO GAP               0.789683917068 eV   |
           -------------------------------------------------

 * finished run on 2023/06/20 at 15:14:12.489
