   * xtb version 6.5.1 (579679a) compiled by 'ehlert@majestix' on 2022-07-11
          program call               : /lustre/hpc/kemi/ree/PhD/git/ReactivityQM/dep/xtb-6.5.1/bin/xtb --gfn 1 /lustre/hpc/kemi/ree/PhD/git/ReactivityQM/calculations/R03/reac02prodE14/conf16/R03_reac02prodE14_conf16_gfn1.xyz --opt --vfukui --chrg -1 --uhf 0 --alpb DMSO

   ID    Z sym.   atoms
    1    6 C      1, 3, 5, 7-10, 12, 14, 17, 18, 21, 22, 24, 25
    2    8 O      2, 4, 13, 19, 23, 26
    3    7 N      6, 11, 15, 16, 20
    4    1 H      27-46

      * Solvation model:               ALPB
        Solvent                        DMSO
        Solvent mass                       7.8130E+01 g/mol
          :  Hamiltonian                  GFN1-xTB          :
 * total energy  :   -87.0453892 Eh     change       -0.4077805E-09 Eh
 * total energy  :   -87.0607286 Eh     change       -0.1533933E-01 Eh
 * total energy  :   -87.0668996 Eh     change       -0.6171022E-02 Eh
 * total energy  :   -87.0677107 Eh     change       -0.8111342E-03 Eh
 * total energy  :   -87.0680742 Eh     change       -0.3634435E-03 Eh
 * total energy  :   -87.0681887 Eh     change       -0.1145467E-03 Eh
 * total energy  :   -87.0682829 Eh     change       -0.9419050E-04 Eh
 * total energy  :   -87.0683472 Eh     change       -0.6425427E-04 Eh
 * total energy  :   -87.0684046 Eh     change       -0.5740027E-04 Eh
 * total energy  :   -87.0684610 Eh     change       -0.5645442E-04 Eh
 * total energy  :   -87.0690172 Eh     change       -0.1706144E-04 Eh
 * total energy  :   -87.0690361 Eh     change       -0.1897213E-04 Eh
 * total energy  :   -87.0690551 Eh     change       -0.1901413E-04 Eh
 * total energy  :   -87.0690698 Eh     change       -0.1462387E-04 Eh
 * total energy  :   -87.0690821 Eh     change       -0.1229919E-04 Eh
 * total energy  :   -87.0690919 Eh     change       -0.9782854E-05 Eh
 * total energy  :   -87.0690969 Eh     change       -0.5009643E-05 Eh
 * total energy  :   -87.0691019 Eh     change       -0.5009608E-05 Eh
 * total energy  :   -87.0691052 Eh     change       -0.3360226E-05 Eh
   *** GEOMETRY OPTIMIZATION CONVERGED AFTER 39 ITERATIONS ***

 final structure:
================
46
 xtb: 6.5.1 (579679a)
C           -5.77819064165474        0.43726637065725        2.17200308938107
O           -4.76471174867218        0.76808589776505        1.23702998009560
C           -3.66098266856824       -0.09469654481012        1.23394045569160
O           -3.62688823540235       -1.02624020414470        2.04824332352372
C           -2.69120139383375        0.23509816461097        0.26663755326385
N           -1.58411762297551       -0.55192604259058        0.23362941820008
C           -0.58468572418556       -0.36748685847610       -0.55046036592474
C            0.54518901451003       -1.38408732760551       -0.49948481774492
C            0.72625928471708       -2.11070550563274       -1.84134556519675
C            0.22931392416586       -2.42150963285411        0.59014927992315
N            1.78574646249114       -0.68459814208263       -0.10301227591751
C            3.00685192843861       -1.24591904046457       -0.07977686976246
O            3.30206149947035       -2.35607880820018       -0.49006127658576
C            4.00185387755302       -0.30372407245041        0.50872360426242
N            3.74060718050474        0.87106075689641        0.99660973838100
N            4.92546234625416        1.38971140659015        1.43092418525896
C            5.83224008566000        0.49674396415972        1.17965055918307
C            7.28323019557057        0.58161362917136        1.45491528550731
O            5.31242777590294       -0.59597388640314        0.59929305590872
N           -0.55567815693924        0.73932587668655       -1.45175291053573
C            0.57861371868073        1.01552931228670       -2.33146606666467
C           -1.59769400284858        1.60127127196451       -1.56686780540012
O           -1.55653693245420        2.53395612382497       -2.37273850198481
C           -2.85537464691795        1.38779287244962       -0.70160993998187
C           -4.02021206024558        1.15342301182044       -1.69100276636942
O           -3.05950539838458        2.63280161305390       -0.02095896973555
H           -5.38883235157926        0.44635159009377        3.19678986854914
H           -6.19431478202522       -0.55547887203937        1.96465929261995
H           -6.56424540505756        1.18638712044591        2.07591570824270
H            1.23985092862526       -1.49027871393067       -2.57097253688401
H            1.30484314717978       -3.02301891235676       -1.70605498335201
H           -0.25504807380126       -2.37611481357377       -2.23316648436404
H            1.04439625217695       -3.13953768430414        0.66371418985409
H           -0.68975913909553       -2.94841552654214        0.33779760499305
H            0.09767980825307       -1.92929456197790        1.55293148193672
H            1.67839900982291        0.19697372200749        0.37999024408180
H            7.84306627801190        0.50885747822637        0.52288508313622
H            7.59106462572116       -0.24226641139059        2.09807106263574
H            7.50812716480223        1.52756228562311        1.94083884807322
H            1.49894930397026        0.62749059419215       -1.90708496188220
H            0.41097420108670        0.57246841704185       -3.31518628778782
H            0.67579469410491        2.09646305011511       -2.44848892474867
H           -4.96119131864240        1.07261364705224       -1.15252770753032
H           -4.07981265926148        1.98921722243909       -2.38771547525975
H           -3.84833601650776        0.23248496958579       -2.24654463515070
H           -3.84568572862157        2.54680419307137        0.53801521606303

          :  Hamiltonian                  GFN1-xTB          :
         :: total energy             -87.069105234038 Eh    ::
         :: gradient norm              0.000671126123 Eh/a0 ::
         :: HOMO-LUMO gap              0.753185576879 eV    ::
         :: SCC energy               -87.867188420975 Eh    ::
         :: -> Gsolv                  -0.114521234712 Eh    ::
         :: repulsion energy           0.827470750967 Eh    ::

    * Orbital Energies and Occupations

         #    Occupation            Energy/Eh            Energy/eV
      -------------------------------------------------------------
         1        2.0000           -0.8598833             -23.3986
       ...           ...                  ...                  ...
        59        2.0000           -0.4714096             -12.8277
        60        2.0000           -0.4691677             -12.7667
        61        2.0000           -0.4577339             -12.4556
        62        2.0000           -0.4548796             -12.3779
        63        2.0000           -0.4469084             -12.1610
        64        2.0000           -0.4462465             -12.1430
        65        2.0000           -0.4446981             -12.1009
        66        2.0000           -0.4353793             -11.8473
        67        2.0000           -0.4226912             -11.5020
        68        2.0000           -0.4179707             -11.3736
        69        2.0000           -0.4060729             -11.0498
        70        2.0000           -0.3849791             -10.4758
        71        2.0000           -0.3313313              -9.0160 (HOMO)
        72        0.0000           -0.3036523              -8.2628 (LUMO)
        73                         -0.2537934              -6.9061
        74                         -0.2451478              -6.6708
        75                         -0.2029310              -5.5220
        76                         -0.1923701              -5.2347
        77                         -0.1443986              -3.9293
        78                         -0.1413896              -3.8474
        79                         -0.1255519              -3.4164
        80                         -0.1128755              -3.0715
        81                         -0.1103792              -3.0036
        82                         -0.1043268              -2.8389
       ...                                ...                  ...
       144                          0.7330111              19.9462
      -------------------------------------------------------------
                  HL-Gap            0.0276791 Eh            0.7532 eV

Wiberg/Mayer (AO) data.
largest (>0.10) Wiberg bond orders for each atom

     #   Z sym  total        # sym  WBO       # sym  WBO       # sym  WBO
 ---------------------------------------------------------------------------
     1   6 C    3.907 --    29 H    0.987    28 H    0.981    27 H    0.981
                             2 O    0.935
     2   8 O    2.104 --     3 C    0.946     1 C    0.935
     3   6 C    3.863 --     4 O    1.495     5 C    1.292     2 O    0.946
     4   8 O    1.798 --     3 C    1.495     5 C    0.108
     5   6 C    3.860 --     3 C    1.292     6 N    1.219    24 C    0.975
                             7 C    0.114     4 O    0.108
     6   7 N    3.064 --     7 C    1.608     5 C    1.219
     7   6 C    3.897 --     6 N    1.608     8 C    0.980    20 N    0.978
                             5 C    0.114
     8   6 C    3.924 --    10 C    0.991     9 C    0.989     7 C    0.980
                            11 N    0.900
     9   6 C    3.990 --     8 C    0.989    32 H    0.986    30 H    0.981
                            31 H    0.981
    10   6 C    3.994 --     8 C    0.991    33 H    0.985    34 H    0.985
                            35 H    0.985
    11   7 N    3.364 --    12 C    1.272     8 C    0.900    36 H    0.899
                            13 O    0.182
    12   6 C    3.921 --    13 O    1.584    11 N    1.272    14 C    0.981
    13   8 O    1.901 --    12 C    1.584    11 N    0.182
    14   6 C    3.871 --    15 N    1.615    19 O    1.064    12 C    0.981
    15   7 N    3.015 --    14 C    1.615    16 N    1.193
    16   7 N    2.980 --    17 C    1.612    15 N    1.193
    17   6 C    3.872 --    16 N    1.612    19 O    1.080    18 C    1.031
    18   6 C    3.987 --    17 C    1.031    39 H    0.983    38 H    0.965
                            37 H    0.963
    19   8 O    2.327 --    17 C    1.080    14 C    1.064
    20   7 N    3.429 --    22 C    1.242     7 C    0.978    21 C    0.946
                            23 O    0.147
    21   6 C    3.950 --    41 H    0.981    40 H    0.980    42 H    0.978
                            20 N    0.946
    22   6 C    3.890 --    23 O    1.562    20 N    1.242    24 C    0.935
    23   8 O    1.860 --    22 C    1.562    20 N    0.147
    24   6 C    3.912 --     5 C    0.975    25 C    0.969    22 C    0.935
                            26 O    0.929
    25   6 C    3.995 --    45 H    0.987    44 H    0.985    43 H    0.983
                            24 C    0.969
    26   8 O    1.880 --    24 C    0.929    46 H    0.857
    27   1 H    1.018 --     1 C    0.981
    28   1 H    1.017 --     1 C    0.981
    29   1 H    1.017 --     1 C    0.987
    30   1 H    1.006 --     9 C    0.981
    31   1 H    1.015 --     9 C    0.981
    32   1 H    1.007 --     9 C    0.986
    33   1 H    1.007 --    10 C    0.985
    34   1 H    1.015 --    10 C    0.985
    35   1 H    1.017 --    10 C    0.985
    36   1 H    0.963 --    11 N    0.899
    37   1 H    0.997 --    18 C    0.963
    38   1 H    0.997 --    18 C    0.965
    39   1 H    0.999 --    18 C    0.983
    40   1 H    1.013 --    21 C    0.980
    41   1 H    1.008 --    21 C    0.981
    42   1 H    1.015 --    21 C    0.978
    43   1 H    1.017 --    25 C    0.983
    44   1 H    1.014 --    25 C    0.985
    45   1 H    1.011 --    25 C    0.987
    46   1 H    0.900 --    26 O    0.857
 ---------------------------------------------------------------------------

           -------------------------------------------------
          | TOTAL ENERGY              -87.069105234038 Eh   |
          | GRADIENT NORM               0.000671126123 Eh/α |
          | HOMO-LUMO GAP               0.753185576879 eV   |
           -------------------------------------------------

 * finished run on 2023/06/20 at 15:34:51.725
