   * xtb version 6.5.1 (579679a) compiled by 'ehlert@majestix' on 2022-07-11
          program call               : /lustre/hpc/kemi/ree/PhD/git/ReactivityQM/dep/xtb-6.5.1/bin/xtb --gfn 1 /lustre/hpc/kemi/ree/PhD/git/ReactivityQM/calculations/R02deprot/reac01prodN10/conf07/R02deprot_reac01prodN10_conf07_gfn1.xyz --opt --vfukui --chrg 0 --uhf 0 --alpb DMSO

   ID    Z sym.   atoms
    1    6 C      1, 3, 5, 6, 8-11, 13, 15, 18, 19, 22, 24
    2    8 O      2, 4, 14, 20, 23, 25
    3    7 N      7, 12, 16, 17, 21
    4    1 H      26-42

      * Solvation model:               ALPB
        Solvent                        DMSO
        Solvent mass                       7.8130E+01 g/mol
          :  Hamiltonian                  GFN1-xTB          :
 * total energy  :   -82.9331394 Eh     change       -0.4163780E-11 Eh
 * total energy  :   -82.9458192 Eh     change       -0.1267985E-01 Eh
 * total energy  :   -82.9507097 Eh     change       -0.4890491E-02 Eh
 * total energy  :   -82.9517025 Eh     change       -0.9927648E-03 Eh
 * total energy  :   -82.9524689 Eh     change       -0.7663728E-03 Eh
 * total energy  :   -82.9528770 Eh     change       -0.4080915E-03 Eh
 * total energy  :   -82.9532628 Eh     change       -0.3858000E-03 Eh
 * total energy  :   -82.9536033 Eh     change       -0.3405398E-03 Eh
 * total energy  :   -82.9538703 Eh     change       -0.2670480E-03 Eh
 * total energy  :   -82.9540955 Eh     change       -0.2251296E-03 Eh
 * total energy  :   -82.9562798 Eh     change       -0.3034400E-04 Eh
 * total energy  :   -82.9562955 Eh     change       -0.1571053E-04 Eh
 * total energy  :   -82.9563074 Eh     change       -0.1197753E-04 Eh
 * total energy  :   -82.9563239 Eh     change       -0.1645515E-04 Eh
 * total energy  :   -82.9563316 Eh     change       -0.7751366E-05 Eh
 * total energy  :   -82.9563403 Eh     change       -0.8617543E-05 Eh
 * total energy  :   -82.9563451 Eh     change       -0.4819593E-05 Eh
 * total energy  :   -82.9563507 Eh     change       -0.5645749E-05 Eh
 * total energy  :   -82.9563544 Eh     change       -0.3705770E-05 Eh
   *** GEOMETRY OPTIMIZATION CONVERGED AFTER 45 ITERATIONS ***

 final structure:
================
42
 xtb: 6.5.1 (579679a)
C           -5.07103922554310        1.69442806685991       -1.34681886345020
O           -4.41731886919918        1.09810187426391       -0.20923191539327
C           -3.17853881404197        0.71364083867607       -0.34992654747790
O           -2.50013968505937        0.79263081267571       -1.32784042750796
C           -2.64449692892879        0.07563837456041        1.02015761021912
C           -3.80417503560789       -0.56661604211954        1.78196496806233
N           -1.67666402249473       -0.88603136886313        0.62468464732989
C           -0.43353061052541       -0.52464827723047        0.52139373511254
C            0.51398906858780       -1.59424853047479       -0.00281224129242
C           -0.02958426669054       -2.13755857382913       -1.33109404399234
C            0.61577061205033       -2.71067267374173        1.04728488675747
N            1.82089084466760       -0.97860069494551       -0.20867574420395
C            2.89440011657532       -1.63196034583950       -0.67592541141959
O            2.93312264500015       -2.81606638121660       -0.98050180277712
C            4.08787656923998       -0.75306686902739       -0.81124301632343
N            5.26520420457463       -1.07756304090220       -1.24788064602652
N            6.02607618654196        0.05418251027086       -1.20841800679775
C            5.26573026046194        0.99871809176662       -0.75011247926014
C            5.61960800326397        2.41626841810644       -0.51845724858766
O            4.02742924210372        0.55486564073949       -0.47879885925789
N            0.12058816424391        0.66546981855116        0.84811194548462
C           -0.62459610429001        1.60351785689255        1.43609867699913
O           -0.26316256954558        2.69899948927542        1.87127174713244
C           -2.06940036202956        1.27771501767761        1.61265736457170
O           -2.77934595976837        2.17381469172095        2.19928641191109
H           -6.13833672727463        1.64255684236354       -1.14504009086590
H           -4.81857299607607        1.14135932495326       -2.25304251917451
H           -4.74859834727342        2.73233833161284       -1.44036731572466
H           -3.40575433712190       -1.07159412209219        2.65958145321262
H           -4.51655302489704        0.19323780898527        2.09349556064032
H           -4.29897792395175       -1.29547204148861        1.14452005194237
H           -1.04271166049427       -2.50439511480350       -1.17549332138306
H            0.59540281020855       -2.95225672171698       -1.69266244622811
H           -0.05193987511505       -1.34282895609129       -2.07578317377870
H            1.04579658692500       -2.31750260298398        1.96729604406630
H           -0.38161536839093       -3.09373917237845        1.25633534025748
H            1.24145278419147       -3.52135375408775        0.67724333570862
H            1.89349689080419        0.00027340732270        0.04519026446980
H            4.91809787887241        3.06508938951718       -1.04183273467261
H            5.56049127077307        2.64602556023379        0.54529507642595
H            6.62947036274814        2.60434972468070       -0.87372773105403
H           -2.17984078752437        2.93295339213493        2.43225746633171

          :  Hamiltonian                  GFN1-xTB          :
         :: total energy             -82.956354438429 Eh    ::
         :: gradient norm              0.000656880438 Eh/a0 ::
         :: HOMO-LUMO gap              1.270750976737 eV    ::
         :: SCC energy               -83.727969836981 Eh    ::
         :: -> Gsolv                  -0.056673159909 Eh    ::
         :: repulsion energy           0.798031456952 Eh    ::

    * Orbital Energies and Occupations

         #    Occupation            Energy/Eh            Energy/eV
      -------------------------------------------------------------
         1        2.0000           -0.8760993             -23.8399
       ...           ...                  ...                  ...
        55        2.0000           -0.5013814             -13.6433
        56        2.0000           -0.4978656             -13.5476
        57        2.0000           -0.4960013             -13.4969
        58        2.0000           -0.4874318             -13.2637
        59        2.0000           -0.4858089             -13.2195
        60        2.0000           -0.4762854             -12.9604
        61        2.0000           -0.4606100             -12.5338
        62        2.0000           -0.4551902             -12.3864
        63        2.0000           -0.4518577             -12.2957
        64        2.0000           -0.4460521             -12.1377
        65        2.0000           -0.4402060             -11.9786
        66        2.0000           -0.4306593             -11.7188
        67        2.0000           -0.4245875             -11.5536 (HOMO)
        68                         -0.3778883             -10.2829 (LUMO)
        69                         -0.3043263              -8.2811
        70                         -0.2938289              -7.9955
        71                         -0.2696264              -7.3369
        72                         -0.2538205              -6.9068
        73                         -0.1977870              -5.3821
        74                         -0.1923468              -5.2340
        75                         -0.1522626              -4.1433
        76                         -0.1412313              -3.8431
        77                         -0.1336115              -3.6358
        78                         -0.1186739              -3.2293
       ...                                ...                  ...
       134                          0.7366793              20.0461
      -------------------------------------------------------------
                  HL-Gap            0.0466992 Eh            1.2708 eV

Wiberg/Mayer (AO) data.
largest (>0.10) Wiberg bond orders for each atom

     #   Z sym  total        # sym  WBO       # sym  WBO       # sym  WBO
 ---------------------------------------------------------------------------
     1   6 C    3.838 --    26 H    0.983    27 H    0.980    28 H    0.978
                             2 O    0.858
     2   8 O    2.243 --     3 C    1.181     1 C    0.858     4 O    0.142
     3   6 C    3.851 --     4 O    1.728     2 O    1.181     5 C    0.757
     4   8 O    2.028 --     3 C    1.728     2 O    0.142
     5   6 C    3.967 --    24 C    1.059     7 N    1.030     6 C    0.961
                             3 C    0.757
     6   6 C    3.980 --    31 H    0.984    30 H    0.983    29 H    0.980
                             5 C    0.961
     7   7 N    2.999 --     8 C    1.584     5 C    1.030
     8   6 C    3.943 --     7 N    1.584    21 N    1.254     9 C    0.978
     9   6 C    3.937 --    10 C    0.982     8 C    0.978    11 C    0.977
                            12 N    0.932
    10   6 C    3.990 --    34 H    0.986    32 H    0.984     9 C    0.982
                            33 H    0.982
    11   6 C    3.989 --    35 H    0.986    36 H    0.985    37 H    0.981
                             9 C    0.977
    12   7 N    3.373 --    13 C    1.286     9 C    0.932    38 H    0.874
                            14 O    0.183
    13   6 C    3.921 --    14 O    1.567    12 N    1.286    15 C    0.987
    14   8 O    1.887 --    13 C    1.567    12 N    0.183
    15   6 C    3.870 --    16 N    1.625    20 O    1.048    13 C    0.987
    16   7 N    2.997 --    15 C    1.625    17 N    1.194
    17   7 N    2.980 --    18 C    1.614    16 N    1.194
    18   6 C    3.870 --    17 N    1.614    20 O    1.073    19 C    1.031
    19   6 C    3.987 --    18 C    1.031    41 H    0.983    39 H    0.966
                            40 H    0.962
    20   8 O    2.316 --    18 C    1.073    15 C    1.048
    21   7 N    3.034 --    22 C    1.303     8 C    1.254    23 O    0.162
                            24 C    0.108
    22   6 C    3.934 --    23 O    1.517    21 N    1.303    24 C    0.989
    23   8 O    1.886 --    22 C    1.517    21 N    0.162
    24   6 C    3.788 --    25 O    1.322     5 C    1.059    22 C    0.989
                            21 N    0.108
    25   8 O    2.248 --    24 C    1.322    42 H    0.748
    26   1 H    1.005 --     1 C    0.983
    27   1 H    1.002 --     1 C    0.980
    28   1 H    1.001 --     1 C    0.978
    29   1 H    0.999 --     6 C    0.980
    30   1 H    1.004 --     6 C    0.983
    31   1 H    1.001 --     6 C    0.984
    32   1 H    1.013 --    10 C    0.984
    33   1 H    1.011 --    10 C    0.982
    34   1 H    1.004 --    10 C    0.986
    35   1 H    1.003 --    11 C    0.986
    36   1 H    1.008 --    11 C    0.985
    37   1 H    1.010 --    11 C    0.981
    38   1 H    0.960 --    12 N    0.874
    39   1 H    0.997 --    19 C    0.966
    40   1 H    0.997 --    19 C    0.962
    41   1 H    0.999 --    19 C    0.983
    42   1 H    0.821 --    25 O    0.748
 ---------------------------------------------------------------------------

           -------------------------------------------------
          | TOTAL ENERGY              -82.956354438429 Eh   |
          | GRADIENT NORM               0.000656880438 Eh/α |
          | HOMO-LUMO GAP               1.270750976737 eV   |
           -------------------------------------------------

 * finished run on 2023/06/20 at 18:18:04.433
