                         Program Version 5.0.1 -  RELEASE  -
|  1> # ORCA input file
|  2> ! SP r2SCAN-3c CPCM
|  3>
|  4> %maxcore 1875.0
|  5> %pal nprocs 4 end
|  6> %cpcm smd true SMDsolvent "DMSO" end
|  7>
|  8> *xyz 0 1
|  9> C       6.898622   -0.640344    1.581403
| 10> O       5.651794    0.055174    1.567453
| 11> C       4.722363   -0.412403    0.732512
| 12> O       4.905772   -1.379163    0.020278
| 13> C       3.453254    0.360362    0.745725
| 14> N       2.559146   -0.068049   -0.169198
| 15> C       1.410928    0.528334   -0.309497
| 16> C       0.451782    0.065265   -1.379374
| 17> C       0.549444    1.008065   -2.583189
| 18> C       0.759693   -1.379771   -1.784199
| 19> N      -0.911468    0.149640   -0.852419
| 20> C      -1.238338   -0.428835    0.324728
| 21> O      -0.441508   -0.943307    1.091601
| 22> C      -2.690596   -0.373236    0.607330
| 23> N      -3.290326   -0.895424    1.688788
| 24> N      -4.555502   -0.718925    1.579575
| 25> C      -4.836870   -0.044406    0.340260
| 26> C      -5.677253   -0.937474   -0.576302
| 27> C      -5.499383    1.309914    0.602089
| 28> O      -3.544330    0.154426   -0.241482
| 29> N       1.065930    1.615395    0.426922
| 30> C       1.850304    2.148871    1.433845
| 31> O       1.460718    3.107862    2.071065
| 32> C       3.183252    1.455715    1.642733
| 33> O       3.933936    1.853680    2.530841
| 34> H       6.757327   -1.661631    1.943170
| 35> H       7.557001   -0.091106    2.251479
| 36> H       7.323747   -0.672112    0.575375
| 37> H      -0.149613    0.692466   -3.354637
| 38> H       0.311507    2.026670   -2.283628
| 39> H       1.559973    0.983175   -2.988042
| 40> H       1.771357   -1.433234   -2.183656
| 41> H       0.685782   -2.035417   -0.917462
| 42> H       0.052203   -1.704861   -2.543174
| 43> H      -1.639640    0.490810   -1.454971
| 44> H      -5.154056   -1.876481   -0.743360
| 45> H      -6.637975   -1.130691   -0.105624
| 46> H      -5.827212   -0.431808   -1.526774
| 47> H      -5.615963    1.836897   -0.341395
| 48> H      -4.874251    1.896441    1.272053
| 49> H      -6.473737    1.148737    1.056527
| 50> H       0.182186    2.066515    0.252630
| 51> **                         ****END OF INPUT****

CARTESIAN COORDINATES (ANGSTROEM)
---------------------------------
  C      6.898622   -0.640344    1.581403
  O      5.651794    0.055174    1.567453
  C      4.722363   -0.412403    0.732512
  O      4.905772   -1.379163    0.020278
  C      3.453254    0.360362    0.745725
  N      2.559146   -0.068049   -0.169198
  C      1.410928    0.528334   -0.309497
  C      0.451782    0.065265   -1.379374
  C      0.549444    1.008065   -2.583189
  C      0.759693   -1.379771   -1.784199
  N     -0.911468    0.149640   -0.852419
  C     -1.238338   -0.428835    0.324728
  O     -0.441508   -0.943307    1.091601
  C     -2.690596   -0.373236    0.607330
  N     -3.290326   -0.895424    1.688788
  N     -4.555502   -0.718925    1.579575
  C     -4.836870   -0.044406    0.340260
  C     -5.677253   -0.937474   -0.576302
  C     -5.499383    1.309914    0.602089
  O     -3.544330    0.154426   -0.241482
  N      1.065930    1.615395    0.426922
  C      1.850304    2.148871    1.433845
  O      1.460718    3.107862    2.071065
  C      3.183252    1.455715    1.642733
  O      3.933936    1.853680    2.530841
  H      6.757327   -1.661631    1.943170
  H      7.557001   -0.091106    2.251479
  H      7.323747   -0.672112    0.575375
  H     -0.149613    0.692466   -3.354637
  H      0.311507    2.026670   -2.283628
  H      1.559973    0.983175   -2.988042
  H      1.771357   -1.433234   -2.183656
  H      0.685782   -2.035417   -0.917462
  H      0.052203   -1.704861   -2.543174
  H     -1.639640    0.490810   -1.454971
  H     -5.154056   -1.876481   -0.743360
  H     -6.637975   -1.130691   -0.105624
  H     -5.827212   -0.431808   -1.526774
  H     -5.615963    1.836897   -0.341395
  H     -4.874251    1.896441    1.272053
  H     -6.473737    1.148737    1.056527
  H      0.182186    2.066515    0.252630

 Total Charge           Charge          ....    0
 Multiplicity           Mult            ....    1
 Number of Electrons    NEL             ....  184
 Basis Dimension        Dim             ....  615

ORBITAL ENERGIES
----------------

  NO   OCC          E(Eh)            E(eV)
   0   2.0000     -19.062117      -518.7066
   1   2.0000     -18.993709      -516.8451
   2   2.0000     -18.949862      -515.6520
   3   2.0000     -18.943174      -515.4700
   4   2.0000     -18.930000      -515.1115
   5   2.0000     -18.929769      -515.1052
   6   2.0000     -14.234423      -387.3384
   7   2.0000     -14.229760      -387.2115
   8   2.0000     -14.228716      -387.1831
   9   2.0000     -14.210826      -386.6962
  10   2.0000     -14.170765      -385.6061
  11   2.0000     -10.174085      -276.8509
  12   2.0000     -10.167424      -276.6697
  13   2.0000     -10.154433      -276.3162
  14   2.0000     -10.153366      -276.2871
  15   2.0000     -10.148241      -276.1477
  16   2.0000     -10.133268      -275.7402
  17   2.0000     -10.113534      -275.2033
  18   2.0000     -10.108767      -275.0735
  19   2.0000     -10.089696      -274.5546
  20   2.0000     -10.072786      -274.0944
  21   2.0000     -10.041880      -273.2535
  22   2.0000     -10.041054      -273.2310
  23   2.0000     -10.031343      -272.9667
  24   2.0000     -10.020564      -272.6734
  25   2.0000      -1.151248       -31.3271
  26   2.0000      -1.069517       -29.1030
  27   2.0000      -1.039375       -28.2828
  28   2.0000      -1.033784       -28.1307
  29   2.0000      -1.007707       -27.4211
  30   2.0000      -0.989422       -26.9235
  31   2.0000      -0.977801       -26.6073
  32   2.0000      -0.968970       -26.3670
  33   2.0000      -0.922122       -25.0922
  34   2.0000      -0.883344       -24.0370
  35   2.0000      -0.838813       -22.8253
  36   2.0000      -0.786278       -21.3957
  37   2.0000      -0.733927       -19.9712
  38   2.0000      -0.721844       -19.6424
  39   2.0000      -0.693335       -18.8666
  40   2.0000      -0.683196       -18.5907
  41   2.0000      -0.669115       -18.2076
  42   2.0000      -0.663639       -18.0585
  43   2.0000      -0.644178       -17.5290
  44   2.0000      -0.629558       -17.1312
  45   2.0000      -0.609970       -16.5981
  46   2.0000      -0.596112       -16.2210
  47   2.0000      -0.567331       -15.4379
  48   2.0000      -0.546937       -14.8829
  49   2.0000      -0.540125       -14.6976
  50   2.0000      -0.526309       -14.3216
  51   2.0000      -0.504076       -13.7166
  52   2.0000      -0.496975       -13.5234
  53   2.0000      -0.493940       -13.4408
  54   2.0000      -0.461478       -12.5574
  55   2.0000      -0.453845       -12.3498
  56   2.0000      -0.449536       -12.2325
  57   2.0000      -0.439113       -11.9489
  58   2.0000      -0.435613       -11.8536
  59   2.0000      -0.432769       -11.7762
  60   2.0000      -0.428969       -11.6728
  61   2.0000      -0.422154       -11.4874
  62   2.0000      -0.412806       -11.2330
  63   2.0000      -0.409749       -11.1498
  64   2.0000      -0.397460       -10.8154
  65   2.0000      -0.390521       -10.6266
  66   2.0000      -0.389309       -10.5936
  67   2.0000      -0.382433       -10.4065
  68   2.0000      -0.378337       -10.2951
  69   2.0000      -0.376176       -10.2363
  70   2.0000      -0.375328       -10.2132
  71   2.0000      -0.374004       -10.1772
  72   2.0000      -0.362930        -9.8758
  73   2.0000      -0.356085        -9.6896
  74   2.0000      -0.353096        -9.6082
  75   2.0000      -0.348435        -9.4814
  76   2.0000      -0.342006        -9.3065
  77   2.0000      -0.340410        -9.2630
  78   2.0000      -0.339152        -9.2288
  79   2.0000      -0.336669        -9.1612
  80   2.0000      -0.327344        -8.9075
  81   2.0000      -0.318685        -8.6719
  82   2.0000      -0.280643        -7.6367
  83   2.0000      -0.276824        -7.5328
  84   2.0000      -0.270360        -7.3569
  85   2.0000      -0.268652        -7.3104
  86   2.0000      -0.263022        -7.1572
  87   2.0000      -0.255368        -6.9489
  88   2.0000      -0.252677        -6.8757
  89   2.0000      -0.237719        -6.4687
  90   2.0000      -0.208862        -5.6834
  91   2.0000      -0.182430        -4.9642
  92   0.0000      -0.185297        -5.0422
  93   0.0000      -0.081856        -2.2274
  94   0.0000      -0.077619        -2.1121
  95   0.0000      -0.035812        -0.9745
  96   0.0000       0.018451         0.5021

MULLIKEN ATOMIC CHARGES
-----------------------
   0 C :   -0.316736
   1 O :   -0.145903
   2 C :    0.149286
   3 O :   -0.409743
   4 C :    0.148233
   5 N :   -0.122396
   6 C :    0.201395
   7 C :    0.061585
   8 C :   -0.532568
   9 C :   -0.595340
  10 N :   -0.171436
  11 C :   -0.098326
  12 O :   -0.414674
  13 C :    0.460748
  14 N :   -0.073972
  15 N :   -0.143845
  16 C :    0.108230
  17 C :   -0.457814
  18 C :   -0.468611
  19 O :   -0.053895
  20 N :   -0.013913
  21 C :    0.075264
  22 O :   -0.360791
  23 C :    0.004910
  24 O :   -0.318086
  25 H :    0.173240
  26 H :    0.173953
  27 H :    0.172490
  28 H :    0.193209
  29 H :    0.191894
  30 H :    0.198967
  31 H :    0.190235
  32 H :    0.194427
  33 H :    0.187337
  34 H :    0.323357
  35 H :    0.185726
  36 H :    0.200981
  37 H :    0.197018
  38 H :    0.196396
  39 H :    0.185688
  40 H :    0.199388
  41 H :    0.324093
Sum of atomic charges:    0.0000000

LOEWDIN ATOMIC CHARGES
----------------------
   0 C :   -0.041265
   1 O :   -0.576723
   2 C :    0.392940
   3 O :   -0.426421
   4 C :    0.219811
   5 N :   -0.542807
   6 C :    0.369873
   7 C :    0.104572
   8 C :   -0.333847
   9 C :   -0.342267
  10 N :   -0.567232
  11 C :    0.375396
  12 O :   -0.421589
  13 C :    0.471281
  14 N :   -0.281381
  15 N :   -0.297020
  16 C :    0.261348
  17 C :   -0.302205
  18 C :   -0.304620
  19 O :   -0.426555
  20 N :   -0.433513
  21 C :    0.379052
  22 O :   -0.404523
  23 C :    0.260128
  24 O :   -0.458536
  25 H :    0.180176
  26 H :    0.183759
  27 H :    0.181266
  28 H :    0.177545
  29 H :    0.175982
  30 H :    0.180368
  31 H :    0.179293
  32 H :    0.180049
  33 H :    0.170437
  34 H :    0.302587
  35 H :    0.181780
  36 H :    0.188024
  37 H :    0.182993
  38 H :    0.182854
  39 H :    0.181510
  40 H :    0.187491
  41 H :    0.309988

  Mayer bond orders larger than 0.100000
B(  0-C ,  1-O ) :   0.8370 B(  0-C , 25-H ) :   0.9547 B(  0-C , 26-H ) :   0.9656
B(  0-C , 27-H ) :   0.9569 B(  1-O ,  2-C ) :   1.1640 B(  2-C ,  3-O ) :   1.8956
B(  2-C ,  4-C ) :   1.0630 B(  4-C ,  5-N ) :   1.0355 B(  4-C , 23-C ) :   0.9505
B(  4-C , 24-O ) :  -0.1089 B(  5-N ,  6-C ) :   1.6173 B(  6-C ,  7-C ) :   0.7828
B(  6-C , 12-O ) :   0.1139 B(  6-C , 20-N ) :   1.0946 B(  7-C ,  8-C ) :   0.9390
B(  7-C ,  9-C ) :   0.9261 B(  7-C , 10-N ) :   0.7679 B(  8-C , 28-H ) :   0.9592
B(  8-C , 29-H ) :   0.9512 B(  8-C , 30-H ) :   0.9625 B(  9-C , 31-H ) :   0.9602
B(  9-C , 32-H ) :   0.9602 B(  9-C , 33-H ) :   0.9699 B( 10-N , 11-C ) :   1.1556
B( 10-N , 34-H ) :   0.8893 B( 11-C , 12-O ) :   1.8074 B( 11-C , 13-C ) :   0.9073
B( 11-C , 15-N ) :   0.1169 B( 13-C , 14-N ) :   1.3080 B( 13-C , 19-O ) :   1.1754
B( 14-N , 15-N ) :   1.5933 B( 15-N , 16-C ) :   0.8029 B( 16-C , 17-C ) :   0.9572
B( 16-C , 18-C ) :   0.9570 B( 16-C , 19-O ) :   0.7330 B( 17-C , 35-H ) :   0.9334
B( 17-C , 36-H ) :   0.9460 B( 17-C , 37-H ) :   0.9564 B( 18-C , 38-H ) :   0.9562
B( 18-C , 39-H ) :   0.9375 B( 18-C , 40-H ) :   0.9440 B( 20-N , 21-C ) :   0.9670
B( 20-N , 41-H ) :   0.8800 B( 21-C , 22-O ) :   2.0550 B( 21-C , 23-C ) :   0.8769
B( 23-C , 24-O ) :   1.8996

Dispersion correction           -0.018728214
FINAL SINGLE POINT ENERGY     -1268.580448356835

DIPOLE MOMENT
-------------
                                X             Y             Z
Electronic contribution:     10.05381       3.99457      12.55229
Nuclear contribution   :    -16.22535      -3.46237     -17.39546
                        -----------------------------------------
Total Dipole Moment    :     -6.17154       0.53220      -4.84317
                        -----------------------------------------
Magnitude (a.u.)       :      7.86305
Magnitude (Debye)      :     19.98627

Rotational constants in cm-1:     0.016637     0.003390     0.003204
Rotational constants in MHz :   498.772645   101.634121    96.066058

                             ****ORCA TERMINATED NORMALLY****
TOTAL RUN TIME: 0 days 0 hours 11 minutes 9 seconds 851 msec
