   * xtb version 6.5.1 (579679a) compiled by 'ehlert@majestix' on 2022-07-11
          program call               : /lustre/hpc/kemi/ree/PhD/git/ReactivityQM/dep/xtb-6.5.1/bin/xtb --gfn 1 /lustre/hpc/kemi/ree/PhD/git/ReactivityQM/calculations/R02methylcation/reac01prodN13/conf13/R02methylcation_reac01prodN13_conf13_gfn1.xyz --opt --vfukui --chrg 0 --uhf 0 --alpb DMSO

   ID    Z sym.   atoms
    1    6 C      1, 3, 5, 7-10, 12, 14, 17-19, 22, 24
    2    8 O      2, 4, 13, 20, 23, 25
    3    7 N      6, 11, 15, 16, 21
    4    1 H      26-42

      * Solvation model:               ALPB
        Solvent                        DMSO
        Solvent mass                       7.8130E+01 g/mol
          :  Hamiltonian                  GFN1-xTB          :
 * total energy  :   -82.9281357 Eh     change       -0.4094147E-10 Eh
 * total energy  :   -82.9382662 Eh     change       -0.1013052E-01 Eh
 * total energy  :   -82.9422328 Eh     change       -0.3966632E-02 Eh
 * total energy  :   -82.9429632 Eh     change       -0.7303450E-03 Eh
 * total energy  :   -82.9435775 Eh     change       -0.6143430E-03 Eh
 * total energy  :   -82.9439906 Eh     change       -0.4130672E-03 Eh
 * total energy  :   -82.9443169 Eh     change       -0.3263155E-03 Eh
 * total energy  :   -82.9445289 Eh     change       -0.2120004E-03 Eh
 * total energy  :   -82.9446599 Eh     change       -0.1310291E-03 Eh
 * total energy  :   -82.9447439 Eh     change       -0.8398397E-04 Eh
 * total energy  :   -82.9463700 Eh     change       -0.5122499E-04 Eh
 * total energy  :   -82.9464143 Eh     change       -0.4434207E-04 Eh
 * total energy  :   -82.9464453 Eh     change       -0.3100407E-04 Eh
 * total energy  :   -82.9464685 Eh     change       -0.2315077E-04 Eh
 * total energy  :   -82.9464944 Eh     change       -0.2592675E-04 Eh
 * total energy  :   -82.9465059 Eh     change       -0.1153569E-04 Eh
 * total energy  :   -82.9465258 Eh     change       -0.1991020E-04 Eh
 * total energy  :   -82.9465334 Eh     change       -0.7518861E-05 Eh
 * total energy  :   -82.9465376 Eh     change       -0.4235616E-05 Eh
   *** GEOMETRY OPTIMIZATION CONVERGED AFTER 45 ITERATIONS ***

 final structure:
================
42
 xtb: 6.5.1 (579679a)
C            6.89862188449008       -0.64034410161810        1.58140319299254
O            5.65179373743301        0.05517429691330        1.56745260214488
C            4.72236272238257       -0.41240323335541        0.73251211596925
O            4.90577209486881       -1.37916259476417        0.02027805694948
C            3.45325393937063        0.36036229020426        0.74572544577525
N            2.55914625199518       -0.06804883062718       -0.16919830261010
C            1.41092754063819        0.52833397999687       -0.30949719078343
C            0.45178244817397        0.06526488643615       -1.37937400046434
C            0.54944409085527        1.00806466990059       -2.58318872281561
C            0.75969276513884       -1.37977074214443       -1.78419867407523
N           -0.91146849928292        0.14964045311442       -0.85241921942597
C           -1.23833798508541       -0.42883509815559        0.32472831703814
O           -0.44150781236890       -0.94330749235527        1.09160118951687
C           -2.69059649825962       -0.37323593025506        0.60732981222088
N           -3.29032601908360       -0.89542422877420        1.68878849264532
N           -4.55550235649165       -0.71892509959900        1.57957539656250
C           -4.83687011131297       -0.04440601348279        0.34026043218474
C           -5.67725285319505       -0.93747400722130       -0.57630232789447
C           -5.49938302414434        1.30991366556565        0.60208891177454
O           -3.54432963367228        0.15442647134893       -0.24148164942249
N            1.06592970926380        1.61539480082401        0.42692187764586
C            1.85030351813942        2.14887125216403        1.43384541300524
O            1.46071810241867        3.10786165551948        2.07106464227459
C            3.18325194436441        1.45571489522705        1.64273329340636
O            3.93393552273945        1.85367990625370        2.53084099587988
H            6.75732746545594       -1.66163124963141        1.94316971115943
H            7.55700052915131       -0.09110550506581        2.25147936566403
H            7.32374711928041       -0.67211213591983        0.57537462810260
H           -0.14961320529417        0.69246603344027       -3.35463724597113
H            0.31150656663840        2.02666965054226       -2.28362842128639
H            1.55997261834824        0.98317533852510       -2.98804218683887
H            1.77135724053693       -1.43323366265632       -2.18365642155776
H            0.68578170288050       -2.03541745805408       -0.91746163404120
H            0.05220266441604       -1.70486142560832       -2.54317364699864
H           -1.63964039670960        0.49081032526546       -1.45497089878081
H           -5.15405557094465       -1.87648063048292       -0.74335958388097
H           -6.63797520041439       -1.13069103644427       -0.10562431120189
H           -5.82721172967187       -0.43180796411521       -1.52677443675093
H           -5.61596270717722        1.83689719677173       -0.34139507522211
H           -4.87425136183364        1.89644088089532        1.27205328905626
H           -6.47373722636324        1.14873671506229        1.05652672528847
H            0.18218601230917        2.06651507633323        0.25263004277013

          :  Hamiltonian                  GFN1-xTB          :
         :: total energy             -82.946537588663 Eh    ::
         :: gradient norm              0.000642502583 Eh/a0 ::
         :: HOMO-LUMO gap              0.058367856208 eV    ::
         :: SCC energy               -83.713449645475 Eh    ::
         :: -> Gsolv                  -0.081267326763 Eh    ::
         :: repulsion energy           0.792887123086 Eh    ::

    * Orbital Energies and Occupations

         #    Occupation            Energy/Eh            Energy/eV
      -------------------------------------------------------------
         1        2.0000           -0.8800478             -23.9473
       ...           ...                  ...                  ...
        55        2.0000           -0.5160111             -14.0414
        56        2.0000           -0.5117630             -13.9258
        57        2.0000           -0.5073728             -13.8063
        58        2.0000           -0.5027788             -13.6813
        59        2.0000           -0.4917585             -13.3814
        60        2.0000           -0.4865280             -13.2391
        61        2.0000           -0.4837979             -13.1648
        62        2.0000           -0.4750884             -12.9278
        63        2.0000           -0.4721501             -12.8479
        64        2.0000           -0.4661485             -12.6845
        65        2.0000           -0.4583381             -12.4720
        66        2.0000           -0.4242091             -11.5433
        67        1.5113           -0.4069102             -11.0726 (HOMO)
        68        0.4887           -0.4047653             -11.0142 (LUMO)
        69                         -0.3219946              -8.7619
        70                         -0.3101338              -8.4392
        71                         -0.2832052              -7.7064
        72                         -0.2356694              -6.4129
        73                         -0.2218067              -6.0357
        74                         -0.1575291              -4.2866
        75                         -0.1421406              -3.8678
        76                         -0.1387021              -3.7743
        77                         -0.1366762              -3.7191
        78                         -0.1349575              -3.6724
       ...                                ...                  ...
       134                          0.7455732              20.2881
      -------------------------------------------------------------
                  HL-Gap            0.0021450 Eh            0.0584 eV

Wiberg/Mayer (AO) data.
largest (>0.10) Wiberg bond orders for each atom

     #   Z sym  total        # sym  WBO       # sym  WBO       # sym  WBO
 ---------------------------------------------------------------------------
     1   6 C    3.875 --    27 H    0.986    28 H    0.979    26 H    0.979
                             2 O    0.902
     2   8 O    2.193 --     3 C    1.108     1 C    0.902     4 O    0.132
     3   6 C    3.841 --     4 O    1.633     2 O    1.108     5 C    1.022
     4   8 O    1.878 --     3 C    1.633     2 O    0.132
     5   6 C    3.717 --     6 N    1.302    24 C    1.161     3 C    1.022
     6   7 N    2.981 --     7 C    1.469     5 C    1.302
     7   6 C    3.797 --     6 N    1.469    21 N    1.191     8 C    0.983
     8   6 C    3.928 --    10 C    0.983     7 C    0.983     9 C    0.977
                            11 N    0.923
     9   6 C    3.978 --    30 H    0.984    31 H    0.983    29 H    0.981
                             8 C    0.977
    10   6 C    3.983 --    34 H    0.985     8 C    0.983    32 H    0.982
                            33 H    0.982
    11   7 N    3.331 --    12 C    1.245     8 C    0.923    35 H    0.886
                            13 O    0.186
    12   6 C    3.910 --    13 O    1.578    11 N    1.245    14 C    0.999
    13   8 O    1.876 --    12 C    1.578    11 N    0.186
    14   6 C    3.633 --    15 N    1.315    20 O    1.169    12 C    0.999
    15   7 N    3.000 --    16 N    1.543    14 C    1.315
    16   7 N    2.687 --    15 N    1.543    17 C    1.023
    17   6 C    3.834 --    16 N    1.023    19 C    0.940    18 C    0.938
                            20 O    0.871
    18   6 C    3.937 --    36 H    0.982    37 H    0.982    38 H    0.980
                            17 C    0.938
    19   6 C    3.938 --    40 H    0.982    41 H    0.982    39 H    0.980
                            17 C    0.940
    20   8 O    2.196 --    14 C    1.169    17 C    0.871
    21   7 N    3.432 --     7 C    1.191    22 C    1.111    42 H    0.883
                            23 O    0.113
    22   6 C    3.841 --    23 O    1.650    21 N    1.111    24 C    0.948
    23   8 O    1.872 --    22 C    1.650    21 N    0.113
    24   6 C    3.863 --    25 O    1.614     5 C    1.161    22 C    0.948
    25   8 O    1.790 --    24 C    1.614
    26   1 H    1.007 --     1 C    0.979
    27   1 H    1.011 --     1 C    0.986
    28   1 H    1.008 --     1 C    0.979
    29   1 H    0.995 --     9 C    0.981
    30   1 H    0.997 --     9 C    0.984
    31   1 H    0.998 --     9 C    0.983
    32   1 H    1.008 --    10 C    0.982
    33   1 H    1.006 --    10 C    0.982
    34   1 H    1.000 --    10 C    0.985
    35   1 H    0.926 --    11 N    0.886
    36   1 H    0.996 --    18 C    0.982
    37   1 H    0.997 --    18 C    0.982
    38   1 H    0.996 --    18 C    0.980
    39   1 H    0.996 --    19 C    0.980
    40   1 H    0.996 --    19 C    0.982
    41   1 H    0.997 --    19 C    0.982
    42   1 H    0.931 --    21 N    0.883
 ---------------------------------------------------------------------------

           -------------------------------------------------
          | TOTAL ENERGY              -82.946537588663 Eh   |
          | GRADIENT NORM               0.000642502583 Eh/α |
          | HOMO-LUMO GAP               0.058367856208 eV   |
           -------------------------------------------------

 * finished run on 2023/06/21 at 17:46:48.509
