   * xtb version 6.5.1 (579679a) compiled by 'ehlert@majestix' on 2022-07-11
          program call               : /lustre/hpc/kemi/ree/PhD/git/ReactivityQM/dep/xtb-6.5.1/bin/xtb --gfn 1 /lustre/hpc/kemi/ree/PhD/git/ReactivityQM/calculations/R02methylcation/reac01prodN08/conf17/R02methylcation_reac01prodN08_conf17_gfn1.xyz --opt --vfukui --chrg 0 --uhf 0 --alpb DMSO

   ID    Z sym.   atoms
    1    6 C      1, 3, 5, 7-10, 12, 14, 17, 18, 21, 23, 25
    2    8 O      2, 4, 13, 19, 22, 24
    3    7 N      6, 11, 15, 16, 20
    4    1 H      26-42

      * Solvation model:               ALPB
        Solvent                        DMSO
        Solvent mass                       7.8130E+01 g/mol
          :  Hamiltonian                  GFN1-xTB          :
 * total energy  :   -82.9995968 Eh     change       -0.1105604E-10 Eh
 * total energy  :   -83.0129201 Eh     change       -0.1332333E-01 Eh
 * total energy  :   -83.0171304 Eh     change       -0.4210273E-02 Eh
 * total energy  :   -83.0181558 Eh     change       -0.1025423E-02 Eh
 * total energy  :   -83.0188539 Eh     change       -0.6980851E-03 Eh
 * total energy  :   -83.0192815 Eh     change       -0.4276204E-03 Eh
 * total energy  :   -83.0195918 Eh     change       -0.3102713E-03 Eh
 * total energy  :   -83.0198026 Eh     change       -0.2107934E-03 Eh
 * total energy  :   -83.0199281 Eh     change       -0.1255210E-03 Eh
 * total energy  :   -83.0199844 Eh     change       -0.5629679E-04 Eh
 * total energy  :   -83.0205240 Eh     change       -0.1647032E-04 Eh
 * total energy  :   -83.0205445 Eh     change       -0.2046947E-04 Eh
 * total energy  :   -83.0205624 Eh     change       -0.1789760E-04 Eh
 * total energy  :   -83.0205720 Eh     change       -0.9596492E-05 Eh
 * total energy  :   -83.0205772 Eh     change       -0.5211201E-05 Eh
 * total energy  :   -83.0205831 Eh     change       -0.5932676E-05 Eh
 * total energy  :   -83.0205908 Eh     change       -0.7701401E-05 Eh
 * total energy  :   -83.0205961 Eh     change       -0.5216757E-05 Eh
 * total energy  :   -83.0205983 Eh     change       -0.2216437E-05 Eh
   *** GEOMETRY OPTIMIZATION CONVERGED AFTER 39 ITERATIONS ***

 final structure:
================
42
 xtb: 6.5.1 (579679a)
C           -4.99347583935718        2.51616853194755        1.24249819955025
O           -3.83082467392851        1.70911925113588        1.04115158002112
C           -3.93559546214803        0.73750681751453        0.12965435685630
O           -4.95062536873721        0.53128438963796       -0.49410568300463
C           -2.66388455192509       -0.03317168302961       -0.00511135626075
N           -1.64670716066987        0.37639709462550        0.81650341664315
C           -0.50936342325966       -0.22554776515746        0.76843988669538
C            0.60839552903280        0.18705500984663        1.70093530504528
C            0.68644389380827       -0.84774954415821        2.83444051052353
C            0.34094880326173        1.59204541648144        2.24864292309034
N            1.85544515892498        0.17786579701218        0.92766039306022
C            3.06307019795279        0.44792480884281        1.47231252273627
O            3.27693471644833        0.65728301598229        2.65379375968783
C            4.14988879635495        0.44755065470570        0.46163094916865
N            5.41166316513234        0.67852965232447        0.65035693024503
N            6.01914056584460        0.56280112797767       -0.56357633347713
C            5.09102017323277        0.26772244700105       -1.41968237169820
C            5.23719742746756        0.02946932822920       -2.87190047428326
O            3.88410644791349        0.18137189990274       -0.83626445742091
N           -0.29224161573438       -1.28170758026858       -0.06608479848025
C           -1.22894053032413       -1.78787601948774       -0.94495833886749
O           -0.94367501049655       -2.73867765098126       -1.65754667234087
C           -2.51081440897550       -1.07810773487585       -0.89160103834011
O           -3.53852057255087       -1.42177081426666       -1.67558991107885
C           -3.46266714016839       -2.46474972382765       -2.64736224866192
H           -5.83747550794280        1.89295464404855        1.54820800553772
H           -5.24949769575726        3.04297928774802        0.31985675406137
H           -4.74652907109570        3.22915916076141        2.02644524303644
H           -0.27864762527159       -0.90568186416747        3.33570903069637
H            1.44574081703193       -0.55808810990886        3.55821472176826
H            0.93519477562661       -1.82588860594927        2.42709504194913
H           -0.61418632174827        1.59871176559441        2.77123818785759
H            0.29902880105078        2.30731911197647        1.42882929114286
H            1.13079218300255        1.88001283258693        2.93965188154509
H            1.79120543153078        0.13338797968996       -0.07553505689271
H            5.00132558894572       -1.00977137990885       -3.10245778126500
H            6.25768896106857        0.24605858795997       -3.17911333362255
H            4.54242619734800        0.66137701956790       -3.42341404424974
H            0.60384857460303       -1.74508268275822       -0.07403457497823
H           -2.68433226886983       -2.25898298665288       -3.38527085578956
H           -3.27571978196555       -3.43129685576012       -2.17414154420803
H           -4.43778317466817       -2.47790263192935       -3.13648501600930

          :  Hamiltonian                  GFN1-xTB          :
         :: total energy             -83.020598276136 Eh    ::
         :: gradient norm              0.000458391567 Eh/a0 ::
         :: HOMO-LUMO gap              2.756497113886 eV    ::
         :: SCC energy               -83.804974991795 Eh    ::
         :: -> Gsolv                  -0.057465030145 Eh    ::
         :: repulsion energy           0.809358999961 Eh    ::

    * Orbital Energies and Occupations

         #    Occupation            Energy/Eh            Energy/eV
      -------------------------------------------------------------
         1        2.0000           -0.8661181             -23.5683
       ...           ...                  ...                  ...
        55        2.0000           -0.5054616             -13.7543
        56        2.0000           -0.5021500             -13.6642
        57        2.0000           -0.4960237             -13.4975
        58        2.0000           -0.4850306             -13.1984
        59        2.0000           -0.4832749             -13.1506
        60        2.0000           -0.4803817             -13.0719
        61        2.0000           -0.4672616             -12.7148
        62        2.0000           -0.4617737             -12.5655
        63        2.0000           -0.4576328             -12.4528
        64        2.0000           -0.4521794             -12.3044
        65        2.0000           -0.4502039             -12.2507
        66        2.0000           -0.4472448             -12.1702
        67        2.0000           -0.4270476             -11.6206 (HOMO)
        68                         -0.3257482              -8.8641 (LUMO)
        69                         -0.3120189              -8.4905
        70                         -0.2855003              -7.7689
        71                         -0.2570502              -6.9947
        72                         -0.2407072              -6.5500
        73                         -0.1997382              -5.4352
        74                         -0.1613858              -4.3915
        75                         -0.1418844              -3.8609
        76                         -0.1374209              -3.7394
        77                         -0.1310218              -3.5653
        78                         -0.1284617              -3.4956
       ...                                ...                  ...
       134                          0.7345048              19.9869
      -------------------------------------------------------------
                  HL-Gap            0.1012994 Eh            2.7565 eV

Wiberg/Mayer (AO) data.
largest (>0.10) Wiberg bond orders for each atom

     #   Z sym  total        # sym  WBO       # sym  WBO       # sym  WBO
 ---------------------------------------------------------------------------
     1   6 C    3.873 --    28 H    0.986    26 H    0.979    27 H    0.979
                             2 O    0.900
     2   8 O    2.196 --     3 C    1.107     1 C    0.900     4 O    0.134
     3   6 C    3.852 --     4 O    1.660     2 O    1.107     5 C    1.003
     4   8 O    1.923 --     3 C    1.660     2 O    0.134
     5   6 C    3.963 --    23 C    1.478     6 N    1.186     3 C    1.003
     6   7 N    3.028 --     7 C    1.587     5 C    1.186
     7   6 C    3.931 --     6 N    1.587    20 N    1.168     8 C    0.981
     8   6 C    3.934 --    10 C    0.991     7 C    0.981     9 C    0.975
                            11 N    0.923
     9   6 C    3.987 --    29 H    0.985    31 H    0.985    30 H    0.977
                             8 C    0.975
    10   6 C    3.988 --     8 C    0.991    33 H    0.985    32 H    0.983
                            34 H    0.982
    11   7 N    3.337 --    12 C    1.247     8 C    0.923    35 H    0.893
                            13 O    0.174
    12   6 C    3.915 --    13 O    1.592    11 N    1.247    14 C    0.993
    13   8 O    1.908 --    12 C    1.592    11 N    0.174
    14   6 C    3.872 --    15 N    1.623    19 O    1.046    12 C    0.993
    15   7 N    3.000 --    14 C    1.623    16 N    1.199
    16   7 N    2.982 --    17 C    1.610    15 N    1.199
    17   6 C    3.868 --    16 N    1.610    19 O    1.072    18 C    1.032
    18   6 C    3.986 --    17 C    1.032    37 H    0.982    38 H    0.966
                            36 H    0.960
    19   8 O    2.316 --    17 C    1.072    14 C    1.046
    20   7 N    3.464 --     7 C    1.168    21 C    1.127    39 H    0.882
                            22 O    0.132
    21   6 C    3.908 --    22 O    1.579    20 N    1.127    23 C    1.065
    22   8 O    1.905 --    21 C    1.579    20 N    0.132
    23   6 C    3.919 --     5 C    1.478    24 O    1.104    21 C    1.065
    24   8 O    2.201 --    23 C    1.104    25 C    0.896
    25   6 C    3.871 --    42 H    0.984    40 H    0.979    41 H    0.978
                            24 O    0.896
    26   1 H    1.008 --     1 C    0.979
    27   1 H    1.007 --     1 C    0.979
    28   1 H    1.011 --     1 C    0.986
    29   1 H    1.001 --     9 C    0.985
    30   1 H    1.009 --     9 C    0.977
    31   1 H    1.001 --     9 C    0.985
    32   1 H    1.010 --    10 C    0.983
    33   1 H    1.004 --    10 C    0.985
    34   1 H    1.007 --    10 C    0.982
    35   1 H    0.937 --    11 N    0.893
    36   1 H    0.996 --    18 C    0.960
    37   1 H    0.998 --    18 C    0.982
    38   1 H    0.997 --    18 C    0.966
    39   1 H    0.928 --    20 N    0.882
    40   1 H    1.014 --    25 C    0.979
    41   1 H    1.015 --    25 C    0.978
    42   1 H    1.012 --    25 C    0.984
 ---------------------------------------------------------------------------

           -------------------------------------------------
          | TOTAL ENERGY              -83.020598276136 Eh   |
          | GRADIENT NORM               0.000458391567 Eh/α |
          | HOMO-LUMO GAP               2.756497113886 eV   |
           -------------------------------------------------

 * finished run on 2023/06/21 at 17:39:12.986
