   * xtb version 6.5.1 (579679a) compiled by 'ehlert@majestix' on 2022-07-11
          program call               : /lustre/hpc/kemi/ree/PhD/git/ReactivityQM/dep/xtb-6.5.1/bin/xtb --gfn 1 /lustre/hpc/kemi/ree/PhD/git/ReactivityQM/calculations/R02deprot/reac01prodN13/conf06/R02deprot_reac01prodN13_conf06_gfn1.xyz --opt --vfukui --chrg 0 --uhf 0 --alpb DMSO

   ID    Z sym.   atoms
    1    6 C      1, 3, 5, 7-10, 12, 14, 15, 18, 19, 22, 24
    2    8 O      2, 4, 13, 20, 23, 25
    3    7 N      6, 11, 16, 17, 21
    4    1 H      26-42

      * Solvation model:               ALPB
        Solvent                        DMSO
        Solvent mass                       7.8130E+01 g/mol
          :  Hamiltonian                  GFN1-xTB          :
 * total energy  :   -82.9241577 Eh     change       -0.1868585E-09 Eh
 * total energy  :   -82.9352420 Eh     change       -0.1108436E-01 Eh
 * total energy  :   -82.9391537 Eh     change       -0.3911682E-02 Eh
 * total energy  :   -82.9399663 Eh     change       -0.8126130E-03 Eh
 * total energy  :   -82.9406786 Eh     change       -0.7123338E-03 Eh
 * total energy  :   -82.9410222 Eh     change       -0.3435335E-03 Eh
 * total energy  :   -82.9412488 Eh     change       -0.2266496E-03 Eh
 * total energy  :   -82.9413926 Eh     change       -0.1437625E-03 Eh
 * total energy  :   -82.9414824 Eh     change       -0.8985141E-04 Eh
 * total energy  :   -82.9415460 Eh     change       -0.6356030E-04 Eh
 * total energy  :   -82.9422499 Eh     change       -0.2239318E-04 Eh
 * total energy  :   -82.9422640 Eh     change       -0.1411161E-04 Eh
 * total energy  :   -82.9422754 Eh     change       -0.1143396E-04 Eh
 * total energy  :   -82.9422890 Eh     change       -0.1362431E-04 Eh
 * total energy  :   -82.9423009 Eh     change       -0.1189494E-04 Eh
 * total energy  :   -82.9423128 Eh     change       -0.1184857E-04 Eh
 * total energy  :   -82.9423242 Eh     change       -0.1140801E-04 Eh
 * total energy  :   -82.9423349 Eh     change       -0.1075907E-04 Eh
 * total energy  :   -82.9423398 Eh     change       -0.4858305E-05 Eh
   *** GEOMETRY OPTIMIZATION CONVERGED AFTER 44 ITERATIONS ***

 final structure:
================
42
 xtb: 6.5.1 (579679a)
C            6.06432435043496        1.46961790648341       -0.98687528577898
O            4.74019708297297        1.01752635400019       -0.70005920860064
C            4.60319117160877        0.22050080657773        0.36591975852579
O            5.53881642558102       -0.11335901960586        1.05786692928159
C            3.18729459764826       -0.18853734393161        0.58133839056920
N            2.27567623056627        0.26278736798813       -0.31586731498352
C            1.01011463520452       -0.08620097686740       -0.14448789365435
C            0.04030533328574        0.45302835442726       -1.18457110179724
C           -0.02601460689736        1.98058873213635       -1.08361266897747
C            0.48184892272831        0.00728303605438       -2.58086182977646
N           -1.27139802822916       -0.11718110422259       -0.85052017129138
C           -2.35645434466422        0.02357754054679       -1.57158414916083
O           -2.51325558926979        0.58128306190142       -2.63109909624853
C           -3.63553091254460       -0.67494988107253       -0.87100929428831
C           -4.74506364276846       -0.80837111386271       -1.90255658058700
N           -3.22283096139910       -1.89049937887625       -0.28529226108279
N           -3.27352565232451       -1.77758603218078        0.99959436904844
C           -3.75045070922914       -0.55687548264844        1.29293409681580
C           -3.96409599647678       -0.01359029861059        2.63949763317296
O           -4.00444150765472        0.14095689420315        0.22109838100694
N            0.51256493081678       -0.83810572028457        0.82208100596589
C            1.35635211047534       -1.33842889397292        1.76850778362643
O            0.99846910257988       -2.05484789985533        2.70948584970559
C            2.77721334994898       -0.98521536328998        1.62957485988160
O            3.59118244263802       -1.48296670359301        2.56376047493876
H            6.47040091112779        2.01631159760873       -0.13188866521262
H            6.71326707633039        0.61929190552402       -1.21159448421582
H            5.99005508025372        2.12531858686999       -1.85208537291947
H           -0.68945821756133        2.38116428306145       -1.84830587433141
H            0.97416433075407        2.38843358293209       -1.22332648171329
H           -0.39591937480860        2.27213568108254       -0.10201839899059
H           -0.15479034869382        0.44982841599203       -3.34468311538325
H            1.50965721373820        0.33173643561742       -2.73974114791818
H            0.43543553504014       -1.07788291309303       -2.66027741331441
H           -1.28224001145670       -0.63486904788855        0.02876362930048
H           -4.96173852160354        0.17292327238547       -2.31853911299575
H           -5.63337326932020       -1.21386143675614       -1.42507098792143
H           -4.41050399244148       -1.47473757912272       -2.69389632732184
H           -3.14040820819824        0.65914388792460        2.88997747035381
H           -3.99838340765554       -0.81737230781510        3.37106026538052
H           -4.88289864304841        0.57057492920328        2.66250788187203
H            3.04224411250068       -1.99857513496822        3.18856745902084

          :  Hamiltonian                  GFN1-xTB          :
         :: total energy             -82.942339792708 Eh    ::
         :: gradient norm              0.000607878846 Eh/a0 ::
         :: HOMO-LUMO gap              0.086701988763 eV    ::
         :: SCC energy               -83.707942348137 Eh    ::
         :: -> Gsolv                  -0.058120059125 Eh    ::
         :: repulsion energy           0.792229910576 Eh    ::

    * Orbital Energies and Occupations

         #    Occupation            Energy/Eh            Energy/eV
      -------------------------------------------------------------
         1        2.0000           -0.8967556             -24.4020
       ...           ...                  ...                  ...
        55        2.0000           -0.5088315             -13.8460
        56        2.0000           -0.5023072             -13.6685
        57        2.0000           -0.5003026             -13.6139
        58        2.0000           -0.4910355             -13.3618
        59        2.0000           -0.4883573             -13.2889
        60        2.0000           -0.4793593             -13.0440
        61        2.0000           -0.4742224             -12.9042
        62        2.0000           -0.4694032             -12.7731
        63        2.0000           -0.4689951             -12.7620
        64        2.0000           -0.4538754             -12.3506
        65        2.0000           -0.4381487             -11.9226
        66        1.9993           -0.4090800             -11.1316
        67        1.6853           -0.4030532             -10.9676 (HOMO)
        68        0.3153           -0.3998669             -10.8809 (LUMO)
        69                         -0.3019339              -8.2160
        70                         -0.2982529              -8.1159
        71                         -0.2751403              -7.4869
        72                         -0.2628246              -7.1518
        73                         -0.2176050              -5.9213
        74                         -0.1609463              -4.3796
        75                         -0.1420631              -3.8657
        76                         -0.1380316              -3.7560
        77                         -0.1349438              -3.6720
        78                         -0.1241828              -3.3792
       ...                                ...                  ...
       134                          0.7397263              20.1290
      -------------------------------------------------------------
                  HL-Gap            0.0031862 Eh            0.0867 eV

Wiberg/Mayer (AO) data.
largest (>0.10) Wiberg bond orders for each atom

     #   Z sym  total        # sym  WBO       # sym  WBO       # sym  WBO
 ---------------------------------------------------------------------------
     1   6 C    3.877 --    28 H    0.986    27 H    0.980    26 H    0.980
                             2 O    0.903
     2   8 O    2.193 --     3 C    1.102     1 C    0.903     4 O    0.131
     3   6 C    3.842 --     4 O    1.655     2 O    1.102     5 C    1.003
     4   8 O    1.913 --     3 C    1.655     2 O    0.131
     5   6 C    3.929 --    24 C    1.419     6 N    1.263     3 C    1.003
     6   7 N    2.895 --     7 C    1.392     5 C    1.263
     7   6 C    3.925 --    21 N    1.414     6 N    1.392     8 C    0.971
     8   6 C    3.913 --    10 C    0.987     9 C    0.981     7 C    0.971
                            11 N    0.897
     9   6 C    3.988 --    31 H    0.986    30 H    0.983    29 H    0.983
                             8 C    0.981
    10   6 C    3.988 --     8 C    0.987    34 H    0.986    33 H    0.981
                            32 H    0.981
    11   7 N    3.405 --    12 C    1.385     8 C    0.897    35 H    0.857
                            13 O    0.186
    12   6 C    3.879 --    13 O    1.628    11 N    1.385    14 C    0.749
    13   8 O    1.995 --    12 C    1.628    11 N    0.186
    14   6 C    3.834 --    16 N    1.094    15 C    0.946    20 O    0.902
                            12 C    0.749
    15   6 C    3.946 --    38 H    0.980    37 H    0.980    36 H    0.977
                            14 C    0.946
    16   7 N    2.795 --    17 N    1.499    14 C    1.094
    17   7 N    2.974 --    16 N    1.499    18 C    1.311
    18   6 C    3.734 --    17 N    1.311    20 O    1.207    19 C    1.055
    19   6 C    3.972 --    18 C    1.055    40 H    0.974    41 H    0.957
                            39 H    0.930
    20   8 O    2.276 --    18 C    1.207    14 C    0.902
    21   7 N    2.989 --     7 C    1.414    22 C    1.196
    22   6 C    3.891 --    23 O    1.527    21 N    1.196    24 C    1.047
    23   8 O    1.787 --    22 C    1.527
    24   6 C    3.794 --     5 C    1.419    25 O    1.119    22 C    1.047
    25   8 O    2.055 --    24 C    1.119    42 H    0.805
    26   1 H    1.008 --     1 C    0.980
    27   1 H    1.008 --     1 C    0.980
    28   1 H    1.012 --     1 C    0.986
    29   1 H    1.002 --     9 C    0.983
    30   1 H    1.007 --     9 C    0.983
    31   1 H    1.002 --     9 C    0.986
    32   1 H    1.006 --    10 C    0.981
    33   1 H    1.010 --    10 C    0.981
    34   1 H    1.002 --    10 C    0.986
    35   1 H    0.963 --    11 N    0.857
    36   1 H    1.001 --    15 C    0.977
    37   1 H    0.994 --    15 C    0.980
    38   1 H    0.998 --    15 C    0.980
    39   1 H    0.979 --    19 C    0.930
    40   1 H    0.991 --    19 C    0.974
    41   1 H    0.986 --    19 C    0.957
    42   1 H    0.855 --    25 O    0.805
 ---------------------------------------------------------------------------

           -------------------------------------------------
          | TOTAL ENERGY              -82.942339792708 Eh   |
          | GRADIENT NORM               0.000607878846 Eh/α |
          | HOMO-LUMO GAP               0.086701988763 eV   |
           -------------------------------------------------

 * finished run on 2023/06/20 at 18:20:55.466
