   * xtb version 6.5.1 (579679a) compiled by 'ehlert@majestix' on 2022-07-11
          program call               : /lustre/hpc/kemi/ree/PhD/git/ReactivityQM/dep/xtb-6.5.1/bin/xtb --gfn 1 /lustre/hpc/kemi/ree/PhD/git/ReactivityQM/calculations/R02oxygendeprot/reac01prodN15/conf19/R02oxygendeprot_reac01prodN15_conf19_gfn1.xyz --opt --vfukui --chrg 0 --uhf 0 --alpb DMSO

   ID    Z sym.   atoms
    1    6 C      1, 3, 5, 7-10, 12, 14, 17, 18, 21, 23, 24
    2    8 O      2, 4, 13, 19, 22, 25
    3    7 N      6, 11, 15, 16, 20
    4    1 H      26-42

      * Solvation model:               ALPB
        Solvent                        DMSO
        Solvent mass                       7.8130E+01 g/mol
          :  Hamiltonian                  GFN1-xTB          :
 * total energy  :   -82.8947192 Eh     change       -0.6026823E-10 Eh
 * total energy  :   -82.9148107 Eh     change       -0.2009151E-01 Eh
 * total energy  :   -82.9333151 Eh     change       -0.1850440E-01 Eh
 * total energy  :   -82.9527109 Eh     change       -0.1939578E-01 Eh
 * total energy  :   -82.9778990 Eh     change       -0.2518808E-01 Eh
 * total energy  :   -82.8914937 Eh     change        0.8640530E-01 Eh
 * total energy  :   -82.9968253 Eh     change       -0.1053316E+00 Eh
 * total energy  :   -82.9989183 Eh     change       -0.2093011E-02 Eh
 * total energy  :   -83.0015802 Eh     change       -0.2661941E-02 Eh
 * total energy  :   -83.0025653 Eh     change       -0.9850969E-03 Eh
 * total energy  :   -83.0056821 Eh     change        0.9797448E-04 Eh
 * total energy  :   -83.0058369 Eh     change       -0.1548306E-03 Eh
 * total energy  :   -83.0058460 Eh     change       -0.9073058E-05 Eh
 * total energy  :   -83.0058646 Eh     change       -0.1867384E-04 Eh
 * total energy  :   -83.0058857 Eh     change       -0.2109990E-04 Eh
 * total energy  :   -83.0058868 Eh     change       -0.1036875E-05 Eh
 * total energy  :   -83.0058987 Eh     change       -0.1189333E-04 Eh
 * total energy  :   -83.0059131 Eh     change       -0.1445644E-04 Eh
 * total energy  :   -83.0059176 Eh     change       -0.4457080E-05 Eh
   *** GEOMETRY OPTIMIZATION CONVERGED AFTER 64 ITERATIONS ***

 final structure:
================
42
 xtb: 6.5.1 (579679a)
C           -5.88934078602680        1.39527665851516        1.11635675876636
O           -4.55795034684084        0.90115945616868        1.32041734872513
C           -3.85592333327150        0.62090270649704        0.23616322047732
O           -4.26057108002048        0.74753710660853       -0.89147291469414
C           -2.46240379793272        0.09392784208719        0.54452046685394
N           -1.57769600450170        0.27918559927368       -0.54240065681070
C           -0.46286388213934       -0.33594830831221       -0.55213619461757
C            0.51601783086965       -0.09956340403611       -1.68391087195569
C            0.21230124160972        1.23264306717241       -2.37561857766682
C            0.39577752099333       -1.27460325629735       -2.66698774674149
N            1.86091791165060       -0.06846064339095       -1.09974170087319
C            2.97942257753927        0.09584036488862       -1.84043119244495
O            3.01939993306988        0.15579342463704       -3.05724588246822
C            4.20425352160350        0.19098169007960       -1.00763380533922
N            5.42207023161822        0.38073266717955       -1.41007673692238
N            6.20549635666923        0.40847508886234       -0.29582312461645
C            5.41804888530582        0.23413095776718        0.71926288955868
C            5.78296584799157        0.18015718584623        2.15135623019975
O            4.13757556536106        0.09185307114256        0.33823998608484
N           -0.11891061106928       -1.31267574453308        0.36120051005223
C           -1.01625259595521       -1.86732801021562        1.24426552947249
O           -0.83437780009326       -2.96106112867820        1.73344242160991
C           -2.22654520958279       -1.02512436007101        1.51972046494754
C           -3.31896786897310       -1.70914727545066        2.30580179651000
O           -1.94160393930773        0.31865770770621        1.81913249782885
H           -5.86027269289163        2.30367802922395        0.51155283944577
H           -6.29441861081974        1.60558455585291        2.10323211664654
H           -6.49124362937160        0.63865185419846        0.60921454712400
H            0.88740381657906        1.37812295027786       -3.21660766325764
H           -0.81451898084955        1.22495019821871       -2.73786310022296
H            0.33273838470678        2.05349753637451       -1.67054542630035
H            1.05518766333355       -1.11952389164237       -3.51866343021691
H           -0.63160155706504       -1.34506129089335       -3.02077320880897
H            0.66615217777949       -2.20525851942609       -2.17200572584063
H            1.94172370721858       -0.01174910866250       -0.09801519710490
H            5.58618149533028       -0.81681416709861        2.54681493135720
H            5.18027536600867        0.89066708299038        2.71591642917476
H            6.83761600432782        0.41543299652556        2.27004942253652
H            0.70869283087559       -1.86316870468925        0.18725588144094
H           -2.87034917965395       -2.23419713721316        3.14909586673755
H           -3.83001839088570       -2.43600937471136        1.67689249108646
H           -4.03438857318829       -0.98145347276853        2.67804951026192

          :  Hamiltonian                  GFN1-xTB          :
         :: total energy             -83.005917572649 Eh    ::
         :: gradient norm              0.000757477378 Eh/a0 ::
         :: HOMO-LUMO gap              3.708197456362 eV    ::
         :: SCC energy               -83.778241296809 Eh    ::
         :: -> Gsolv                  -0.054290213283 Eh    ::
         :: repulsion energy           0.797751114825 Eh    ::

    * Orbital Energies and Occupations

         #    Occupation            Energy/Eh            Energy/eV
      -------------------------------------------------------------
         1        2.0000           -0.8665750             -23.5807
       ...           ...                  ...                  ...
        55        2.0000           -0.5073273             -13.8051
        56        2.0000           -0.5060518             -13.7704
        57        2.0000           -0.5050744             -13.7438
        58        2.0000           -0.5028942             -13.6844
        59        2.0000           -0.4815962             -13.1049
        60        2.0000           -0.4782963             -13.0151
        61        2.0000           -0.4689064             -12.7596
        62        2.0000           -0.4669066             -12.7052
        63        2.0000           -0.4648015             -12.6479
        64        2.0000           -0.4611884             -12.5496
        65        2.0000           -0.4528510             -12.3227
        66        2.0000           -0.4499904             -12.2449
        67        2.0000           -0.4487140             -12.2101 (HOMO)
        68                         -0.3124403              -8.5019 (LUMO)
        69                         -0.3027305              -8.2377
        70                         -0.2889447              -7.8626
        71                         -0.2596722              -7.0660
        72                         -0.2575323              -7.0078
        73                         -0.2001626              -5.4467
        74                         -0.1426081              -3.8806
        75                         -0.1425820              -3.8799
        76                         -0.1324409              -3.6039
        77                         -0.1296523              -3.5280
        78                         -0.1243050              -3.3825
       ...                                ...                  ...
       134                          0.7277972              19.8044
      -------------------------------------------------------------
                  HL-Gap            0.1362737 Eh            3.7082 eV

Wiberg/Mayer (AO) data.
largest (>0.10) Wiberg bond orders for each atom

     #   Z sym  total        # sym  WBO       # sym  WBO       # sym  WBO
 ---------------------------------------------------------------------------
     1   6 C    3.859 --    27 H    0.985    26 H    0.980    28 H    0.980
                             2 O    0.883
     2   8 O    2.227 --     3 C    1.142     1 C    0.883     4 O    0.142
     3   6 C    3.851 --     4 O    1.688     2 O    1.142     5 C    0.937
     4   8 O    1.940 --     3 C    1.688     2 O    0.142
     5   6 C    3.869 --     6 N    1.027     3 C    0.937    25 O    0.907
                            23 C    0.833
     6   7 N    3.026 --     7 C    1.712     5 C    1.027
     7   6 C    3.928 --     6 N    1.712    20 N    1.108     8 C    0.979
     8   6 C    3.934 --     9 C    0.991     7 C    0.979    10 C    0.975
                            11 N    0.924
     9   6 C    3.988 --     8 C    0.991    31 H    0.985    30 H    0.983
                            29 H    0.982
    10   6 C    3.987 --    33 H    0.985    34 H    0.984    32 H    0.977
                             8 C    0.975
    11   7 N    3.339 --    12 C    1.247     8 C    0.924    35 H    0.893
                            13 O    0.174
    12   6 C    3.915 --    13 O    1.591    11 N    1.247    14 C    0.993
    13   8 O    1.908 --    12 C    1.591    11 N    0.174
    14   6 C    3.872 --    15 N    1.623    19 O    1.046    12 C    0.993
    15   7 N    3.000 --    14 C    1.623    16 N    1.199
    16   7 N    2.982 --    17 C    1.611    15 N    1.199
    17   6 C    3.868 --    16 N    1.611    19 O    1.072    18 C    1.032
    18   6 C    3.986 --    17 C    1.032    38 H    0.982    37 H    0.965
                            36 H    0.960
    19   8 O    2.315 --    17 C    1.072    14 C    1.046
    20   7 N    3.416 --    21 C    1.140     7 C    1.108    39 H    0.884
                            22 O    0.126
    21   6 C    3.893 --    22 O    1.657    20 N    1.140    23 C    0.980
    22   8 O    1.936 --    21 C    1.657    20 N    0.126
    23   6 C    3.861 --    24 C    1.002    21 C    0.980    25 O    0.895
                             5 C    0.833
    24   6 C    3.985 --    23 C    1.002    42 H    0.980    41 H    0.980
                            40 H    0.974
    25   8 O    1.967 --     5 C    0.907    23 C    0.895
    26   1 H    1.005 --     1 C    0.980
    27   1 H    1.008 --     1 C    0.985
    28   1 H    1.005 --     1 C    0.980
    29   1 H    1.008 --     9 C    0.982
    30   1 H    1.010 --     9 C    0.983
    31   1 H    1.003 --     9 C    0.985
    32   1 H    1.009 --    10 C    0.977
    33   1 H    1.001 --    10 C    0.985
    34   1 H    1.001 --    10 C    0.984
    35   1 H    0.937 --    11 N    0.893
    36   1 H    0.996 --    18 C    0.960
    37   1 H    0.997 --    18 C    0.965
    38   1 H    0.998 --    18 C    0.982
    39   1 H    0.929 --    20 N    0.884
    40   1 H    1.002 --    24 C    0.974
    41   1 H    1.000 --    24 C    0.980
    42   1 H    1.008 --    24 C    0.980
 ---------------------------------------------------------------------------

           -------------------------------------------------
          | TOTAL ENERGY              -83.005917572649 Eh   |
          | GRADIENT NORM               0.000757477378 Eh/α |
          | HOMO-LUMO GAP               3.708197456362 eV   |
           -------------------------------------------------

 * finished run on 2023/06/21 at 17:35:37.174
