   * xtb version 6.5.1 (579679a) compiled by 'ehlert@majestix' on 2022-07-11
          program call               : /lustre/hpc/kemi/ree/PhD/git/ReactivityQM/dep/xtb-6.5.1/bin/xtb --gfn 1 /lustre/hpc/kemi/ree/PhD/git/ReactivityQM/calculations/RaltegravirCLI/reac02prodE04/conf17/RaltegravirCLI_reac02prodE04_conf17_gfn1.xyz --opt --vfukui --chrg -1 --uhf 0 --alpb DMSO

   ID    Z sym.   atoms
    1    6 C      1, 3, 5, 7-9, 12-16, 18, 19, 21-24
    2    7 N      2, 11, 20, 25
    3    8 O      4, 6, 10
    4    9 F      17
    5    1 H      26-47

      * Solvation model:               ALPB
        Solvent                        DMSO
        Solvent mass                       7.8130E+01 g/mol
          :  Hamiltonian                  GFN1-xTB          :
 * total energy  :   -80.1890272 Eh     change       -0.3737455E-11 Eh
 * total energy  :   -80.2032664 Eh     change       -0.1423918E-01 Eh
 * total energy  :   -80.2067252 Eh     change       -0.3458818E-02 Eh
 * total energy  :   -80.2071876 Eh     change       -0.4623947E-03 Eh
 * total energy  :   -80.2075198 Eh     change       -0.3321710E-03 Eh
 * total energy  :   -80.2076179 Eh     change       -0.9816164E-04 Eh
 * total energy  :   -80.2077175 Eh     change       -0.9951084E-04 Eh
 * total energy  :   -80.2077886 Eh     change       -0.7110028E-04 Eh
 * total energy  :   -80.2078683 Eh     change       -0.7975017E-04 Eh
 * total energy  :   -80.2079465 Eh     change       -0.7821934E-04 Eh
 * total energy  :   -80.2104095 Eh     change       -0.1401637E-04 Eh
 * total energy  :   -80.2104235 Eh     change       -0.1402072E-04 Eh
 * total energy  :   -80.2104370 Eh     change       -0.1347984E-04 Eh
 * total energy  :   -80.2104502 Eh     change       -0.1320052E-04 Eh
 * total energy  :   -80.2104633 Eh     change       -0.1310967E-04 Eh
 * total energy  :   -80.2104749 Eh     change       -0.1154661E-04 Eh
 * total energy  :   -80.2104852 Eh     change       -0.1029376E-04 Eh
 * total energy  :   -80.2104948 Eh     change       -0.9614740E-05 Eh
 * total energy  :   -80.2104995 Eh     change       -0.4682359E-05 Eh
   *** GEOMETRY OPTIMIZATION CONVERGED AFTER 68 ITERATIONS ***

 final structure:
================
47
 xtb: 6.5.1 (579679a)
C           -3.66748238443728       -1.81799965816088        1.07348531841484
N           -2.63049561591013       -1.29879868646575        0.19276584110240
C           -1.56816525474561       -2.24397681465617       -0.16418206475506
O           -1.72626318011415       -3.47025507558778        0.12679357259414
C           -0.53231970297695       -1.69363608079747       -0.84458739209127
O            0.57406555109839       -2.51319306203185       -1.22361196412219
C           -0.34407024650649       -0.22267034220842       -1.04282365294879
C            0.29692947531466        0.11148415089848       -2.40506658822816
C            0.57402533560569        0.31927323000339        0.08589954368572
O            0.24415605522698        1.19041489130614        0.88388607112247
N            1.78689364744847       -0.28946154006226        0.14591023936522
C            2.68474195412820       -0.07050205648819        1.26568962246360
C            4.10590258380666        0.16245108492991        0.80896978843810
C            4.37696290483605        0.72699223186671       -0.43533836672283
C            5.68453393356638        0.94946325938559       -0.84348936840933
C            6.70858397139218        0.60103443834026        0.01808952665269
F            7.97973488520900        0.81257602693236       -0.36868669073137
C            6.47787443284529        0.04115986269360        1.26141908790809
C            5.16374670970454       -0.17696633472850        1.65070329221296
N           -1.62020961382052        0.47229136423758       -0.96560510379458
C           -2.62117674104133       -0.04577034769379       -0.34306533137025
C           -3.84980716649332        0.87190396198509       -0.24687504802581
C           -4.00240135829103        1.40554541600640        1.18426046748341
C           -3.66842256074770        2.06812004014025       -1.19873285967476
N           -5.06822308694733        0.14838487690771       -0.62318224568222
H           -3.57744369100523       -2.90736109915347        1.10443933935080
H           -4.66456027032249       -1.56147709736442        0.71555015109892
H           -3.54034222812101       -1.43391335280250        2.09111012291134
H            0.34477705171745       -3.41346005787125       -0.94598737791365
H           -0.36093151487949       -0.22879374531731       -3.20460686572578
H            0.43431371733523        1.18869306622500       -2.49781775353519
H            1.26167843560565       -0.38259024313832       -2.50695606570158
H            1.95065991984905       -1.12125316768954       -0.40530061617708
H            2.65280322597771       -0.92848839599584        1.94892806873161
H            2.32568060690893        0.80995363611512        1.81475975867656
H            3.55737869079716        0.98793172832661       -1.09662137874652
H            5.90787293502870        1.38343623671359       -1.80937768314076
H            7.30652288878752       -0.21999205848039        1.90589869882830
H            4.96361908782052       -0.61807842471023        2.62061503189644
H           -3.05722084319050        1.83012582381087        1.52422573909109
H           -4.30270857456711        0.61718218824873        1.87179058943560
H           -4.76454551043836        2.18417274797490        1.21011308245684
H           -2.80589295619206        2.66507130914607       -0.90251184491453
H           -3.51367614573624        1.71792541267658       -2.21879243223912
H           -4.55988141264233        2.69353711150391       -1.17311922505675
H           -5.86568000167914        0.74267495911960       -0.44884376051754
H           -5.05153593921662       -0.04316141406501       -1.61672327369458

          :  Hamiltonian                  GFN1-xTB          :
         :: total energy             -80.210499450292 Eh    ::
         :: gradient norm              0.000233663193 Eh/a0 ::
         :: HOMO-LUMO gap              0.875528096959 eV    ::
         :: SCC energy               -81.071767369243 Eh    ::
         :: -> Gsolv                  -0.109755304885 Eh    ::
         :: repulsion energy           0.892292843310 Eh    ::

    * Orbital Energies and Occupations

         #    Occupation            Energy/Eh            Energy/eV
      -------------------------------------------------------------
         1        2.0000           -0.8594312             -23.3863
       ...           ...                  ...                  ...
        56        2.0000           -0.4617335             -12.5644
        57        2.0000           -0.4540398             -12.3551
        58        2.0000           -0.4467067             -12.1555
        59        2.0000           -0.4449602             -12.1080
        60        2.0000           -0.4389477             -11.9444
        61        2.0000           -0.4309305             -11.7262
        62        2.0000           -0.4181458             -11.3783
        63        2.0000           -0.4098827             -11.1535
        64        2.0000           -0.3941980             -10.7267
        65        2.0000           -0.3755594             -10.2195
        66        2.0000           -0.3722554             -10.1296
        67        2.0000           -0.3606174              -9.8129
        68        2.0000           -0.3008183              -8.1857 (HOMO)
        69                         -0.2686432              -7.3102 (LUMO)
        70                         -0.2595479              -7.0627
        71                         -0.2173011              -5.9131
        72                         -0.2065733              -5.6211
        73                         -0.1393639              -3.7923
        74                         -0.1247704              -3.3952
        75                         -0.1149390              -3.1276
        76                         -0.1114804              -3.0335
        77                         -0.1029197              -2.8006
        78                         -0.1015007              -2.7620
        79                         -0.0969034              -2.6369
       ...                                ...                  ...
       144                          0.6952363              18.9183
      -------------------------------------------------------------
                  HL-Gap            0.0321751 Eh            0.8755 eV

Wiberg/Mayer (AO) data.
largest (>0.10) Wiberg bond orders for each atom

     #   Z sym  total        # sym  WBO       # sym  WBO       # sym  WBO
 ---------------------------------------------------------------------------
     1   6 C    3.959 --    28 H    0.981    27 H    0.976    26 H    0.974
                             2 N    0.958
     2   7 N    3.368 --    21 C    1.199     1 C    0.958     3 C    0.902
                            20 N    0.169
     3   6 C    3.920 --     5 C    1.543     4 O    1.340     2 N    0.902
     4   8 O    1.706 --     3 C    1.340     5 C    0.176
     5   6 C    3.777 --     3 C    1.543     7 C    0.980     6 O    0.926
                             4 O    0.176
     6   8 O    1.930 --     5 C    0.926    29 H    0.855
     7   6 C    3.969 --     5 C    0.980    20 N    0.979     8 C    0.974
                             9 C    0.911
     8   6 C    3.997 --    31 H    0.988    32 H    0.986    30 H    0.985
                             7 C    0.974
     9   6 C    3.867 --    10 O    1.591    11 N    1.230     7 C    0.911
    10   8 O    1.869 --     9 C    1.591    11 N    0.150
    11   7 N    3.309 --     9 C    1.230    12 C    0.958    33 H    0.896
                            10 O    0.150
    12   6 C    3.960 --    13 C    1.003    34 H    0.969    11 N    0.958
                            35 H    0.957
    13   6 C    3.988 --    14 C    1.415    19 C    1.414    12 C    1.003
    14   6 C    3.994 --    15 C    1.443    13 C    1.415    36 H    0.970
                            18 C    0.110
    15   6 C    3.992 --    14 C    1.443    16 C    1.402    37 H    0.970
                            19 C    0.110
    16   6 C    3.859 --    15 C    1.402    18 C    1.401    17 F    0.920
    17   9 F    1.046 --    16 C    0.920
    18   6 C    3.992 --    19 C    1.445    16 C    1.401    38 H    0.970
                            14 C    0.110
    19   6 C    3.994 --    18 C    1.445    13 C    1.414    39 H    0.972
                            15 C    0.110
    20   7 N    2.976 --    21 C    1.645     7 C    0.979     2 N    0.169
    21   6 C    3.947 --    20 N    1.645     2 N    1.199    22 C    0.964
    22   6 C    3.963 --    24 C    0.992    23 C    0.991    25 N    0.975
                            21 C    0.964
    23   6 C    3.996 --    22 C    0.991    40 H    0.986    42 H    0.985
                            41 H    0.982
    24   6 C    3.997 --    22 C    0.992    45 H    0.987    44 H    0.985
                            43 H    0.983
    25   7 N    2.989 --    22 C    0.975    46 H    0.949    47 H    0.948
    26   1 H    1.026 --     1 C    0.974
    27   1 H    1.035 --     1 C    0.976
    28   1 H    1.014 --     1 C    0.981
    29   1 H    0.893 --     6 O    0.855
    30   1 H    1.015 --     8 C    0.985
    31   1 H    1.011 --     8 C    0.988
    32   1 H    1.013 --     8 C    0.986
    33   1 H    0.964 --    11 N    0.896
    34   1 H    1.005 --    12 C    0.969
    35   1 H    1.018 --    12 C    0.957
    36   1 H    1.009 --    14 C    0.970
    37   1 H    0.999 --    15 C    0.970
    38   1 H    0.998 --    18 C    0.970
    39   1 H    1.000 --    19 C    0.972
    40   1 H    1.008 --    23 C    0.986
    41   1 H    1.009 --    23 C    0.982
    42   1 H    1.004 --    23 C    0.985
    43   1 H    1.022 --    24 C    0.983
    44   1 H    1.018 --    24 C    0.985
    45   1 H    1.007 --    24 C    0.987
    46   1 H    0.964 --    25 N    0.949
    47   1 H    0.965 --    25 N    0.948
 ---------------------------------------------------------------------------

           -------------------------------------------------
          | TOTAL ENERGY              -80.210499450292 Eh   |
          | GRADIENT NORM               0.000233663193 Eh/α |
          | HOMO-LUMO GAP               0.875528096959 eV   |
           -------------------------------------------------

 * finished run on 2023/06/20 at 15:00:07.144
