   * xtb version 6.5.1 (579679a) compiled by 'ehlert@majestix' on 2022-07-11
          program call               : /lustre/hpc/kemi/ree/PhD/git/ReactivityQM/dep/xtb-6.5.1/bin/xtb --gfn 1 /lustre/hpc/kemi/ree/PhD/git/ReactivityQM/calculations/R01/reac02prodN07/conf02/R01_reac02prodN07_conf02_gfn1.xyz --opt --vfukui --chrg 1 --uhf 0 --alpb DMSO

   ID    Z sym.   atoms
    1    6 C      1, 3, 5, 6, 8, 11-15
    2    8 O      2, 4, 7, 9
    3    7 N      10, 16, 17
    4    1 H      18-33

      * Solvation model:               ALPB
        Solvent                        DMSO
        Solvent mass                       7.8130E+01 g/mol
          :  Hamiltonian                  GFN1-xTB          :
 * total energy  :   -57.7891960 Eh     change       -0.1055795E-09 Eh
 * total energy  :   -57.8033401 Eh     change       -0.1414408E-01 Eh
 * total energy  :   -57.8086593 Eh     change       -0.5319166E-02 Eh
 * total energy  :   -57.8099304 Eh     change       -0.1271177E-02 Eh
 * total energy  :   -57.8113030 Eh     change       -0.1372556E-02 Eh
 * total energy  :   -57.8122867 Eh     change       -0.9836721E-03 Eh
 * total energy  :   -57.8135896 Eh     change       -0.1302953E-02 Eh
 * total energy  :   -57.8150356 Eh     change       -0.1445997E-02 Eh
 * total energy  :   -57.8161586 Eh     change       -0.1122952E-02 Eh
 * total energy  :   -57.8176268 Eh     change       -0.1468199E-02 Eh
 * total energy  :   -57.8680079 Eh     change       -0.2067521E-04 Eh
 * total energy  :   -57.8680202 Eh     change       -0.1228458E-04 Eh
 * total energy  :   -57.8680334 Eh     change       -0.1318718E-04 Eh
 * total energy  :   -57.8680413 Eh     change       -0.7851989E-05 Eh
 * total energy  :   -57.8680498 Eh     change       -0.8517370E-05 Eh
 * total energy  :   -57.8680571 Eh     change       -0.7357250E-05 Eh
 * total energy  :   -57.8680648 Eh     change       -0.7645075E-05 Eh
 * total energy  :   -57.8680713 Eh     change       -0.6535426E-05 Eh
 * total energy  :   -57.8680756 Eh     change       -0.4322785E-05 Eh
   *** GEOMETRY OPTIMIZATION CONVERGED AFTER 146 ITERATIONS ***

 final structure:
================
33
 xtb: 6.5.1 (579679a)
C            2.12768079295511        2.69427829177305        0.00048055484163
O            1.49990082013653        1.40624255309479        0.07025969133105
C            2.30850912707630        0.39134332141813        0.41244070305712
O            3.48237749183853        0.54769871356224        0.64534317345397
C            1.59894220373830       -0.91585948808642        0.46725003126201
C            2.23869445760691       -2.08450294781031        0.78355132752006
O            3.53888249564597       -2.17202370739466        1.07134842002579
C            1.49699364150630       -3.34438117311411        0.82032322471831
O            2.01179006638283       -4.41564108828616        1.09664695359065
N            0.16369660751149       -3.21130211112584        0.51479935127389
C           -0.41673476755533       -2.01545910221127        0.21215155298381
C           -1.87500883242736       -2.03924891892238       -0.09657774831996
C           -2.01068770212975        1.72137137483334       -0.65458622140995
C           -1.52016290350893        1.82731317237131        0.73223189357787
C           -1.05462666851868        1.42536853973788       -1.73812685619789
N           -3.26655222714722        1.86549250744610       -0.91517761958093
N            0.24915219682072       -0.90835865106281        0.18390099539142
H            2.50832837062449        2.97713700433107        0.98493770030465
H            1.36159968345901        3.39459181037958       -0.32352979667881
H            2.94993724537061        2.67100036548797       -0.71886305112902
H            3.76242708039578       -3.10194341234050        1.26106253131573
H           -0.39752945752333       -4.04834025802881        0.52111040236983
H           -2.06523207984345       -2.66783110594628       -0.96693959801271
H           -2.43441651883876       -2.44743375178229        0.74516310762946
H           -2.22270015355957       -1.03065065439303       -0.30232290479941
H           -0.90526456943962        0.94959893390895        0.95233596933658
H           -0.86310728434404        2.69515775109251        0.81434953292936
H           -2.33125647527846        1.91503656422492        1.45094139139017
H           -0.36387783185956        2.26380017903802       -1.84555877899517
H           -0.45134556227673        0.56077123437979       -1.44474962016183
H           -1.55179247418133        1.23939819990040       -2.68698281290434
H           -3.62729523643629        1.79193382170645       -1.85244403130135
H           -3.94131653612984        2.06544403188624       -0.19476946877686

          :  Hamiltonian                  GFN1-xTB          :
         :: total energy             -57.868075631830 Eh    ::
         :: gradient norm              0.000694807016 Eh/a0 ::
         :: HOMO-LUMO gap              2.288013615074 eV    ::
         :: SCC energy               -58.482646029037 Eh    ::
         :: -> Gsolv                  -0.124465955130 Eh    ::
         :: repulsion energy           0.633408078229 Eh    ::

    * Orbital Energies and Occupations

         #    Occupation            Energy/Eh            Energy/eV
      -------------------------------------------------------------
         1        2.0000           -0.8701006             -23.6766
       ...           ...                  ...                  ...
        35        2.0000           -0.5570990             -15.1594
        36        2.0000           -0.5493153             -14.9476
        37        2.0000           -0.5465177             -14.8715
        38        2.0000           -0.5448639             -14.8265
        39        2.0000           -0.5412185             -14.7273
        40        2.0000           -0.5289094             -14.3924
        41        2.0000           -0.5240072             -14.2590
        42        2.0000           -0.5064231             -13.7805
        43        2.0000           -0.4960400             -13.4979
        44        2.0000           -0.4931114             -13.4182
        45        2.0000           -0.4719305             -12.8419
        46        2.0000           -0.4604080             -12.5283
        47        2.0000           -0.4391583             -11.9501 (HOMO)
        48                         -0.3550753              -9.6621 (LUMO)
        49                         -0.3321577              -9.0385
        50                         -0.2919782              -7.9451
        51                         -0.2482224              -6.7545
        52                         -0.1741864              -4.7399
        53                         -0.1663763              -4.5273
        54                         -0.1652554              -4.4968
        55                         -0.1631729              -4.4402
        56                         -0.1524250              -4.1477
        57                         -0.1425928              -3.8801
        58                         -0.1188720              -3.2347
       ...                                ...                  ...
       100                          0.7349753              19.9997
      -------------------------------------------------------------
                  HL-Gap            0.0840830 Eh            2.2880 eV

Wiberg/Mayer (AO) data.
largest (>0.10) Wiberg bond orders for each atom

     #   Z sym  total        # sym  WBO       # sym  WBO       # sym  WBO
 ---------------------------------------------------------------------------
     1   6 C    3.867 --    19 H    0.985    18 H    0.979    20 H    0.979
                             2 O    0.893
     2   8 O    2.194 --     3 C    1.089     1 C    0.893     4 O    0.130
     3   6 C    3.850 --     4 O    1.671     2 O    1.089     5 C    1.007
     4   8 O    1.937 --     3 C    1.671     2 O    0.130
     5   6 C    3.962 --     6 C    1.504    17 N    1.164     3 C    1.007
     6   6 C    3.921 --     5 C    1.504     7 O    1.117     8 C    1.057
     7   8 O    2.095 --     6 C    1.117    21 H    0.805
     8   6 C    3.910 --     9 O    1.587    10 N    1.136     6 C    1.057
     9   8 O    1.910 --     8 C    1.587    10 N    0.133
    10   7 N    3.464 --    11 C    1.172     8 C    1.136    22 H    0.877
                             9 O    0.133
    11   6 C    3.930 --    17 N    1.573    10 N    1.172    12 C    1.026
    12   6 C    3.989 --    11 C    1.026    25 H    0.984    24 H    0.964
                            23 H    0.963
    13   6 C    3.856 --    16 N    1.628    15 C    1.070    14 C    1.070
    14   6 C    3.980 --    13 C    1.070    28 H    0.978    27 H    0.934
                            26 H    0.934
    15   6 C    3.980 --    13 C    1.070    31 H    0.978    29 H    0.934
                            30 H    0.933
    16   7 N    3.507 --    13 C    1.628    32 H    0.874    33 H    0.873
    17   7 N    3.060 --    11 C    1.573     5 C    1.164
    18   1 H    1.006 --     1 C    0.979
    19   1 H    1.012 --     1 C    0.985
    20   1 H    1.006 --     1 C    0.979
    21   1 H    0.843 --     7 O    0.805
    22   1 H    0.915 --    10 N    0.877
    23   1 H    0.994 --    12 C    0.963
    24   1 H    0.994 --    12 C    0.964
    25   1 H    1.004 --    12 C    0.984
    26   1 H    1.020 --    14 C    0.934
    27   1 H    0.994 --    14 C    0.934
    28   1 H    0.991 --    14 C    0.978
    29   1 H    0.994 --    15 C    0.934
    30   1 H    1.021 --    15 C    0.933
    31   1 H    0.991 --    15 C    0.978
    32   1 H    0.904 --    16 N    0.874
    33   1 H    0.904 --    16 N    0.873
 ---------------------------------------------------------------------------

           -------------------------------------------------
          | TOTAL ENERGY              -57.868075631830 Eh   |
          | GRADIENT NORM               0.000694807016 Eh/α |
          | HOMO-LUMO GAP               2.288013615074 eV   |
           -------------------------------------------------

 * finished run on 2023/06/20 at 15:08:00.108
