   * xtb version 6.5.1 (579679a) compiled by 'ehlert@majestix' on 2022-07-11
          program call               : /lustre/hpc/kemi/ree/PhD/git/ReactivityQM/dep/xtb-6.5.1/bin/xtb --gfn 1 /lustre/hpc/kemi/ree/PhD/git/ReactivityQM/calculations/R02methylcation/reac01prodN03/conf16/R02methylcation_reac01prodN03_conf16_gfn1.xyz --opt --vfukui --chrg 0 --uhf 0 --alpb DMSO

   ID    Z sym.   atoms
    1    6 C      1, 3, 5, 6, 8-11, 13, 15, 18, 19, 22, 24
    2    8 O      2, 4, 14, 20, 23, 25
    3    7 N      7, 12, 16, 17, 21
    4    1 H      26-42

      * Solvation model:               ALPB
        Solvent                        DMSO
        Solvent mass                       7.8130E+01 g/mol
          :  Hamiltonian                  GFN1-xTB          :
 * total energy  :   -82.9841036 Eh     change       -0.1028866E-10 Eh
 * total energy  :   -82.9953810 Eh     change       -0.1127746E-01 Eh
 * total energy  :   -82.9998412 Eh     change       -0.4460173E-02 Eh
 * total energy  :   -83.0010602 Eh     change       -0.1218959E-02 Eh
 * total energy  :   -83.0022041 Eh     change       -0.1143890E-02 Eh
 * total energy  :   -83.0030340 Eh     change       -0.8299899E-03 Eh
 * total energy  :   -83.0036718 Eh     change       -0.6377371E-03 Eh
 * total energy  :   -83.0040775 Eh     change       -0.4056773E-03 Eh
 * total energy  :   -83.0043149 Eh     change       -0.2374553E-03 Eh
 * total energy  :   -83.0044972 Eh     change       -0.1822445E-03 Eh
 * total energy  :   -83.0088980 Eh     change       -0.2673733E-04 Eh
 * total energy  :   -83.0089092 Eh     change       -0.1124179E-04 Eh
 * total energy  :   -83.0089230 Eh     change       -0.1373001E-04 Eh
 * total energy  :   -83.0089268 Eh     change       -0.3842325E-05 Eh
 * total energy  :   -83.0089375 Eh     change       -0.1072216E-04 Eh
 * total energy  :   -83.0089501 Eh     change       -0.1255762E-04 Eh
 * total energy  :   -83.0089572 Eh     change       -0.7148083E-05 Eh
 * total energy  :   -83.0089633 Eh     change       -0.6073592E-05 Eh
 * total energy  :   -83.0089668 Eh     change       -0.3460459E-05 Eh
   *** GEOMETRY OPTIMIZATION CONVERGED AFTER 92 ITERATIONS ***

 final structure:
================
42
 xtb: 6.5.1 (579679a)
C           -2.65979347588230        1.78219548141269       -1.96243704608257
O           -2.55622356621830        0.49009386624039       -1.34254277849292
C           -3.40638569339603        0.15338005759827       -0.39873035864224
O           -4.36662813917047        0.78213215283749       -0.04617257860376
C           -2.98959985555898       -1.19791935475603        0.26032555758391
C           -4.12646176468365       -1.70191386690586        1.14872883897408
N           -1.85035679385836       -0.83874614135132        1.08116332315819
C           -0.66865776956616       -0.99092524955071        0.65217681721361
C            0.51303628809499       -0.59396617299556        1.51398205550864
C            1.14622755043318       -1.86090782630179        2.09627391298359
C            0.06860730672383        0.36080583926219        2.62476231662545
N            1.51269986063957        0.05470741783488        0.66328563983513
C            1.20245763025341        1.13250536372405       -0.09356656955170
O            0.07008312557823        1.55338748668309       -0.26181457063977
C            2.38759008850886        1.74518167422129       -0.73697423233671
N            2.42081988049844        2.76483297758065       -1.53787404838892
N            3.72742201849342        2.96599347417986       -1.86418790026999
C            4.41304251588309        2.05758339082160       -1.24186822831470
C            5.87653235920791        1.84885316091397       -1.26572502460206
O            3.62461300967234        1.25239685602923       -0.51108061668031
N           -0.34604362874911       -1.57133741558960       -0.56638570393997
C           -1.24534227243100       -2.16585950971766       -1.39782105707250
O           -0.92571297716729       -2.68187655235321       -2.44541435095071
C           -2.68609096660490       -2.15715194556490       -0.87011111318970
O           -3.52959801511961       -2.86203561793076       -1.36295470805356
H           -3.32497807152866        2.42800449396132       -1.38644474292349
H           -1.65290722274736        2.19886592393557       -1.99117157339680
H           -3.04465110712727        1.65482864177758       -2.97577889255513
H           -3.80531701278123       -2.59476710257575        1.68020335193178
H           -4.39034959126338       -0.93073771914012        1.86947600257303
H           -4.99506680192913       -1.93845876026045        0.53638779900788
H            1.47594700924154       -2.52070101565508        1.29589791450502
H            2.00362233953906       -1.59496090085869        2.71118518003990
H            0.41880966218332       -2.38656416325973        2.71275158636234
H           -0.40641596268580        1.24145758096573        2.19412215756581
H           -0.64638597156580       -0.14521586192474        3.27123039781555
H            0.93179233143138        0.66651353103286        3.21155347320434
H            2.48024360749282       -0.16569198726199        0.82594566009057
H            6.34634906999621        2.61177833446974       -1.88191795276009
H            6.27401293007614        1.89789213366003       -0.25227565883255
H            6.10388462777244        0.86141549853212       -1.66740451984662
H            0.62517344830869       -1.60507017370717       -0.83648275883968

          :  Hamiltonian                  GFN1-xTB          :
         :: total energy             -83.008966772794 Eh    ::
         :: gradient norm              0.000858515230 Eh/a0 ::
         :: HOMO-LUMO gap              2.432783544681 eV    ::
         :: SCC energy               -83.796069582770 Eh    ::
         :: -> Gsolv                  -0.060875649162 Eh    ::
         :: repulsion energy           0.815170352866 Eh    ::

    * Orbital Energies and Occupations

         #    Occupation            Energy/Eh            Energy/eV
      -------------------------------------------------------------
         1        2.0000           -0.8672411             -23.5988
       ...           ...                  ...                  ...
        55        2.0000           -0.5102378             -13.8843
        56        2.0000           -0.5069723             -13.7954
        57        2.0000           -0.5058736             -13.7655
        58        2.0000           -0.5022043             -13.6657
        59        2.0000           -0.4947324             -13.4624
        60        2.0000           -0.4825767             -13.1316
        61        2.0000           -0.4730694             -12.8729
        62        2.0000           -0.4685930             -12.7511
        63        2.0000           -0.4621998             -12.5771
        64        2.0000           -0.4569046             -12.4330
        65        2.0000           -0.4542872             -12.3618
        66        2.0000           -0.4496877             -12.2366
        67        2.0000           -0.4389982             -11.9457 (HOMO)
        68                         -0.3495950              -9.5130 (LUMO)
        69                         -0.3150637              -8.5733
        70                         -0.2953435              -8.0367
        71                         -0.2664716              -7.2511
        72                         -0.2580860              -7.0229
        73                         -0.2250520              -6.1240
        74                         -0.2022110              -5.5024
        75                         -0.1418512              -3.8600
        76                         -0.1408236              -3.8320
        77                         -0.1357988              -3.6953
        78                         -0.1259169              -3.4264
       ...                                ...                  ...
       134                          0.7604062              20.6917
      -------------------------------------------------------------
                  HL-Gap            0.0894032 Eh            2.4328 eV

Wiberg/Mayer (AO) data.
largest (>0.10) Wiberg bond orders for each atom

     #   Z sym  total        # sym  WBO       # sym  WBO       # sym  WBO
 ---------------------------------------------------------------------------
     1   6 C    3.853 --    26 H    0.981    28 H    0.980    27 H    0.978
                             2 O    0.873
     2   8 O    2.225 --     3 C    1.161     1 C    0.873     4 O    0.141
     3   6 C    3.842 --     4 O    1.699     2 O    1.161     5 C    0.858
     4   8 O    1.983 --     3 C    1.699     2 O    0.141
     5   6 C    3.964 --     6 C    0.983     7 N    0.971    24 C    0.965
                             3 C    0.858
     6   6 C    3.985 --    29 H    0.985    31 H    0.983    30 H    0.983
                             5 C    0.983
     7   7 N    3.024 --     8 C    1.754     5 C    0.971
     8   6 C    3.928 --     7 N    1.754    21 N    1.069     9 C    0.972
     9   6 C    3.936 --    11 C    0.990    10 C    0.983     8 C    0.972
                            12 N    0.926
    10   6 C    3.988 --    32 H    0.984    34 H    0.983     9 C    0.983
                            33 H    0.981
    11   6 C    3.988 --     9 C    0.990    37 H    0.985    36 H    0.983
                            35 H    0.981
    12   7 N    3.338 --    13 C    1.244     9 C    0.926    38 H    0.889
                            14 O    0.171
    13   6 C    3.915 --    14 O    1.586    12 N    1.244    15 C    0.997
    14   8 O    1.904 --    13 C    1.586    12 N    0.171
    15   6 C    3.874 --    16 N    1.619    20 O    1.048    13 C    0.997
    16   7 N    3.001 --    15 C    1.619    17 N    1.202
    17   7 N    2.982 --    18 C    1.607    16 N    1.202
    18   6 C    3.867 --    17 N    1.607    20 O    1.073    19 C    1.032
    19   6 C    3.986 --    18 C    1.032    39 H    0.982    40 H    0.963
                            41 H    0.961
    20   8 O    2.317 --    18 C    1.073    15 C    1.048
    21   7 N    3.434 --    22 C    1.188     8 C    1.069    42 H    0.881
                            23 O    0.149
    22   6 C    3.892 --    23 O    1.668    21 N    1.188    24 C    0.907
    23   8 O    1.950 --    22 C    1.668    21 N    0.149
    24   6 C    3.846 --    25 O    1.805     5 C    0.965    22 C    0.907
    25   8 O    2.015 --    24 C    1.805
    26   1 H    1.006 --     1 C    0.981
    27   1 H    1.022 --     1 C    0.978
    28   1 H    1.006 --     1 C    0.980
    29   1 H    1.001 --     6 C    0.985
    30   1 H    1.007 --     6 C    0.983
    31   1 H    1.004 --     6 C    0.983
    32   1 H    0.998 --    10 C    0.984
    33   1 H    0.996 --    10 C    0.981
    34   1 H    0.999 --    10 C    0.983
    35   1 H    1.009 --    11 C    0.981
    36   1 H    1.008 --    11 C    0.983
    37   1 H    1.000 --    11 C    0.985
    38   1 H    0.931 --    12 N    0.889
    39   1 H    0.998 --    19 C    0.982
    40   1 H    0.996 --    19 C    0.963
    41   1 H    0.996 --    19 C    0.961
    42   1 H    0.931 --    21 N    0.881
 ---------------------------------------------------------------------------

           -------------------------------------------------
          | TOTAL ENERGY              -83.008966772794 Eh   |
          | GRADIENT NORM               0.000858515230 Eh/α |
          | HOMO-LUMO GAP               2.432783544681 eV   |
           -------------------------------------------------

 * finished run on 2023/06/21 at 17:32:29.177
