   * xtb version 6.5.1 (579679a) compiled by 'ehlert@majestix' on 2022-07-11
          program call               : /lustre/hpc/kemi/ree/PhD/git/ReactivityQM/dep/xtb-6.5.1/bin/xtb --gfn 1 /lustre/hpc/kemi/ree/PhD/git/ReactivityQM/calculations/RaltegravirCLI/reac01prodE01/conf05/RaltegravirCLI_reac01prodE01_conf05_gfn1.xyz --opt --vfukui --chrg -1 --uhf 0 --alpb DMSO

   ID    Z sym.   atoms
    1    6 C      1, 2, 5-7
    2    7 N      3, 4
    3    8 O      8, 10
    4   17 Cl     9
    5    1 H      11-16

      * Solvation model:               ALPB
        Solvent                        DMSO
        Solvent mass                       7.8130E+01 g/mol
          :  Hamiltonian                  GFN1-xTB          :
 * total energy  :   -34.1578019 Eh     change       -0.5044853E-11 Eh
 * total energy  :   -34.1692232 Eh     change       -0.1142130E-01 Eh
 * total energy  :   -34.1792789 Eh     change       -0.1005569E-01 Eh
 * total energy  :   -34.1828219 Eh     change       -0.3542995E-02 Eh
 * total energy  :   -34.1890254 Eh     change       -0.6203458E-02 Eh
 * total energy  :   -34.1943969 Eh     change       -0.5371544E-02 Eh
 * total energy  :   -34.1992242 Eh     change       -0.4827334E-02 Eh
 * total energy  :   -34.2015111 Eh     change       -0.2286881E-02 Eh
 * total energy  :   -34.2034193 Eh     change       -0.1908236E-02 Eh
 * total energy  :   -34.2032742 Eh     change        0.1451916E-03 Eh
 * total energy  :   -34.2082321 Eh     change       -0.1366895E-04 Eh
 * total energy  :   -34.2082389 Eh     change       -0.6833262E-05 Eh
 * total energy  :   -34.2082552 Eh     change       -0.1624474E-04 Eh
 * total energy  :   -34.2082734 Eh     change       -0.1822343E-04 Eh
 * total energy  :   -34.2082720 Eh     change        0.1359248E-05 Eh
 * total energy  :   -34.2082907 Eh     change       -0.1863147E-04 Eh
 * total energy  :   -34.2082955 Eh     change       -0.4794442E-05 Eh
 * total energy  :   -34.2082978 Eh     change       -0.2350320E-05 Eh
 * total energy  :   -34.2083014 Eh     change       -0.3540412E-05 Eh
   *** GEOMETRY OPTIMIZATION CONVERGED AFTER 44 ITERATIONS ***

 final structure:
================
16
 xtb: 6.5.1 (579679a)
C            3.25203000423401        0.32880576529798       -0.06643836227966
C            1.79231494547021        0.32834491624302        0.16871544385637
N            1.16512022321525        0.67686413449342        1.25327883579260
N           -0.15879369245779        0.52236901023182        1.00166067109716
C           -0.26670136122067        0.08641129011251       -0.21972231421028
C           -1.51846995341581       -0.22445422481103       -0.94720036807276
C           -2.76207566215804        0.00420652388060       -0.14388616666389
O           -1.51222661121461       -0.62474823391074       -2.08897891101440
Cl          -2.61412153170470       -2.18930743764011        2.83207456709933
O            0.94868096050657       -0.05375361365348       -0.79465807379262
H            3.48753939657101        0.95255384300292       -0.92777995157053
H            3.76544572947519        0.71076720300364        0.81191536217520
H            3.59765538215863       -0.68226817607051       -0.28034391486777
H           -2.79057615312477       -0.71861715360166        0.67522263877058
H           -3.64091251880088       -0.11730934322548       -0.77124370079784
H           -2.74490815753465        1.00013649664825        0.29332324447687

          :  Hamiltonian                  GFN1-xTB          :
         :: total energy             -34.208301358653 Eh    ::
         :: gradient norm              0.000381758399 Eh/a0 ::
         :: HOMO-LUMO gap              3.355513790067 eV    ::
         :: SCC energy               -34.493152873080 Eh    ::
         :: -> Gsolv                  -0.110799866349 Eh    ::
         :: repulsion energy           0.291567531118 Eh    ::

    * Orbital Energies and Occupations

         #    Occupation            Energy/Eh            Energy/eV
      -------------------------------------------------------------
         1        2.0000           -0.8615446             -23.4438
       ...           ...                  ...                  ...
        16        2.0000           -0.5458406             -14.8531
        17        2.0000           -0.5418393             -14.7442
        18        2.0000           -0.5326281             -14.4935
        19        2.0000           -0.5216063             -14.1936
        20        2.0000           -0.5168851             -14.0652
        21        2.0000           -0.5040066             -13.7147
        22        2.0000           -0.4801624             -13.0659
        23        2.0000           -0.4742588             -12.9052
        24        2.0000           -0.4742524             -12.9051
        25        2.0000           -0.4726451             -12.8613
        26        2.0000           -0.4592667             -12.4973
        27        2.0000           -0.4545594             -12.3692
        28        2.0000           -0.4479271             -12.1887 (HOMO)
        29                         -0.3246142              -8.8332 (LUMO)
        30                         -0.2559524              -6.9648
        31                         -0.2101366              -5.7181
        32                         -0.1428776              -3.8879
        33                         -0.1230380              -3.3480
        34                         -0.0748185              -2.0359
        35                         -0.0744597              -2.0262
        36                         -0.0633507              -1.7239
        37                         -0.0488826              -1.3302
        38                          0.0350194               0.9529
        39                          0.0357018               0.9715
       ...                                ...                  ...
        57                          0.7111272              19.3508
      -------------------------------------------------------------
                  HL-Gap            0.1233129 Eh            3.3555 eV

Wiberg/Mayer (AO) data.
largest (>0.10) Wiberg bond orders for each atom

     #   Z sym  total        # sym  WBO       # sym  WBO       # sym  WBO
 ---------------------------------------------------------------------------
     1   6 C    3.987 --     2 C    1.032    12 H    0.983    11 H    0.964
                            13 H    0.962
     2   6 C    3.874 --     3 N    1.585    10 O    1.097     1 C    1.032
     3   7 N    2.983 --     2 C    1.585     4 N    1.220
     4   7 N    3.010 --     5 C    1.597     3 N    1.220
     5   6 C    3.871 --     4 N    1.597    10 O    1.048     6 C    1.012
     6   6 C    3.866 --     8 O    1.746     7 C    1.014     5 C    1.012
     7   6 C    3.990 --     6 C    1.014    15 H    0.983    16 H    0.964
                            14 H    0.939
     8   8 O    1.971 --     6 C    1.746
     9  17 Cl   0.037
    10   8 O    2.330 --     2 C    1.097     5 C    1.048
    11   1 H    0.997 --     1 C    0.964
    12   1 H    0.999 --     1 C    0.983
    13   1 H    0.997 --     1 C    0.962
    14   1 H    1.016 --     7 C    0.939
    15   1 H    1.001 --     7 C    0.983
    16   1 H    1.003 --     7 C    0.964
 ---------------------------------------------------------------------------

           -------------------------------------------------
          | TOTAL ENERGY              -34.208301358653 Eh   |
          | GRADIENT NORM               0.000381758399 Eh/α |
          | HOMO-LUMO GAP               3.355513790067 eV   |
           -------------------------------------------------

 * finished run on 2023/06/20 at 14:52:08.278
