   * xtb version 6.5.1 (579679a) compiled by 'ehlert@majestix' on 2022-07-11
          program call               : /lustre/hpc/kemi/ree/PhD/git/ReactivityQM/dep/xtb-6.5.1/bin/xtb --gfn 1 /lustre/hpc/kemi/ree/PhD/git/ReactivityQM/calculations/R02deprot/reac02prodN01/conf11/R02deprot_reac02prodN01_conf11_gfn1.xyz --opt --vfukui --chrg 1 --uhf 0 --alpb DMSO

   ID    Z sym.   atoms
    1    6 C      1, 4
    2    8 O      2, 5
    3    5 B      3
    4    1 H      6-13

      * Solvation model:               ALPB
        Solvent                        DMSO
        Solvent mass                       7.8130E+01 g/mol
          :  Hamiltonian                  GFN1-xTB          :
 * total energy  :   -19.0504813 Eh     change       -0.6563994E-10 Eh
 * total energy  :   -19.0614897 Eh     change       -0.1100846E-01 Eh
 * total energy  :   -19.0641899 Eh     change       -0.2700145E-02 Eh
 * total energy  :   -19.0647875 Eh     change       -0.5975771E-03 Eh
 * total energy  :   -19.0651823 Eh     change       -0.3948176E-03 Eh
 * total energy  :   -19.0652265 Eh     change       -0.4417249E-04 Eh
 * total energy  :   -19.0652481 Eh     change       -0.2161521E-04 Eh
 * total energy  :   -19.0652660 Eh     change       -0.1792351E-04 Eh
 * total energy  :   -19.0652798 Eh     change       -0.1382174E-04 Eh
 * total energy  :   -19.0652942 Eh     change       -0.1441883E-04 Eh
 * total energy  :   -19.0653012 Eh     change       -0.6932729E-05 Eh
 * total energy  :   -19.0653225 Eh     change       -0.2132526E-04 Eh
 * total energy  :   -19.0653342 Eh     change       -0.1165873E-04 Eh
 * total energy  :   -19.0653425 Eh     change       -0.8370203E-05 Eh
 * total energy  :   -19.0653478 Eh     change       -0.5307071E-05 Eh
 * total energy  :   -19.0653542 Eh     change       -0.6392621E-05 Eh
 * total energy  :   -19.0653602 Eh     change       -0.5949705E-05 Eh
 * total energy  :   -19.0653625 Eh     change       -0.2324787E-05 Eh
   *** GEOMETRY OPTIMIZATION CONVERGED AFTER 18 ITERATIONS ***

 final structure:
================
13
 xtb: 6.5.1 (579679a)
C            2.01037267072403        0.22949274796116       -0.48662109383036
O            0.66242989748262       -0.29257292316168       -0.68119517726871
B           -0.54073521952274        0.13697731379477        0.05133269189113
C           -1.86580151650632       -0.56003323001712       -0.34650360826832
O           -0.26188713794975        1.08280644324267        0.93970717885086
H            2.31661278715569        0.74639257636280       -1.39522599071730
H            1.95661835787343        0.91891377436645        0.35306844485535
H            2.67158008332963       -0.60628430700985       -0.26295606749139
H            0.59424424995378       -0.94853189750164       -1.38737689072405
H           -2.29534203967158       -0.06978173639220       -1.22117030694487
H           -2.60124990891382       -0.50519602852894        0.45352233779177
H           -1.70926364834880       -1.60499051228590       -0.60619503987645
H           -0.93757857560616        1.47280877916941        1.49442352173241

          :  Hamiltonian                  GFN1-xTB          :
         :: total energy             -19.065362502861 Eh    ::
         :: gradient norm              0.000583959791 Eh/a0 ::
         :: HOMO-LUMO gap              7.484819896097 eV    ::
         :: SCC energy               -19.256507100063 Eh    ::
         :: -> Gsolv                  -0.095126460492 Eh    ::
         :: repulsion energy           0.194625175643 Eh    ::

    * Orbital Energies and Occupations

         #    Occupation            Energy/Eh            Energy/eV
      -------------------------------------------------------------
         1        2.0000           -0.9096695             -24.7534
       ...           ...                  ...                  ...
         3        2.0000           -0.7656091             -20.8333
         4        2.0000           -0.7557550             -20.5651
         5        2.0000           -0.6871158             -18.6974
         6        2.0000           -0.6731775             -18.3181
         7        2.0000           -0.6639454             -18.0669
         8        2.0000           -0.6502186             -17.6933
         9        2.0000           -0.6223580             -16.9352
        10        2.0000           -0.6042669             -16.4429
        11        2.0000           -0.5659827             -15.4012
        12        2.0000           -0.5534241             -15.0594
        13        2.0000           -0.5444482             -14.8152
        14        2.0000           -0.5432007             -14.7812
        15        2.0000           -0.5240350             -14.2597 (HOMO)
        16                         -0.2489730              -6.7749 (LUMO)
        17                         -0.1893022              -5.1512
        18                         -0.1755974              -4.7782
        19                         -0.1497444              -4.0748
        20                         -0.1267080              -3.4479
        21                         -0.1081983              -2.9442
        22                         -0.0951345              -2.5887
        23                         -0.0796352              -2.1670
        24                         -0.0714676              -1.9447
        25                         -0.0518053              -1.4097
        26                          0.0911855               2.4813
       ...                                ...                  ...
        36                          0.6442411              17.5307
      -------------------------------------------------------------
                  HL-Gap            0.2750621 Eh            7.4848 eV

Wiberg/Mayer (AO) data.
largest (>0.10) Wiberg bond orders for each atom

     #   Z sym  total        # sym  WBO       # sym  WBO       # sym  WBO
 ---------------------------------------------------------------------------
     1   6 C    3.782 --     8 H    0.982     6 H    0.982     7 H    0.978
                             2 O    0.808
     2   8 O    2.394 --     1 C    0.808     3 B    0.767     9 H    0.760
     3   5 B    3.138 --     5 O    1.257     4 C    1.034     2 O    0.767
     4   6 C    3.986 --     3 B    1.034    11 H    0.971    12 H    0.969
                            10 H    0.949
     5   8 O    2.145 --     3 B    1.257    13 H    0.792
     6   1 H    0.995 --     1 C    0.982
     7   1 H    1.000 --     1 C    0.978
     8   1 H    0.995 --     1 C    0.982
     9   1 H    0.789 --     2 O    0.760
    10   1 H    0.991 --     4 C    0.949
    11   1 H    0.992 --     4 C    0.971
    12   1 H    0.992 --     4 C    0.969
    13   1 H    0.812 --     5 O    0.792
 ---------------------------------------------------------------------------

           -------------------------------------------------
          | TOTAL ENERGY              -19.065362502861 Eh   |
          | GRADIENT NORM               0.000583959791 Eh/α |
          | HOMO-LUMO GAP               7.484819896097 eV   |
           -------------------------------------------------

 * finished run on 2023/06/20 at 18:32:01.834
