   * xtb version 6.5.1 (579679a) compiled by 'ehlert@majestix' on 2022-07-11
          program call               : /lustre/hpc/kemi/ree/PhD/git/ReactivityQM/dep/xtb-6.5.1/bin/xtb --gfn 1 /lustre/hpc/kemi/ree/PhD/git/ReactivityQM/calculations/R02oxygendeprot/reac01prodN14/conf12/R02oxygendeprot_reac01prodN14_conf12_gfn1.xyz --opt --vfukui --chrg 0 --uhf 0 --alpb DMSO

   ID    Z sym.   atoms
    1    6 C      1, 3, 5, 6, 8, 9, 12-15, 17, 19, 22, 23
    2    8 O      2, 4, 7, 10, 18, 24
    3    7 N      11, 16, 20, 21, 25
    4    1 H      26-42

      * Solvation model:               ALPB
        Solvent                        DMSO
        Solvent mass                       7.8130E+01 g/mol
          :  Hamiltonian                  GFN1-xTB          :
 * total energy  :   -82.8919452 Eh     change       -0.1658407E-10 Eh
 * total energy  :   -82.9089420 Eh     change       -0.1699680E-01 Eh
 * total energy  :   -82.9189769 Eh     change       -0.1003492E-01 Eh
 * total energy  :   -82.9209271 Eh     change       -0.1950137E-02 Eh
 * total energy  :   -82.9224410 Eh     change       -0.1513907E-02 Eh
 * total energy  :   -82.9232282 Eh     change       -0.7872618E-03 Eh
 * total energy  :   -82.9240281 Eh     change       -0.7998273E-03 Eh
 * total energy  :   -82.9247241 Eh     change       -0.6960545E-03 Eh
 * total energy  :   -82.9254521 Eh     change       -0.7279752E-03 Eh
 * total energy  :   -82.9262153 Eh     change       -0.7632122E-03 Eh
 * total energy  :   -82.9772883 Eh     change       -0.2395656E-04 Eh
 * total energy  :   -82.9773105 Eh     change       -0.2213635E-04 Eh
 * total energy  :   -82.9773200 Eh     change       -0.9515680E-05 Eh
 * total energy  :   -82.9773326 Eh     change       -0.1261324E-04 Eh
 * total energy  :   -82.9773478 Eh     change       -0.1518645E-04 Eh
 * total energy  :   -82.9773547 Eh     change       -0.6946847E-05 Eh
 * total energy  :   -82.9773631 Eh     change       -0.8401346E-05 Eh
 * total energy  :   -82.9773691 Eh     change       -0.5959653E-05 Eh
 * total energy  :   -82.9773740 Eh     change       -0.4917475E-05 Eh
   *** GEOMETRY OPTIMIZATION CONVERGED AFTER 89 ITERATIONS ***

 final structure:
================
42
 xtb: 6.5.1 (579679a)
C            5.91210910945921        1.97129984120894       -1.91295046156744
O            4.80836120632800        1.13045850326130       -1.57239332525327
C            3.86948616568934        1.67763482556031       -0.77844563512237
O            3.93837003856831        2.81861652619721       -0.36763427093721
C            2.79226701820573        0.74732892421630       -0.47459927160742
C            2.65720764513077       -0.55728987346532       -0.91214786308544
O            3.21251990096710       -1.38455920392830       -1.57427686414112
C            1.50261001809275       -2.18364574776495        0.65115441185147
C            2.59118307023840       -2.00300707328940        1.64392391870212
O            0.87133966572665       -3.17035869158624        0.43881793600046
N            1.25239226885195       -1.00663865562152       -0.20368656206168
C            0.86790373647149        0.24764817340297        0.48633650068658
C           -0.43102432396895        0.36837517900322        1.23231087538744
C           -0.60192971044616        1.83092008926745        1.66278689494974
C           -0.45555950591752       -0.56647183274335        2.44903513178082
N           -1.50645922364929       -0.00361572425005        0.30094701159755
C           -2.81515736357999        0.00764972832288        0.64865060327330
O           -3.24988272373346        0.20450115325542        1.76759515384102
C           -3.67453568047630       -0.27053693793222       -0.52925994364920
N           -3.26604371959568       -0.49432450495529       -1.74261391190136
N           -4.37925719546750       -0.68825638453995       -2.50193555808913
C           -5.39758327312890       -0.56891288432470       -1.70347870368925
C           -6.83257385916332       -0.68054671039560       -2.04513005038510
O           -5.01625734606173       -0.30558076252804       -0.44536760940643
N            1.72879831938886        1.16274665553860        0.31870044133505
H            6.42935196462369        2.30284260521211       -1.00878536759826
H            5.56543853481000        2.84551812061993       -2.47043612065297
H            6.58057704240817        1.37347726121667       -2.52991775067413
H            2.65910000090865       -0.97511301117308        1.98963937221849
H            2.44013966050475       -2.68410397163383        2.47805256458607
H            3.52886012515453       -2.26593845335765        1.14913856343485
H            0.58898655322062       -1.28101869869548       -0.92503597839311
H           -0.61449571368045        2.47719152937105        0.78675574113539
H            0.22981613675032        2.11803673249169        2.30375795231023
H           -1.53445152436274        1.94880338240146        2.21102474564571
H           -1.35360311076125       -0.38827109969278        3.03743501065151
H           -0.44770583860415       -1.60539314601196        2.12666142328995
H            0.41633655748317       -0.37461715406345        3.07158680076329
H           -1.28770365302051       -0.07084161677660       -0.68089846263342
H           -7.31172095207135       -1.42227071348082       -1.40681065361837
H           -7.32807444490153        0.27662325914880       -1.88068163306967
H           -6.93913357638530       -0.96912263748604       -3.08782605590499

          :  Hamiltonian                  GFN1-xTB          :
         :: total energy             -82.977374015396 Eh    ::
         :: gradient norm              0.000882145486 Eh/a0 ::
         :: HOMO-LUMO gap              2.630421157484 eV    ::
         :: SCC energy               -83.775375196101 Eh    ::
         :: -> Gsolv                  -0.057461569181 Eh    ::
         :: repulsion energy           0.824651991173 Eh    ::

    * Orbital Energies and Occupations

         #    Occupation            Energy/Eh            Energy/eV
      -------------------------------------------------------------
         1        2.0000           -0.8671428             -23.5962
       ...           ...                  ...                  ...
        55        2.0000           -0.5082490             -13.8302
        56        2.0000           -0.5076711             -13.8144
        57        2.0000           -0.5063684             -13.7790
        58        2.0000           -0.4950039             -13.4697
        59        2.0000           -0.4879589             -13.2780
        60        2.0000           -0.4851350             -13.2012
        61        2.0000           -0.4724481             -12.8560
        62        2.0000           -0.4681889             -12.7401
        63        2.0000           -0.4646777             -12.6445
        64        2.0000           -0.4616397             -12.5619
        65        2.0000           -0.4549789             -12.3806
        66        2.0000           -0.4517306             -12.2922
        67        2.0000           -0.4212569             -11.4630 (HOMO)
        68                         -0.3245907              -8.8326 (LUMO)
        69                         -0.3146631              -8.5624
        70                         -0.3058003              -8.3213
        71                         -0.2756120              -7.4998
        72                         -0.2588857              -7.0446
        73                         -0.2023946              -5.5074
        74                         -0.1687497              -4.5919
        75                         -0.1612638              -4.3882
        76                         -0.1491947              -4.0598
        77                         -0.1432158              -3.8971
        78                         -0.1421528              -3.8682
       ...                                ...                  ...
       134                          0.8389357              22.8286
      -------------------------------------------------------------
                  HL-Gap            0.0966662 Eh            2.6304 eV

Wiberg/Mayer (AO) data.
largest (>0.10) Wiberg bond orders for each atom

     #   Z sym  total        # sym  WBO       # sym  WBO       # sym  WBO
 ---------------------------------------------------------------------------
     1   6 C    3.879 --    28 H    0.986    27 H    0.981    26 H    0.981
                             2 O    0.905
     2   8 O    2.169 --     3 C    1.075     1 C    0.905     4 O    0.120
     3   6 C    3.864 --     4 O    1.616     5 C    1.080     2 O    1.075
     4   8 O    1.895 --     3 C    1.616     2 O    0.120
     5   6 C    3.885 --     6 C    1.353    25 N    1.111     3 C    1.080
                             7 O    0.139
     6   6 C    3.867 --     7 O    1.686     5 C    1.353    11 N    0.657
     7   8 O    2.035 --     6 C    1.686     5 C    0.139
     8   6 C    3.830 --    10 O    1.810     9 C    1.025    11 N    0.895
     9   6 C    3.983 --     8 C    1.025    29 H    0.972    30 H    0.968
                            31 H    0.933
    10   8 O    2.039 --     8 C    1.810
    11   7 N    3.549 --     8 C    0.895    32 H    0.870    12 C    0.864
                             6 C    0.657
    12   6 C    3.889 --    25 N    1.781    13 C    0.990    11 N    0.864
    13   6 C    3.934 --    12 C    0.990    14 C    0.985    15 C    0.980
                            16 N    0.918
    14   6 C    3.987 --    13 C    0.985    33 H    0.985    34 H    0.984
                            35 H    0.981
    15   6 C    3.986 --    38 H    0.985    37 H    0.981    13 C    0.980
                            36 H    0.975
    16   7 N    3.325 --    17 C    1.235    13 C    0.918    39 H    0.895
                            18 O    0.174
    17   6 C    3.914 --    18 O    1.604    16 N    1.235    19 C    0.991
    18   8 O    1.921 --    17 C    1.604    16 N    0.174
    19   6 C    3.876 --    20 N    1.607    24 O    1.065    17 C    0.991
    20   7 N    3.018 --    19 C    1.607    21 N    1.203
    21   7 N    2.981 --    22 C    1.602    20 N    1.203
    22   6 C    3.870 --    21 N    1.602    24 O    1.084    23 C    1.032
    23   6 C    3.986 --    22 C    1.032    42 H    0.982    40 H    0.965
                            41 H    0.961
    24   8 O    2.332 --    22 C    1.084    19 C    1.065
    25   7 N    3.062 --    12 C    1.781     5 C    1.111
    26   1 H    1.009 --     1 C    0.981
    27   1 H    1.009 --     1 C    0.981
    28   1 H    1.012 --     1 C    0.986
    29   1 H    0.998 --     9 C    0.972
    30   1 H    0.993 --     9 C    0.968
    31   1 H    0.991 --     9 C    0.933
    32   1 H    0.920 --    11 N    0.870
    33   1 H    1.004 --    14 C    0.985
    34   1 H    1.004 --    14 C    0.984
    35   1 H    1.006 --    14 C    0.981
    36   1 H    1.008 --    15 C    0.975
    37   1 H    1.003 --    15 C    0.981
    38   1 H    1.002 --    15 C    0.985
    39   1 H    0.951 --    16 N    0.895
    40   1 H    0.996 --    23 C    0.965
    41   1 H    0.996 --    23 C    0.961
    42   1 H    0.998 --    23 C    0.982
 ---------------------------------------------------------------------------

           -------------------------------------------------
          | TOTAL ENERGY              -82.977374015396 Eh   |
          | GRADIENT NORM               0.000882145486 Eh/α |
          | HOMO-LUMO GAP               2.630421157484 eV   |
           -------------------------------------------------

 * finished run on 2023/06/21 at 17:33:21.321
