   * xtb version 6.5.1 (579679a) compiled by 'ehlert@majestix' on 2022-07-11
          program call               : /lustre/hpc/kemi/ree/PhD/git/ReactivityQM/dep/xtb-6.5.1/bin/xtb --gfn 1 /lustre/hpc/kemi/ree/PhD/git/ReactivityQM/calculations/R02/reac01prodE09/conf01/R02_reac01prodE09_conf01_gfn1.xyz --opt --vfukui --chrg -1 --uhf 0 --alpb DMSO

   ID    Z sym.   atoms
    1    6 C      1, 3, 5, 7-10, 12, 14, 16, 17, 20, 22, 24
    2    8 O      2, 4, 13, 15, 23, 25
    3    7 N      6, 11, 18, 19, 21
    4    1 H      26-43

      * Solvation model:               ALPB
        Solvent                        DMSO
        Solvent mass                       7.8130E+01 g/mol
          :  Hamiltonian                  GFN1-xTB          :
 * total energy  :   -83.8312439 Eh     change       -0.6231460E-10 Eh
 * total energy  :   -83.8428633 Eh     change       -0.1161942E-01 Eh
 * total energy  :   -83.8470181 Eh     change       -0.4154765E-02 Eh
 * total energy  :   -83.8478369 Eh     change       -0.8188543E-03 Eh
 * total energy  :   -83.8485310 Eh     change       -0.6941068E-03 Eh
 * total energy  :   -83.8490815 Eh     change       -0.5504555E-03 Eh
 * total energy  :   -83.8500072 Eh     change       -0.9257525E-03 Eh
 * total energy  :   -83.8510149 Eh     change       -0.1007708E-02 Eh
 * total energy  :   -83.8520280 Eh     change       -0.1013031E-02 Eh
 * total energy  :   -83.8530890 Eh     change       -0.1061040E-02 Eh
 * total energy  :   -83.8557197 Eh     change       -0.2698605E-04 Eh
 * total energy  :   -83.8557439 Eh     change       -0.2421006E-04 Eh
 * total energy  :   -83.8557561 Eh     change       -0.1220493E-04 Eh
 * total energy  :   -83.8557800 Eh     change       -0.2387340E-04 Eh
 * total energy  :   -83.8557886 Eh     change       -0.8634972E-05 Eh
 * total energy  :   -83.8557993 Eh     change       -0.1072015E-04 Eh
 * total energy  :   -83.8558064 Eh     change       -0.7053228E-05 Eh
 * total energy  :   -83.8558122 Eh     change       -0.5800807E-05 Eh
 * total energy  :   -83.8558154 Eh     change       -0.3192546E-05 Eh
   *** GEOMETRY OPTIMIZATION CONVERGED AFTER 44 ITERATIONS ***

 final structure:
================
43
 xtb: 6.5.1 (579679a)
C            6.86368931626458        0.81290278506761       -0.64834623074533
O            5.56003174366177        1.34342428921123       -0.40266851369839
C            4.60117252246462        0.42300632386598       -0.10656776205023
O            4.86147870762539       -0.76701025288870       -0.05555494479079
C            3.27775829449079        1.00077382572492        0.13679554842963
N            2.32329822672700        0.05113056432034        0.43960751963055
C            1.10995458205959        0.41570046958128        0.67366821172455
C            0.06306994610176       -0.59961980471238        1.09086582970737
C            0.40729657848347       -1.97664265435784        0.50575604735514
C            0.09039156243807       -0.63476002017000        2.62969114968878
N           -1.22660473646932       -0.10377064970994        0.60804484304519
C           -2.38394927345909       -0.94837535312367        0.79451155084449
O           -2.44892978595182       -1.78368532667292        1.74049490830807
C           -3.36833989756098       -0.75230530370665       -0.14401190325553
O           -3.32339627821233        0.20657294343035       -1.17232078670903
C           -4.53423962669594        0.13883121294233       -1.75153807978145
C           -4.81075421185984        1.01219675545468       -2.92263486222518
N           -5.35918307724980       -0.69312257754680       -1.23978334227226
N           -4.70726391089164       -1.28392571134802       -0.12028784332648
C           -4.79872827141299       -2.74702238027273       -0.19235721055751
N            0.72768993401652        1.72561324096999        0.64920402928759
C            1.58643033569455        2.77705913285946        0.36185297490901
O            1.16778101291276        3.93417114291608        0.35775561471089
C            2.94313487758370        2.34925925215171        0.09408609687922
O            3.80752122613749        3.35486554411659       -0.18502617115940
H            7.22337019518736        0.26957805323801        0.22972268603929
H            6.84037259379661        0.13546140806893       -1.50618390072077
H            7.51465160144742        1.65887120030009       -0.85721336423162
H           -0.28337872549126       -2.72743040197308        0.88649064667744
H            1.42417825817354       -2.25003511784018        0.78610976665379
H            0.33927755019167       -1.94706711286557       -0.58116149654985
H           -0.58371626639886       -1.40092423553794        3.00749945222574
H           -0.21561785989267        0.33321362201759        3.02524857932110
H            1.10226426774393       -0.85329863793316        2.97049816418481
H           -1.15902151514087        0.16603222200935       -0.36807316044755
H           -5.83727748495959        0.87110844298091       -3.25195243036987
H           -4.65177603663669        2.05724059582541       -2.65818230643153
H           -4.13173275447526        0.76342590277270       -3.73789842551328
H           -4.32864911614880       -3.12842026389004       -1.10353813264452
H           -5.85039186812456       -3.02833316281387       -0.17683734783196
H           -4.29324927480975       -3.15252076963635        0.68354831048358
H           -0.24153126878968        1.95438831973769        0.82741719355637
H            4.70291890742968        3.02344448743430       -0.36418090835017

          :  Hamiltonian                  GFN1-xTB          :
         :: total energy             -83.855815390305 Eh    ::
         :: gradient norm              0.000380291235 Eh/a0 ::
         :: HOMO-LUMO gap              0.088158533283 eV    ::
         :: SCC energy               -84.616403443376 Eh    ::
         :: -> Gsolv                  -0.109322198096 Eh    ::
         :: repulsion energy           0.786483207610 Eh    ::

    * Orbital Energies and Occupations

         #    Occupation            Energy/Eh            Energy/eV
      -------------------------------------------------------------
         1        2.0000           -0.8189138             -22.2838
       ...           ...                  ...                  ...
        56        2.0000           -0.4760882             -12.9550
        57        2.0000           -0.4675470             -12.7226
        58        2.0000           -0.4589740             -12.4893
        59        2.0000           -0.4569116             -12.4332
        60        2.0000           -0.4441741             -12.0866
        61        2.0000           -0.4353135             -11.8455
        62        2.0000           -0.4316982             -11.7471
        63        2.0000           -0.4219297             -11.4813
        64        2.0000           -0.4075164             -11.0891
        65        2.0000           -0.4033018             -10.9744
        66        2.0000           -0.4010857             -10.9141
        67        2.0000           -0.3845587             -10.4644
        68        1.6924           -0.3063227              -8.3355 (HOMO)
        69        0.3076           -0.3030830              -8.2473 (LUMO)
        70                         -0.2525870              -6.8732
        71                         -0.2257770              -6.1437
        72                         -0.2146687              -5.8414
        73                         -0.1500546              -4.0832
        74                         -0.1311670              -3.5692
        75                         -0.1285430              -3.4978
        76                         -0.1275704              -3.4714
        77                         -0.1037876              -2.8242
        78                         -0.1016455              -2.7659
        79                         -0.0995896              -2.7100
       ...                                ...                  ...
       136                          0.7157078              19.4754
      -------------------------------------------------------------
                  HL-Gap            0.0032398 Eh            0.0882 eV

Wiberg/Mayer (AO) data.
largest (>0.10) Wiberg bond orders for each atom

     #   Z sym  total        # sym  WBO       # sym  WBO       # sym  WBO
 ---------------------------------------------------------------------------
     1   6 C    3.879 --    28 H    0.987    27 H    0.980    26 H    0.980
                             2 O    0.903
     2   8 O    2.154 --     3 C    1.033     1 C    0.903     4 O    0.112
     3   6 C    3.774 --     4 O    1.605     5 C    1.069     2 O    1.033
     4   8 O    1.840 --     3 C    1.605     2 O    0.112
     5   6 C    3.879 --    24 C    1.406     6 N    1.159     3 C    1.069
     6   7 N    3.009 --     7 C    1.593     5 C    1.159
     7   6 C    3.907 --     6 N    1.593    21 N    1.161     8 C    0.978
     8   6 C    3.959 --     9 C    0.988     7 C    0.978    10 C    0.976
                            11 N    0.962
     9   6 C    3.993 --     8 C    0.988    31 H    0.986    30 H    0.985
                            29 H    0.983
    10   6 C    3.991 --    34 H    0.988    33 H    0.987     8 C    0.976
                            32 H    0.975
    11   7 N    3.080 --    12 C    0.976     8 C    0.962    35 H    0.931
    12   6 C    3.874 --    14 C    1.417    13 O    1.369    11 N    0.976
    13   8 O    1.683 --    12 C    1.369    14 C    0.123
    14   6 C    3.561 --    12 C    1.417    19 N    0.983    15 O    0.914
                            13 O    0.123
    15   8 O    2.181 --    16 C    1.068    14 C    0.914    18 N    0.113
    16   6 C    3.896 --    18 N    1.708    15 O    1.068    17 C    1.020
    17   6 C    3.993 --    16 C    1.020    36 H    0.986    37 H    0.971
                            38 H    0.969
    18   7 N    2.932 --    16 C    1.708    19 N    1.005    15 O    0.113
    19   7 N    3.077 --    18 N    1.005    14 C    0.983    20 C    0.950
    20   6 C    3.953 --    40 H    0.989    41 H    0.984    39 H    0.983
                            19 N    0.950
    21   7 N    3.396 --     7 C    1.161    22 C    1.093    42 H    0.886
                            23 O    0.118
    22   6 C    3.866 --    23 O    1.538    24 C    1.121    21 N    1.093
    23   8 O    1.811 --    22 C    1.538    21 N    0.118
    24   6 C    3.804 --     5 C    1.406    22 C    1.121    25 O    1.066
    25   8 O    2.026 --    24 C    1.066    43 H    0.813
    26   1 H    1.010 --     1 C    0.980
    27   1 H    1.010 --     1 C    0.980
    28   1 H    1.012 --     1 C    0.987
    29   1 H    1.015 --     9 C    0.983
    30   1 H    1.016 --     9 C    0.985
    31   1 H    1.006 --     9 C    0.986
    32   1 H    1.026 --    10 C    0.975
    33   1 H    1.009 --    10 C    0.987
    34   1 H    1.007 --    10 C    0.988
    35   1 H    0.970 --    11 N    0.931
    36   1 H    1.003 --    17 C    0.986
    37   1 H    1.001 --    17 C    0.971
    38   1 H    1.001 --    17 C    0.969
    39   1 H    1.009 --    20 C    0.983
    40   1 H    1.019 --    20 C    0.989
    41   1 H    1.030 --    20 C    0.984
    42   1 H    0.951 --    21 N    0.886
    43   1 H    0.867 --    25 O    0.813
 ---------------------------------------------------------------------------

           -------------------------------------------------
          | TOTAL ENERGY              -83.855815390305 Eh   |
          | GRADIENT NORM               0.000380291235 Eh/α |
          | HOMO-LUMO GAP               0.088158533283 eV   |
           -------------------------------------------------

 * finished run on 2023/06/20 at 15:09:35.036
