   * xtb version 6.5.1 (579679a) compiled by 'ehlert@majestix' on 2022-07-11
          program call               : /lustre/hpc/kemi/ree/PhD/git/ReactivityQM/dep/xtb-6.5.1/bin/xtb --gfn 1 /lustre/hpc/kemi/ree/PhD/git/ReactivityQM/calculations/R02oxygendeprot/reac01prodN10/conf01/R02oxygendeprot_reac01prodN10_conf01_gfn1.xyz --opt --vfukui --chrg 0 --uhf 0 --alpb DMSO

   ID    Z sym.   atoms
    1    6 C      1, 3, 5, 6, 8, 11-15, 17, 19, 22, 23
    2    8 O      2, 4, 7, 9, 18, 24
    3    7 N      10, 16, 20, 21, 25
    4    1 H      26-42

      * Solvation model:               ALPB
        Solvent                        DMSO
        Solvent mass                       7.8130E+01 g/mol
          :  Hamiltonian                  GFN1-xTB          :
 * total energy  :   -82.9652978 Eh     change       -0.2202682E-10 Eh
 * total energy  :   -82.9757914 Eh     change       -0.1049360E-01 Eh
 * total energy  :   -82.9798582 Eh     change       -0.4066769E-02 Eh
 * total energy  :   -82.9805624 Eh     change       -0.7042437E-03 Eh
 * total energy  :   -82.9810727 Eh     change       -0.5102650E-03 Eh
 * total energy  :   -82.9814150 Eh     change       -0.3423686E-03 Eh
 * total energy  :   -82.9817325 Eh     change       -0.3174294E-03 Eh
 * total energy  :   -82.9819695 Eh     change       -0.2370545E-03 Eh
 * total energy  :   -82.9821196 Eh     change       -0.1501230E-03 Eh
 * total energy  :   -82.9822264 Eh     change       -0.1067583E-03 Eh
 * total energy  :   -82.9835268 Eh     change       -0.4105992E-04 Eh
 * total energy  :   -82.9835406 Eh     change       -0.1376417E-04 Eh
 * total energy  :   -82.9835659 Eh     change       -0.2532471E-04 Eh
 * total energy  :   -82.9835811 Eh     change       -0.1516168E-04 Eh
 * total energy  :   -82.9835913 Eh     change       -0.1023025E-04 Eh
 * total energy  :   -82.9836060 Eh     change       -0.1469563E-04 Eh
 * total energy  :   -82.9836131 Eh     change       -0.7061294E-05 Eh
 * total energy  :   -82.9836197 Eh     change       -0.6626429E-05 Eh
 * total energy  :   -82.9836226 Eh     change       -0.2858756E-05 Eh
   *** GEOMETRY OPTIMIZATION CONVERGED AFTER 36 ITERATIONS ***

 final structure:
================
42
 xtb: 6.5.1 (579679a)
C           -3.47269316425967       -3.33367863067158       -1.29137216825646
O           -2.92521619972290       -2.06000462325346       -0.92503643459411
C           -2.34513828349168       -1.36523263953173       -1.89094962411833
O           -2.24936313279158       -1.73224231558083       -3.03310187350122
C           -1.79871631392460       -0.04755225422840       -1.37736643093498
C           -1.52386340072168        1.05630696080579       -2.34483930406280
O           -2.08315077407178        1.17656324725725       -3.40301801094926
C           -0.48325616226978        2.06245956974370       -1.84485913852053
O            0.14524228526572        2.78865767164413       -2.58545120200809
N           -0.30053273084729        2.03606776677385       -0.50583912092648
C           -1.09692450798656        1.28241036922641        0.44935208169607
C           -2.31894615437595        2.12245563431430        0.85003912638629
C           -0.19276002283198        0.87402939033586        1.65582998166652
C           -0.92693664214221       -0.12710169496760        2.55413670312657
C            0.26917964444498        2.08317551083154        2.47410784744357
N            0.97406434684514        0.22374847972648        1.04994768840479
C            1.98108176410809       -0.32913226307189        1.75637060347629
O            2.02614632571189       -0.43371993828848        2.97096317254820
C            3.06767081005283       -0.84496900354933        0.88512590179440
N            4.14559618167576       -1.46455492790307        1.25288432111362
N            4.83961964832140       -1.75595948521652        0.11770642624722
C            4.14360480869575       -1.29597541346533       -0.87494989948793
C            4.47534999494709       -1.35763333148966       -2.31498315933458
O            3.00877832673897       -0.70836329467702       -0.45837869860588
N           -1.60491454005919        0.07020862614318       -0.12420683085591
H           -2.67792490006058       -3.98760335414234       -1.65627249287036
H           -4.22477943853311       -3.20362305194775       -2.07239550369940
H           -3.92421049899876       -3.74578750940558       -0.39188892171467
H            0.30088037725430        2.75471074610519       -0.13389199806006
H           -1.99405736194316        3.06539373941774        1.28179911389729
H           -2.90944334947672        2.32628534911185       -0.04171497290683
H           -2.93348580948891        1.58347132639009        1.56688641410228
H           -1.19758005450081       -1.01585826513399        1.98645972690674
H           -1.83024977909571        0.32642867255729        2.95668782539664
H           -0.28635190994183       -0.41506876731251        3.38566972728619
H           -0.58068471637728        2.55884677770538        2.95879286295031
H            0.77569922924855        2.81253883438198        1.84592642841017
H            0.96299546417411        1.74879628508907        3.24447950876486
H            1.09844261036129        0.34133453739887        0.05578193805159
H            5.36390499500871       -1.96846875134097       -2.45820599885403
H            3.64127490760550       -1.78201007519558       -2.87287784093498
H            4.66164712744715       -0.35358090459057       -2.69734777447649

          :  Hamiltonian                  GFN1-xTB          :
         :: total energy             -82.983622562283 Eh    ::
         :: gradient norm              0.000674780235 Eh/a0 ::
         :: HOMO-LUMO gap              1.750009615528 eV    ::
         :: SCC energy               -83.764489699638 Eh    ::
         :: -> Gsolv                  -0.059000819079 Eh    ::
         :: repulsion energy           0.808363056325 Eh    ::

    * Orbital Energies and Occupations

         #    Occupation            Energy/Eh            Energy/eV
      -------------------------------------------------------------
         1        2.0000           -0.8672851             -23.6000
       ...           ...                  ...                  ...
        55        2.0000           -0.5075385             -13.8108
        56        2.0000           -0.5066212             -13.7859
        57        2.0000           -0.5055669             -13.7572
        58        2.0000           -0.5041755             -13.7193
        59        2.0000           -0.4953961             -13.4804
        60        2.0000           -0.4818837             -13.1127
        61        2.0000           -0.4810599             -13.0903
        62        2.0000           -0.4697686             -12.7831
        63        2.0000           -0.4636487             -12.6165
        64        2.0000           -0.4619392             -12.5700
        65        2.0000           -0.4530109             -12.3271
        66        2.0000           -0.4499672             -12.2442
        67        2.0000           -0.4379082             -11.9161 (HOMO)
        68                         -0.3735965             -10.1661 (LUMO)
        69                         -0.3204711              -8.7205
        70                         -0.3123954              -8.5007
        71                         -0.2584392              -7.0325
        72                         -0.2506148              -6.8196
        73                         -0.2049472              -5.5769
        74                         -0.2004460              -5.4544
        75                         -0.1445882              -3.9344
        76                         -0.1435510              -3.9062
        77                         -0.1432418              -3.8978
        78                         -0.1375349              -3.7425
       ...                                ...                  ...
       134                          0.7687471              20.9187
      -------------------------------------------------------------
                  HL-Gap            0.0643117 Eh            1.7500 eV

Wiberg/Mayer (AO) data.
largest (>0.10) Wiberg bond orders for each atom

     #   Z sym  total        # sym  WBO       # sym  WBO       # sym  WBO
 ---------------------------------------------------------------------------
     1   6 C    3.860 --    28 H    0.985    26 H    0.979    27 H    0.978
                             2 O    0.885
     2   8 O    2.220 --     3 C    1.140     1 C    0.885     4 O    0.146
     3   6 C    3.854 --     4 O    1.691     2 O    1.140     5 C    0.946
     4   8 O    1.950 --     3 C    1.691     2 O    0.146
     5   6 C    3.955 --    25 N    1.801     6 C    0.988     3 C    0.946
     6   6 C    3.855 --     7 O    1.812     5 C    0.988     8 C    0.905
     7   8 O    2.017 --     6 C    1.812
     8   6 C    3.902 --     9 O    1.642    10 N    1.241     6 C    0.905
     9   8 O    1.934 --     8 C    1.642    10 N    0.183
    10   7 N    3.357 --     8 C    1.241    11 C    0.935    29 H    0.881
                             9 O    0.183
    11   6 C    3.914 --    25 N    0.995    12 C    0.951    13 C    0.936
                            10 N    0.935
    12   6 C    3.981 --    31 H    0.982    32 H    0.979    30 H    0.979
                            11 C    0.951
    13   6 C    3.927 --    14 C    0.997    15 C    0.995    11 C    0.936
                            16 N    0.927
    14   6 C    3.988 --    13 C    0.997    33 H    0.982    34 H    0.982
                            35 H    0.977
    15   6 C    3.988 --    13 C    0.995    36 H    0.982    37 H    0.980
                            38 H    0.976
    16   7 N    3.348 --    17 C    1.257    13 C    0.927    39 H    0.892
                            18 O    0.177
    17   6 C    3.917 --    18 O    1.585    16 N    1.257    19 C    0.992
    18   8 O    1.904 --    17 C    1.585    16 N    0.177
    19   6 C    3.872 --    20 N    1.623    24 O    1.046    17 C    0.992
    20   7 N    3.000 --    19 C    1.623    21 N    1.199
    21   7 N    2.982 --    22 C    1.611    20 N    1.199
    22   6 C    3.868 --    21 N    1.611    24 O    1.071    23 C    1.032
    23   6 C    3.986 --    22 C    1.032    40 H    0.982    41 H    0.966
                            42 H    0.960
    24   8 O    2.314 --    22 C    1.071    19 C    1.046
    25   7 N    3.051 --     5 C    1.801    11 C    0.995
    26   1 H    1.005 --     1 C    0.979
    27   1 H    1.005 --     1 C    0.978
    28   1 H    1.009 --     1 C    0.985
    29   1 H    0.927 --    10 N    0.881
    30   1 H    0.999 --    12 C    0.979
    31   1 H    0.999 --    12 C    0.982
    32   1 H    0.999 --    12 C    0.979
    33   1 H    1.014 --    14 C    0.982
    34   1 H    1.001 --    14 C    0.982
    35   1 H    1.010 --    14 C    0.977
    36   1 H    1.000 --    15 C    0.982
    37   1 H    0.999 --    15 C    0.980
    38   1 H    1.005 --    15 C    0.976
    39   1 H    0.946 --    16 N    0.892
    40   1 H    0.998 --    23 C    0.982
    41   1 H    0.997 --    23 C    0.966
    42   1 H    0.996 --    23 C    0.960
 ---------------------------------------------------------------------------

           -------------------------------------------------
          | TOTAL ENERGY              -82.983622562283 Eh   |
          | GRADIENT NORM               0.000674780235 Eh/α |
          | HOMO-LUMO GAP               1.750009615528 eV   |
           -------------------------------------------------

 * finished run on 2023/06/21 at 17:25:22.146
