   * xtb version 6.5.1 (579679a) compiled by 'ehlert@majestix' on 2022-07-11
          program call               : /lustre/hpc/kemi/ree/PhD/git/ReactivityQM/dep/xtb-6.5.1/bin/xtb --gfn 1 /lustre/hpc/kemi/ree/PhD/git/ReactivityQM/calculations/RaltegravirCLI/reac02prodE01/conf20/RaltegravirCLI_reac02prodE01_conf20_gfn1.xyz --opt --vfukui --chrg -1 --uhf 0 --alpb DMSO

   ID    Z sym.   atoms
    1    6 C      1, 3-6, 9-11, 14-18, 20-22, 24
    2    7 N      2, 7, 8, 13
    3    8 O      12, 23, 25
    4    9 F      19
    5    1 H      26-47

      * Solvation model:               ALPB
        Solvent                        DMSO
        Solvent mass                       7.8130E+01 g/mol
          :  Hamiltonian                  GFN1-xTB          :
 * total energy  :   -80.1804004 Eh     change       -0.1584510E-10 Eh
 * total energy  :   -80.1909611 Eh     change       -0.1056069E-01 Eh
 * total energy  :   -80.1937277 Eh     change       -0.2766595E-02 Eh
 * total energy  :   -80.1942899 Eh     change       -0.5621865E-03 Eh
 * total energy  :   -80.1945493 Eh     change       -0.2593971E-03 Eh
 * total energy  :   -80.1946747 Eh     change       -0.1254886E-03 Eh
 * total energy  :   -80.1947814 Eh     change       -0.1066088E-03 Eh
 * total energy  :   -80.1948770 Eh     change       -0.9565807E-04 Eh
 * total energy  :   -80.1949734 Eh     change       -0.9639060E-04 Eh
 * total energy  :   -80.1950471 Eh     change       -0.7369420E-04 Eh
 * total energy  :   -80.1971093 Eh     change       -0.5809033E-05 Eh
 * total energy  :   -80.1971163 Eh     change       -0.6912515E-05 Eh
 * total energy  :   -80.1971354 Eh     change       -0.1918886E-04 Eh
 * total energy  :   -80.1970639 Eh     change        0.7153469E-04 Eh
 * total energy  :   -80.1971657 Eh     change       -0.1018182E-03 Eh
 * total energy  :   -80.1971758 Eh     change       -0.1009746E-04 Eh
 * total energy  :   -80.1971913 Eh     change       -0.1546060E-04 Eh
 * total energy  :   -80.1971971 Eh     change       -0.5786505E-05 Eh
 * total energy  :   -80.1972010 Eh     change       -0.3919899E-05 Eh
   *** GEOMETRY OPTIMIZATION CONVERGED AFTER 69 ITERATIONS ***

 final structure:
================
47
 xtb: 6.5.1 (579679a)
C           -3.34287494231588        0.29703986615284       -2.40463963506443
N           -2.37992218752042       -0.21681167561094       -1.43582240073078
C           -2.38891654472040        0.06709829872816       -0.08776434497015
C           -3.46721432226127        0.93376862151071        0.56758403549598
C           -3.19247477037484        2.42119395546451        0.29898239965628
C           -4.90152342046713        0.54607284047421        0.15926109539757
N           -3.33292977627765        0.73961286970613        2.01388372026321
N           -1.46251483024496       -0.37298433453285        0.70027461163253
C           -0.43686316474189       -1.16502418321510        0.26817910313932
C            0.64121156425176       -1.56240748723021        1.37415145780011
C            0.62275818171163       -3.13297724453827        1.45222675832057
O            0.46313058706973       -0.97525262417200        2.51839522040548
N            2.00582834732126       -1.23051236344765        0.74007876292986
C            2.19111916707714        0.21567157451737        0.67244630519163
C            3.64901084416336        0.57949063517725        0.52739085520453
C            4.64365245687959       -0.27740458438601        0.99706166071005
C            5.98533233943856        0.05957267922903        0.89217848092935
C            6.31098700676985        1.27145495406375        0.31016873965995
F            7.61308151977118        1.61054911533798        0.20268656618910
C            5.35574501992790        2.14796395575105       -0.17035916742331
C            4.01856489399604        1.79076864723014       -0.05638366365011
C           -0.42770877898051       -1.53972074746344       -1.04485760368515
O            0.51657437423226       -2.36591202657231       -1.59422544813540
C           -1.42079832047676       -1.06831977407608       -1.96946496714236
O           -1.41891547545194       -1.37833635352136       -3.16974431866317
H           -4.23540917153306       -0.32797036240524       -2.41850238130478
H           -2.87792188944477        0.26416640757020       -3.39061840100468
H           -3.61061789241411        1.32328423569068       -2.17729853123438
H           -3.97874921204522        3.02373711356335        0.75156911544637
H           -3.16255958056574        2.64101625521598       -0.76556837384284
H           -2.23645772275677        2.70119843802204        0.74236485432942
H           -5.21817316758394        1.04789991450990       -0.75131825626791
H           -5.58615804042577        0.84497578916622        0.95224835235967
H           -4.98561493328191       -0.53114559527000        0.02322095024936
H           -3.99593083996047        1.35093861090772        2.46969124365398
H           -3.60729964791141       -0.21125755004092        2.23566205024866
H            1.38570189719876       -3.44395087114577        2.16572457617985
H            0.82001176668054       -3.59865838539390        0.48942309438712
H           -0.35289057710186       -3.45217224638725        1.81650898493487
H            2.02586726475325       -1.60651564873747       -0.20547624778565
H            1.81865506925395        0.64836049829074        1.61616141550787
H            1.61477284124263        0.67284052289108       -0.14947799987306
H            4.35664807592597       -1.22634547184026        1.44111474721819
H            6.76529862347824       -0.59982105089757        1.25143015364448
H            5.65302044234171        3.08392622840974       -0.62528062968977
H            3.25703670694081        2.46606428164454       -0.43218169422307
H            0.30643121843198       -2.46516472837154       -2.53826124637321

          :  Hamiltonian                  GFN1-xTB          :
         :: total energy             -80.197200987695 Eh    ::
         :: gradient norm              0.000526856246 Eh/a0 ::
         :: HOMO-LUMO gap              1.776963047576 eV    ::
         :: SCC energy               -81.050995783131 Eh    ::
         :: -> Gsolv                  -0.127995167126 Eh    ::
         :: repulsion energy           0.884314669227 Eh    ::

    * Orbital Energies and Occupations

         #    Occupation            Energy/Eh            Energy/eV
      -------------------------------------------------------------
         1        2.0000           -0.8516498             -23.1746
       ...           ...                  ...                  ...
        56        2.0000           -0.4578540             -12.4588
        57        2.0000           -0.4478790             -12.1874
        58        2.0000           -0.4365673             -11.8796
        59        2.0000           -0.4347557             -11.8303
        60        2.0000           -0.4294566             -11.6861
        61        2.0000           -0.4238636             -11.5339
        62        2.0000           -0.4150166             -11.2932
        63        2.0000           -0.4043602             -11.0032
        64        2.0000           -0.3962490             -10.7825
        65        2.0000           -0.3850810             -10.4786
        66        2.0000           -0.3657746              -9.9532
        67        2.0000           -0.3362043              -9.1486
        68        2.0000           -0.3296995              -8.9716 (HOMO)
        69                         -0.2643973              -7.1946 (LUMO)
        70                         -0.2583469              -7.0300
        71                         -0.2472776              -6.7288
        72                         -0.2369658              -6.4482
        73                         -0.1339976              -3.6463
        74                         -0.1329941              -3.6190
        75                         -0.1283010              -3.4912
        76                         -0.1176642              -3.2018
        77                         -0.1100224              -2.9939
        78                         -0.0994693              -2.7067
        79                         -0.0878348              -2.3901
       ...                                ...                  ...
       144                          0.6993923              19.0314
      -------------------------------------------------------------
                  HL-Gap            0.0653022 Eh            1.7770 eV

Wiberg/Mayer (AO) data.
largest (>0.10) Wiberg bond orders for each atom

     #   Z sym  total        # sym  WBO       # sym  WBO       # sym  WBO
 ---------------------------------------------------------------------------
     1   6 C    3.938 --    26 H    0.978    28 H    0.978    27 H    0.974
                             2 N    0.941
     2   7 N    3.487 --     3 C    1.156    24 C    1.115     1 C    0.941
                            25 O    0.123
     3   6 C    3.930 --     8 N    1.577     2 N    1.156     4 C    0.974
     4   6 C    3.970 --     7 N    0.989     5 C    0.986     6 C    0.985
                             3 C    0.974
     5   6 C    3.995 --     4 C    0.986    31 H    0.985    29 H    0.984
                            30 H    0.979
     6   6 C    3.994 --    34 H    0.985     4 C    0.985    33 H    0.983
                            32 H    0.981
     7   7 N    2.958 --     4 C    0.989    35 H    0.952    36 H    0.948
     8   7 N    3.027 --     3 C    1.577     9 C    1.210
     9   6 C    3.914 --    22 C    1.512     8 N    1.210    10 C    0.876
    10   6 C    3.935 --    12 O    1.233    11 C    0.927     9 C    0.876
                            13 N    0.846
    11   6 C    3.988 --    38 H    0.989    39 H    0.988    37 H    0.987
                            10 C    0.927
    12   8 O    1.505 --    10 C    1.233
    13   7 N    2.996 --    14 C    0.997    40 H    0.954    10 C    0.846
    14   6 C    3.984 --    15 C    1.006    13 N    0.997    42 H    0.968
                            41 H    0.949
    15   6 C    3.985 --    21 C    1.411    16 C    1.409    14 C    1.006
    16   6 C    3.993 --    17 C    1.445    15 C    1.409    43 H    0.969
                            20 C    0.110
    17   6 C    3.992 --    16 C    1.445    18 C    1.401    44 H    0.971
                            21 C    0.109
    18   6 C    3.855 --    20 C    1.403    17 C    1.401    19 F    0.910
    19   9 F    1.034 --    18 C    0.910
    20   6 C    3.992 --    21 C    1.442    18 C    1.403    45 H    0.971
                            16 C    0.110
    21   6 C    3.994 --    20 C    1.442    15 C    1.411    46 H    0.973
                            17 C    0.109
    22   6 C    3.907 --     9 C    1.512    24 C    1.141    23 O    1.025
    23   8 O    2.025 --    22 C    1.025    47 H    0.825
    24   6 C    3.913 --    25 O    1.493    22 C    1.141     2 N    1.115
    25   8 O    1.846 --    24 C    1.493     2 N    0.123
    26   1 H    1.005 --     1 C    0.978
    27   1 H    1.013 --     1 C    0.974
    28   1 H    1.010 --     1 C    0.978
    29   1 H    1.001 --     5 C    0.984
    30   1 H    1.006 --     5 C    0.979
    31   1 H    1.009 --     5 C    0.985
    32   1 H    1.005 --     6 C    0.981
    33   1 H    1.004 --     6 C    0.983
    34   1 H    1.004 --     6 C    0.985
    35   1 H    0.968 --     7 N    0.952
    36   1 H    0.971 --     7 N    0.948
    37   1 H    1.022 --    11 C    0.987
    38   1 H    1.014 --    11 C    0.989
    39   1 H    1.018 --    11 C    0.988
    40   1 H    0.990 --    13 N    0.954
    41   1 H    1.041 --    14 C    0.949
    42   1 H    1.009 --    14 C    0.968
    43   1 H    1.024 --    16 C    0.969
    44   1 H    1.001 --    17 C    0.971
    45   1 H    1.000 --    20 C    0.971
    46   1 H    1.003 --    21 C    0.973
    47   1 H    0.870 --    23 O    0.825
 ---------------------------------------------------------------------------

           -------------------------------------------------
          | TOTAL ENERGY              -80.197200987695 Eh   |
          | GRADIENT NORM               0.000526856246 Eh/α |
          | HOMO-LUMO GAP               1.776963047576 eV   |
           -------------------------------------------------

 * finished run on 2023/06/20 at 14:56:13.032
