   * xtb version 6.5.1 (579679a) compiled by 'ehlert@majestix' on 2022-07-11
          program call               : /lustre/hpc/kemi/ree/PhD/git/ReactivityQM/dep/xtb-6.5.1/bin/xtb --gfn 1 /lustre/hpc/kemi/ree/PhD/git/ReactivityQM/calculations/R02deprot/reac01prodE08/conf19/R02deprot_reac01prodE08_conf19_gfn1.xyz --opt --vfukui --chrg -2 --uhf 0 --alpb DMSO

   ID    Z sym.   atoms
    1    6 C      1, 3, 5, 7-10, 12, 14, 15, 18, 19, 22, 24
    2    8 O      2, 4, 13, 20, 23, 25
    3    7 N      6, 11, 16, 17, 21
    4    1 H      26-42

      * Solvation model:               ALPB
        Solvent                        DMSO
        Solvent mass                       7.8130E+01 g/mol
          :  Hamiltonian                  GFN1-xTB          :
 * total energy  :   -83.6071030 Eh     change       -0.1023182E-11 Eh
 * total energy  :   -83.6220428 Eh     change       -0.1493987E-01 Eh
 * total energy  :   -83.6277301 Eh     change       -0.5687226E-02 Eh
 * total energy  :   -83.6285969 Eh     change       -0.8668262E-03 Eh
 * total energy  :   -83.6291484 Eh     change       -0.5515307E-03 Eh
 * total energy  :   -83.6293630 Eh     change       -0.2146142E-03 Eh
 * total energy  :   -83.6296037 Eh     change       -0.2406864E-03 Eh
 * total energy  :   -83.6298299 Eh     change       -0.2261531E-03 Eh
 * total energy  :   -83.6300309 Eh     change       -0.2010800E-03 Eh
 * total energy  :   -83.6301932 Eh     change       -0.1622507E-03 Eh
 * total energy  :   -83.6319916 Eh     change       -0.1996178E-04 Eh
 * total energy  :   -83.6319998 Eh     change       -0.8206894E-05 Eh
 * total energy  :   -83.6320087 Eh     change       -0.8849590E-05 Eh
 * total energy  :   -83.6320148 Eh     change       -0.6142692E-05 Eh
 * total energy  :   -83.6320286 Eh     change       -0.1377729E-04 Eh
 * total energy  :   -83.6320362 Eh     change       -0.7587779E-05 Eh
 * total energy  :   -83.6320437 Eh     change       -0.7562543E-05 Eh
 * total energy  :   -83.6320514 Eh     change       -0.7654215E-05 Eh
 * total energy  :   -83.6320549 Eh     change       -0.3548885E-05 Eh
   *** GEOMETRY OPTIMIZATION CONVERGED AFTER 51 ITERATIONS ***

 final structure:
================
42
 xtb: 6.5.1 (579679a)
C            6.76011921660939       -0.26411463511637        1.24979775760678
O            5.57735225440354        0.33698561005862        0.72570476478048
C            4.51829336094485       -0.50073860693595        0.56055207237720
O            4.60777862591433       -1.68216509484753        0.84254962896151
C            3.30825156933818        0.15324441810212        0.03757080932104
N            2.23827143050089       -0.69661945739373       -0.06521578858996
C            1.10120939338506       -0.19219714624227       -0.49336711774000
C           -0.07109137949422       -1.16005666184419       -0.64319206228392
C            0.13070835065822       -2.39758871119599        0.23938059799610
C           -0.16171879749813       -1.56533277180915       -2.12489164724184
N           -1.28433993890397       -0.45483399900300       -0.25017890225806
C           -2.51968779379452       -0.95584555292564       -0.24346133761704
O           -2.82181469103872       -2.09620447708039       -0.60218419337047
C           -3.57223010570581        0.06394060582882        0.32460317029984
C           -4.24893539489028       -0.61989023581516        1.53083348012556
N           -2.92671495397916        1.31176414773162        0.69539260902591
N           -3.50616793239166        2.27711843078407       -0.08732142365082
C           -4.39969765609857        1.75525542326431       -0.84168947042352
C           -5.27672328946582        2.44520462512557       -1.82835272097312
O           -4.54240884881308        0.37076448637290       -0.67626941994577
N            0.86608822612136        1.06559903567703       -0.84944895131031
C            1.87653484721338        1.97730900165365       -0.80120316945636
O            1.71143670107931        3.16402175115867       -1.13896294425329
C            3.17598829928032        1.47651618534510       -0.32672341472122
O            4.17090562284420        2.40436755030208       -0.28745702130828
H            7.10251415370836       -1.06730604793561        0.59171955892256
H            6.56871684074885       -0.67449825506761        2.24519479853987
H            7.51560399816722        0.51606458176566        1.30860773475529
H            1.07363483160774       -2.87730337128643       -0.01992116335530
H            0.16646090902869       -2.10664065379869        1.28919448492032
H           -0.68125461450662       -3.10858421897249        0.09364773918612
H            0.76456550655974       -2.05252749379988       -2.42618962866189
H           -0.99014364800672       -2.25472735754698       -2.28348759768802
H           -0.31042673212852       -0.67857419798840       -2.74150626774059
H           -1.20194568398453        0.51860016477669        0.07324399369838
H           -5.03449289729258        0.02706288281478        1.91542793604845
H           -4.68049356092848       -1.57319500385063        1.22864802701754
H           -3.50995477603387       -0.78614617066852        2.31227338647645
H           -6.33099334427731        2.28602707830969       -1.59183552313917
H           -5.10452444147431        2.07365711976661       -2.84155877037976
H           -5.06991149355459        3.51425932060806       -1.80540901859141
H            5.01124183613816        2.02732670169188        0.00982100464476

          :  Hamiltonian                  GFN1-xTB          :
         :: total energy             -83.632054926531 Eh    ::
         :: gradient norm              0.000681498080 Eh/a0 ::
         :: HOMO-LUMO gap              0.174717684751 eV    ::
         :: SCC energy               -84.364316680394 Eh    ::
         :: -> Gsolv                  -0.277027633579 Eh    ::
         :: repulsion energy           0.758273532971 Eh    ::

    * Orbital Energies and Occupations

         #    Occupation            Energy/Eh            Energy/eV
      -------------------------------------------------------------
         1        2.0000           -0.8117810             -22.0897
       ...           ...                  ...                  ...
        56        2.0000           -0.4460142             -12.1367
        57        2.0000           -0.4439923             -12.0816
        58        2.0000           -0.4218435             -11.4789
        59        2.0000           -0.4101798             -11.1616
        60        2.0000           -0.4020158             -10.9394
        61        2.0000           -0.3975656             -10.8183
        62        2.0000           -0.3968236             -10.7981
        63        2.0000           -0.3879333             -10.5562
        64        2.0000           -0.3781951             -10.2912
        65        2.0000           -0.3611034              -9.8261
        66        2.0000           -0.3592099              -9.7746
        67        2.0000           -0.3512122              -9.5570
        68        1.9341           -0.2774624              -7.5501 (HOMO)
        69        0.0659           -0.2710417              -7.3754 (LUMO)
        70                         -0.2155925              -5.8666
        71                         -0.2025625              -5.5120
        72                         -0.1812951              -4.9333
        73                         -0.1645163              -4.4767
        74                         -0.1243860              -3.3847
        75                         -0.1088489              -2.9619
        76                         -0.1000141              -2.7215
        77                         -0.0948578              -2.5812
        78                         -0.0936444              -2.5482
        79                         -0.0887460              -2.4149
       ...                                ...                  ...
       134                          0.7357523              20.0208
      -------------------------------------------------------------
                  HL-Gap            0.0064208 Eh            0.1747 eV

Wiberg/Mayer (AO) data.
largest (>0.10) Wiberg bond orders for each atom

     #   Z sym  total        # sym  WBO       # sym  WBO       # sym  WBO
 ---------------------------------------------------------------------------
     1   6 C    3.884 --    28 H    0.987    27 H    0.981    26 H    0.981
                             2 O    0.907
     2   8 O    2.166 --     3 C    1.039     1 C    0.907     4 O    0.113
     3   6 C    3.800 --     4 O    1.623     5 C    1.050     2 O    1.039
     4   8 O    1.876 --     3 C    1.623     2 O    0.113
     5   6 C    3.951 --    24 C    1.455     6 N    1.198     3 C    1.050
     6   7 N    2.986 --     7 C    1.458     5 C    1.198
     7   6 C    3.956 --     6 N    1.458    21 N    1.374     8 C    0.969
     8   6 C    3.945 --     9 C    0.994    10 C    0.979     7 C    0.969
                            11 N    0.931
     9   6 C    3.996 --     8 C    0.994    30 H    0.987    29 H    0.985
                            31 H    0.984
    10   6 C    3.995 --    32 H    0.988    34 H    0.986    33 H    0.983
                             8 C    0.979
    11   7 N    3.372 --    12 C    1.321     8 C    0.931    35 H    0.866
                            13 O    0.169
    12   6 C    3.868 --    13 O    1.554    11 N    1.321    14 C    0.888
    13   8 O    1.852 --    12 C    1.554    11 N    0.169
    14   6 C    3.896 --    16 N    1.020    15 C    0.965    20 O    0.916
                            12 C    0.888
    15   6 C    3.991 --    38 H    0.988    37 H    0.986    36 H    0.986
                            14 C    0.965
    16   7 N    2.600 --    17 N    1.172    14 C    1.020    18 C    0.187
    17   7 N    3.004 --    18 C    1.671    16 N    1.172
    18   6 C    3.845 --    17 N    1.671    19 C    1.015    20 O    0.941
                            16 N    0.187
    19   6 C    3.996 --    18 C    1.015    41 H    0.987    39 H    0.977
                            40 H    0.977
    20   8 O    2.058 --    18 C    0.941    14 C    0.916
    21   7 N    2.971 --     7 C    1.374    22 C    1.228    23 O    0.122
    22   6 C    3.926 --    23 O    1.487    21 N    1.228    24 C    1.080
    23   8 O    1.770 --    22 C    1.487    21 N    0.122
    24   6 C    3.872 --     5 C    1.455    22 C    1.080    25 O    1.050
    25   8 O    2.032 --    24 C    1.050    42 H    0.828
    26   1 H    1.012 --     1 C    0.981
    27   1 H    1.011 --     1 C    0.981
    28   1 H    1.013 --     1 C    0.987
    29   1 H    1.022 --     9 C    0.985
    30   1 H    1.011 --     9 C    0.987
    31   1 H    1.017 --     9 C    0.984
    32   1 H    1.008 --    10 C    0.988
    33   1 H    1.016 --    10 C    0.983
    34   1 H    1.012 --    10 C    0.986
    35   1 H    1.005 --    11 N    0.866
    36   1 H    1.019 --    15 C    0.986
    37   1 H    1.014 --    15 C    0.986
    38   1 H    1.015 --    15 C    0.988
    39   1 H    1.009 --    19 C    0.977
    40   1 H    1.009 --    19 C    0.977
    41   1 H    1.010 --    19 C    0.987
    42   1 H    0.879 --    25 O    0.828
 ---------------------------------------------------------------------------

           -------------------------------------------------
          | TOTAL ENERGY              -83.632054926531 Eh   |
          | GRADIENT NORM               0.000681498080 Eh/α |
          | HOMO-LUMO GAP               0.174717684751 eV   |
           -------------------------------------------------

 * finished run on 2023/06/20 at 17:52:12.951
