   * xtb version 6.5.1 (579679a) compiled by 'ehlert@majestix' on 2022-07-11
          program call               : /lustre/hpc/kemi/ree/PhD/git/ReactivityQM/dep/xtb-6.5.1/bin/xtb --gfn 1 /lustre/hpc/kemi/ree/PhD/git/ReactivityQM/calculations/R01/reac02prodE07/conf06/R01_reac02prodE07_conf06_gfn1.xyz --opt --vfukui --chrg -1 --uhf 0 --alpb DMSO

   ID    Z sym.   atoms
    1    6 C      1, 3, 5, 6, 8, 10, 12-15
    2    8 O      2, 4, 7, 9
    3    7 N      11, 16, 17
    4    1 H      18-33

      * Solvation model:               ALPB
        Solvent                        DMSO
        Solvent mass                       7.8130E+01 g/mol
          :  Hamiltonian                  GFN1-xTB          :
 * total energy  :   -58.5037140 Eh     change       -0.6522782E-11 Eh
 * total energy  :   -58.5191774 Eh     change       -0.1546345E-01 Eh
 * total energy  :   -58.5232424 Eh     change       -0.4064946E-02 Eh
 * total energy  :   -58.5237673 Eh     change       -0.5249369E-03 Eh
 * total energy  :   -58.5241828 Eh     change       -0.4155255E-03 Eh
 * total energy  :   -58.5244378 Eh     change       -0.2549885E-03 Eh
 * total energy  :   -58.5249617 Eh     change       -0.5238480E-03 Eh
 * total energy  :   -58.5254961 Eh     change       -0.5343848E-03 Eh
 * total energy  :   -58.5263680 Eh     change       -0.8719257E-03 Eh
 * total energy  :   -58.5265302 Eh     change       -0.1622526E-03 Eh
 * total energy  :   -58.5310503 Eh     change       -0.3377238E-04 Eh
 * total energy  :   -58.5310691 Eh     change       -0.1876304E-04 Eh
 * total energy  :   -58.5310867 Eh     change       -0.1761825E-04 Eh
 * total energy  :   -58.5310962 Eh     change       -0.9545535E-05 Eh
 * total energy  :   -58.5311036 Eh     change       -0.7388127E-05 Eh
 * total energy  :   -58.5311104 Eh     change       -0.6815699E-05 Eh
 * total energy  :   -58.5311191 Eh     change       -0.8687530E-05 Eh
 * total energy  :   -58.5311247 Eh     change       -0.5598746E-05 Eh
 * total energy  :   -58.5311285 Eh     change       -0.3733270E-05 Eh
   *** GEOMETRY OPTIMIZATION CONVERGED AFTER 88 ITERATIONS ***

 final structure:
================
33
 xtb: 6.5.1 (579679a)
C            3.69141805545311       -2.83880143439197        0.76180489412023
O            2.46471519086074       -2.15057184645373        0.63190489097541
C            2.58239202768794       -0.76112804718505        0.46029332380520
O            3.74801232026607       -0.24972747758214        0.46883850892512
C            1.40290703033146       -0.06313691118676        0.31555616222908
C            1.41975662309718        1.38431249796805        0.08988964937042
O            2.63346351791503        1.99263787257265       -0.09339429222939
C            0.26172710334648        2.05870734050691        0.00344477847759
O            0.09721451163683        3.41967779505069       -0.23384341915771
C            0.57292860192352        3.89190929707050       -1.48676551999150
N           -0.97893246337527        1.37625255562929        0.26578242261977
C           -0.91574502935571       -0.02823631572682        0.16668588600945
C           -2.27167522139664       -0.70579307757790        0.08154427330351
C           -2.11176897800689       -2.15177870528641       -0.40657803791166
C           -2.92605549045726       -0.67649294549456        1.47084577760368
N           -3.11774627563054        0.06586701742307       -0.83543438731907
N            0.15124379287855       -0.71575818102575        0.24801675567809
H            4.32598737075713       -2.69868971083260       -0.12298217105290
H            3.45836781640475       -3.90006426494229        0.86989847416730
H            4.25060161537273       -2.50232884601920        1.64484475710574
H            3.31324938672162        1.25859138699135        0.07663935235646
H            0.09367974716482        3.36343201116487       -2.32028279665168
H            1.66075275271500        3.77658340229395       -1.57212034812468
H            0.31973146822613        4.95211269652571       -1.54559050818654
H           -1.76601269863446        1.76741290333172       -0.24156170566906
H           -1.65547836505750       -2.16202395198544       -1.39634675807266
H           -3.08258605089322       -2.64149683741323       -0.46134969759100
H           -1.46796294460962       -2.70603945479159        0.27755228947789
H           -2.30415225993880       -1.20846292066516        2.19148656905217
H           -3.90677212737943       -1.15011174673927        1.43842513686037
H           -3.04558305413690        0.35584014285540        1.80086499563764
H           -4.07329016666201       -0.25115509456665       -0.75891312908062
H           -2.82438780722599       -0.10153814951487       -1.78915612673778

          :  Hamiltonian                  GFN1-xTB          :
         :: total energy             -58.531128463458 Eh    ::
         :: gradient norm              0.000619684351 Eh/a0 ::
         :: HOMO-LUMO gap              2.232874667407 eV    ::
         :: SCC energy               -59.064882959868 Eh    ::
         :: -> Gsolv                  -0.105568803031 Eh    ::
         :: repulsion energy           0.551727279121 Eh    ::

    * Orbital Energies and Occupations

         #    Occupation            Energy/Eh            Energy/eV
      -------------------------------------------------------------
         1        2.0000           -0.7655955             -20.8329
       ...           ...                  ...                  ...
        36        2.0000           -0.4745705             -12.9137
        37        2.0000           -0.4693070             -12.7705
        38        2.0000           -0.4624289             -12.5833
        39        2.0000           -0.4575835             -12.4515
        40        2.0000           -0.4488315             -12.2133
        41        2.0000           -0.4383037             -11.9269
        42        2.0000           -0.4327949             -11.7769
        43        2.0000           -0.4094658             -11.1421
        44        2.0000           -0.3991522             -10.8615
        45        2.0000           -0.3916416             -10.6571
        46        2.0000           -0.3763905             -10.2421
        47        2.0000           -0.3688684             -10.0374
        48        2.0000           -0.2933867              -7.9835 (HOMO)
        49                         -0.2113300              -5.7506 (LUMO)
        50                         -0.1809586              -4.9241
        51                         -0.1150003              -3.1293
        52                         -0.1097878              -2.9875
        53                         -0.1080591              -2.9404
        54                         -0.1043800              -2.8403
        55                         -0.0875692              -2.3829
        56                         -0.0847943              -2.3074
        57                         -0.0638375              -1.7371
        58                         -0.0572641              -1.5582
        59                         -0.0513152              -1.3964
       ...                                ...                  ...
       100                          0.7098409              19.3158
      -------------------------------------------------------------
                  HL-Gap            0.0820566 Eh            2.2329 eV

Wiberg/Mayer (AO) data.
largest (>0.10) Wiberg bond orders for each atom

     #   Z sym  total        # sym  WBO       # sym  WBO       # sym  WBO
 ---------------------------------------------------------------------------
     1   6 C    3.919 --    19 H    0.987    20 H    0.981    18 H    0.981
                             2 O    0.951
     2   8 O    2.063 --     1 C    0.951     3 C    0.936
     3   6 C    3.872 --     5 C    1.431     4 O    1.334     2 O    0.936
     4   8 O    1.792 --     3 C    1.334    21 H    0.129     5 C    0.122
     5   6 C    3.861 --     3 C    1.431     6 C    1.068    17 N    1.054
                             4 O    0.122
     6   6 C    3.913 --     8 C    1.652     5 C    1.068     7 O    1.034
     7   8 O    1.973 --     6 C    1.034    21 H    0.746
     8   6 C    3.823 --     6 C    1.652    11 N    0.963     9 O    0.950
     9   8 O    2.026 --     8 C    0.950    10 C    0.935
    10   6 C    3.915 --    24 H    0.986    22 H    0.983    23 H    0.981
                             9 O    0.935
    11   7 N    3.194 --    12 C    1.047     8 C    0.963    25 H    0.914
                            17 N    0.112
    12   6 C    3.946 --    17 N    1.727    11 N    1.047    13 C    0.975
    13   6 C    3.964 --    14 C    0.992    15 C    0.986    16 N    0.975
                            12 C    0.975
    14   6 C    3.996 --    13 C    0.992    27 H    0.988    26 H    0.985
                            28 H    0.983
    15   6 C    3.994 --    29 H    0.987    13 C    0.986    31 H    0.986
                            30 H    0.986
    16   7 N    2.973 --    13 C    0.975    33 H    0.948    32 H    0.948
    17   7 N    3.026 --    12 C    1.727     5 C    1.054    11 N    0.112
    18   1 H    1.020 --     1 C    0.981
    19   1 H    1.020 --     1 C    0.987
    20   1 H    1.021 --     1 C    0.981
    21   1 H    0.889 --     7 O    0.746     4 O    0.129
    22   1 H    1.014 --    10 C    0.983
    23   1 H    1.025 --    10 C    0.981
    24   1 H    1.019 --    10 C    0.986
    25   1 H    0.984 --    11 N    0.914
    26   1 H    1.011 --    14 C    0.985
    27   1 H    1.006 --    14 C    0.988
    28   1 H    1.019 --    14 C    0.983
    29   1 H    1.008 --    15 C    0.987
    30   1 H    1.003 --    15 C    0.986
    31   1 H    1.011 --    15 C    0.986
    32   1 H    0.963 --    16 N    0.948
    33   1 H    0.964 --    16 N    0.948
 ---------------------------------------------------------------------------

           -------------------------------------------------
          | TOTAL ENERGY              -58.531128463458 Eh   |
          | GRADIENT NORM               0.000619684351 Eh/α |
          | HOMO-LUMO GAP               2.232874667407 eV   |
           -------------------------------------------------

 * finished run on 2023/06/20 at 15:02:04.974
