   * xtb version 6.5.1 (579679a) compiled by 'ehlert@majestix' on 2022-07-11
          program call               : /lustre/hpc/kemi/ree/PhD/git/ReactivityQM/dep/xtb-6.5.1/bin/xtb --gfn 1 /lustre/hpc/kemi/ree/PhD/git/ReactivityQM/calculations/RaltegravirCLI/reac01prodN06/conf06/RaltegravirCLI_reac01prodN06_conf06_gfn1.xyz --opt --vfukui --chrg 1 --uhf 0 --alpb DMSO

   ID    Z sym.   atoms
    1    6 C      1, 2, 5-7
    2    7 N      3, 4
    3    8 O      8, 10
    4   17 Cl     9
    5    1 H      11-16

      * Solvation model:               ALPB
        Solvent                        DMSO
        Solvent mass                       7.8130E+01 g/mol
          :  Hamiltonian                  GFN1-xTB          :
 * total energy  :   -33.2671053 Eh     change       -0.3164047E-10 Eh
 * total energy  :   -33.2755001 Eh     change       -0.8394822E-02 Eh
 * total energy  :   -33.2814132 Eh     change       -0.5913072E-02 Eh
 * total energy  :   -33.2830403 Eh     change       -0.1627084E-02 Eh
 * total energy  :   -33.2848065 Eh     change       -0.1766254E-02 Eh
 * total energy  :   -33.2854799 Eh     change       -0.6733891E-03 Eh
 * total energy  :   -33.2861085 Eh     change       -0.6286118E-03 Eh
 * total energy  :   -33.2879410 Eh     change       -0.1832473E-02 Eh
 * total energy  :   -33.2907568 Eh     change       -0.2815804E-02 Eh
 * total energy  :   -33.2964174 Eh     change       -0.5660638E-02 Eh
 * total energy  :   -33.3942331 Eh     change       -0.4118334E-04 Eh
 * total energy  :   -33.3942768 Eh     change       -0.4361960E-04 Eh
 * total energy  :   -33.3943182 Eh     change       -0.4147791E-04 Eh
 * total energy  :   -33.3942271 Eh     change        0.9110880E-04 Eh
 * total energy  :   -33.3943520 Eh     change       -0.1248704E-03 Eh
 * total energy  :   -33.3943615 Eh     change       -0.9485725E-05 Eh
 * total energy  :   -33.3943694 Eh     change       -0.7930072E-05 Eh
 * total energy  :   -33.3943738 Eh     change       -0.4352486E-05 Eh
 * total energy  :   -33.3943759 Eh     change       -0.2178434E-05 Eh
   *** GEOMETRY OPTIMIZATION CONVERGED AFTER 59 ITERATIONS ***

 final structure:
================
16
 xtb: 6.5.1 (579679a)
C            2.48260381890573        0.64228371568134        0.70622903777911
C            1.56264273936776       -0.18333583230893       -0.09227386498433
N            1.86817705274988       -1.07042399169130       -1.00961327894572
N            0.72726553488389       -1.57735520817913       -1.46949599075060
C           -0.24676067913762       -0.98407951666335       -0.81870075924500
C           -1.63803496863549       -1.24101319836018       -1.01743622244148
C           -2.11369865995637        0.88696454656916        1.13699911572467
O           -2.16344567643358       -1.99986105894872       -1.75302397480313
Cl          -2.84253457838506       -0.27764378286594       -0.00784053399395
O            0.24070100401005       -0.08932453179055        0.06680160032538
H            2.24660099109374        1.69743996014161        0.56552482087796
H            3.51048941899804        0.44772483293424        0.40855400520612
H            2.35399815496548        0.41455225705567        1.76517958767689
H           -2.96073152321607        1.35390993554765        1.63443146416914
H           -1.49220297929795        0.35661834999484        1.85083909991851
H           -1.53506864991266        1.62354252288332        0.58895289348653

          :  Hamiltonian                  GFN1-xTB          :
         :: total energy             -33.394375944848 Eh    ::
         :: gradient norm              0.000713341369 Eh/a0 ::
         :: HOMO-LUMO gap              2.775204999587 eV    ::
         :: SCC energy               -33.688514545075 Eh    ::
         :: -> Gsolv                  -0.093366282718 Eh    ::
         :: repulsion energy           0.301445619005 Eh    ::

    * Orbital Energies and Occupations

         #    Occupation            Energy/Eh            Energy/eV
      -------------------------------------------------------------
         1        2.0000           -1.0660269             -29.0081
       ...           ...                  ...                  ...
        15        2.0000           -0.6298101             -17.1380
        16        2.0000           -0.6110181             -16.6266
        17        2.0000           -0.6049982             -16.4628
        18        2.0000           -0.5926707             -16.1274
        19        2.0000           -0.5777416             -15.7211
        20        2.0000           -0.5724143             -15.5762
        21        2.0000           -0.5588226             -15.2063
        22        2.0000           -0.5567619             -15.1503
        23        2.0000           -0.5434436             -14.7879
        24        2.0000           -0.5419220             -14.7464
        25        2.0000           -0.5270663             -14.3422
        26        2.0000           -0.5015420             -13.6477
        27        2.0000           -0.4969970             -13.5240 (HOMO)
        28                         -0.3950101             -10.7488 (LUMO)
        29                         -0.3160868              -8.6012
        30                         -0.3041941              -8.2775
        31                         -0.3008610              -8.1868
        32                         -0.2725243              -7.4158
        33                         -0.1839841              -5.0065
        34                         -0.1837096              -4.9990
        35                         -0.1620454              -4.4095
        36                         -0.1620006              -4.4083
        37                         -0.1565665              -4.2604
        38                         -0.1117357              -3.0405
       ...                                ...                  ...
        57                          0.7530749              20.4922
      -------------------------------------------------------------
                  HL-Gap            0.1019869 Eh            2.7752 eV

Wiberg/Mayer (AO) data.
largest (>0.10) Wiberg bond orders for each atom

     #   Z sym  total        # sym  WBO       # sym  WBO       # sym  WBO
 ---------------------------------------------------------------------------
     1   6 C    3.974 --     2 C    1.046    12 H    0.978    11 H    0.950
                            13 H    0.948
     2   6 C    3.844 --     3 N    1.503    10 O    1.099     1 C    1.046
     3   7 N    3.001 --     2 C    1.503     4 N    1.303
     4   7 N    3.022 --     5 C    1.501     3 N    1.303
     5   6 C    3.884 --     4 N    1.501     6 C    1.113    10 O    1.038
     6   6 C    3.869 --     8 O    1.841     5 C    1.113     9 Cl   0.776
     7   6 C    3.864 --    15 H    0.980    16 H    0.980    14 H    0.969
                             9 Cl   0.898
     8   8 O    2.156 --     6 C    1.841     9 Cl   0.138
     9  17 Cl   1.892 --     7 C    0.898     6 C    0.776     8 O    0.138
    10   8 O    2.337 --     2 C    1.099     5 C    1.038
    11   1 H    0.989 --     1 C    0.950
    12   1 H    0.992 --     1 C    0.978
    13   1 H    0.989 --     1 C    0.948
    14   1 H    0.992 --     7 C    0.969
    15   1 H    1.000 --     7 C    0.980
    16   1 H    1.000 --     7 C    0.980
 ---------------------------------------------------------------------------

           -------------------------------------------------
          | TOTAL ENERGY              -33.394375944848 Eh   |
          | GRADIENT NORM               0.000713341369 Eh/α |
          | HOMO-LUMO GAP               2.775204999587 eV   |
           -------------------------------------------------

 * finished run on 2023/06/20 at 14:55:31.366
