   * xtb version 6.5.1 (579679a) compiled by 'ehlert@majestix' on 2022-07-11
          program call               : /lustre/hpc/kemi/ree/PhD/git/ReactivityQM/dep/xtb-6.5.1/bin/xtb --gfn 1 /lustre/hpc/kemi/ree/PhD/git/ReactivityQM/calculations/R03/reac01prodE03/conf09/R03_reac01prodE03_conf09_gfn1.xyz --opt --vfukui --chrg -1 --uhf 0 --alpb DMSO

   ID    Z sym.   atoms
    1    6 C      1-5, 7-9
    2    7 N      6
    3    9 F      10
    4    1 H      11-21

      * Solvation model:               ALPB
        Solvent                        DMSO
        Solvent mass                       7.8130E+01 g/mol
          :  Hamiltonian                  GFN1-xTB          :
 * total energy  :   -31.4501313 Eh     change       -0.3172573E-11 Eh
 * total energy  :   -31.4555981 Eh     change       -0.5466861E-02 Eh
 * total energy  :   -31.4567551 Eh     change       -0.1156931E-02 Eh
 * total energy  :   -31.4569238 Eh     change       -0.1687326E-03 Eh
 * total energy  :   -31.4570333 Eh     change       -0.1094984E-03 Eh
 * total energy  :   -31.4571237 Eh     change       -0.9034187E-04 Eh
 * total energy  :   -31.4572381 Eh     change       -0.1144294E-03 Eh
 * total energy  :   -31.4573408 Eh     change       -0.1026845E-03 Eh
 * total energy  :   -31.4574054 Eh     change       -0.6462629E-04 Eh
 * total energy  :   -31.4574299 Eh     change       -0.2448066E-04 Eh
 * total energy  :   -31.4574382 Eh     change       -0.8374493E-05 Eh
 * total energy  :   -31.4574411 Eh     change       -0.2810153E-05 Eh
   *** GEOMETRY OPTIMIZATION CONVERGED AFTER 12 ITERATIONS ***

 final structure:
================
21
 xtb: 6.5.1 (579679a)
C           -2.10182296099466       -1.07335447562042        0.95336228766418
C           -1.24456849609077        0.23373963754778        0.92857917517162
C            0.22507260595109       -0.07020385477795        0.70584574944457
C            0.86827777829151        0.18144818853521       -0.47506197356995
C            2.32177328614897       -0.22775604726413       -0.69496697059171
N            2.94842559202977       -0.97653453457789        0.39664278508657
C            0.25746793396950        0.88118331556258       -1.54004780927324
C           -1.03796641402061        1.41164907673772       -1.31949503570087
C           -1.68959352227105        1.15523990150217       -0.16538468882680
F           -2.92851887645520        1.75481695277693        0.06467116549260
H           -1.76398967633328       -1.72608780138481        1.75905006604703
H           -3.15514006993379       -0.83475000712475        1.11022914430437
H           -1.99771695325183       -1.60505771687724        0.00709801317408
H           -1.39734462486453        0.71317842261608        1.91609473439517
H            0.72932638093828       -0.56661020799394        1.52928469289699
H            2.93099167082325        0.67007862992907       -0.87619510754215
H            2.38817437668231       -0.84451954844125       -1.60348526663927
H            2.40706813218918       -1.81070880960912        0.58866654698624
H            2.94507066496386       -0.41475914046290        1.23912870418230
H            0.78953856470697        1.08752701208226       -2.46122688373139
H           -1.49452539247908        2.06147900684463       -2.06278832897036

          :  Hamiltonian                  GFN1-xTB          :
         :: total energy             -31.457441056032 Eh    ::
         :: gradient norm              0.000921477723 Eh/a0 ::
         :: HOMO-LUMO gap              2.630957345390 eV    ::
         :: SCC energy               -31.828307439940 Eh    ::
         :: -> Gsolv                  -0.077777533869 Eh    ::
         :: repulsion energy           0.380860456882 Eh    ::

    * Orbital Energies and Occupations

         #    Occupation            Energy/Eh            Energy/eV
      -------------------------------------------------------------
         1        2.0000           -0.7784744             -21.1834
       ...           ...                  ...                  ...
        16        2.0000           -0.4775141             -12.9938
        17        2.0000           -0.4762636             -12.9598
        18        2.0000           -0.4652080             -12.6590
        19        2.0000           -0.4644456             -12.6382
        20        2.0000           -0.4541188             -12.3572
        21        2.0000           -0.4448942             -12.1062
        22        2.0000           -0.4345838             -11.8256
        23        2.0000           -0.4173818             -11.3575
        24        2.0000           -0.3998758             -10.8812
        25        2.0000           -0.3976521             -10.8207
        26        2.0000           -0.3706933             -10.0871
        27        2.0000           -0.3569104              -9.7120
        28        2.0000           -0.2692715              -7.3272 (HOMO)
        29                         -0.1725855              -4.6963 (LUMO)
        30                         -0.1078877              -2.9358
        31                         -0.0848501              -2.3089
        32                         -0.0804955              -2.1904
        33                         -0.0705340              -1.9193
        34                         -0.0493752              -1.3436
        35                         -0.0447513              -1.2177
        36                         -0.0431002              -1.1728
        37                         -0.0312213              -0.8496
        38                         -0.0210051              -0.5716
        39                         -0.0179138              -0.4875
       ...                                ...                  ...
        62                          0.6668810              18.1468
      -------------------------------------------------------------
                  HL-Gap            0.0966859 Eh            2.6310 eV

Wiberg/Mayer (AO) data.
largest (>0.10) Wiberg bond orders for each atom

     #   Z sym  total        # sym  WBO       # sym  WBO       # sym  WBO
 ---------------------------------------------------------------------------
     1   6 C    3.992 --    13 H    0.989    11 H    0.988    12 H    0.988
                             2 C    0.962
     2   6 C    3.993 --     9 C    1.008     3 C    1.001    14 H    0.967
                             1 C    0.962
     3   6 C    3.906 --     4 C    1.594     2 C    1.001    15 H    0.971
                             7 C    0.110
     4   6 C    3.986 --     3 C    1.594     7 C    1.305     5 C    0.982
     5   6 C    3.965 --     6 N    0.989     4 C    0.982    17 H    0.977
                            16 H    0.977
     6   7 N    2.951 --     5 C    0.989    18 H    0.955    19 H    0.954
     7   6 C    3.872 --     4 C    1.305     8 C    1.274    20 H    0.977
                             9 C    0.114     3 C    0.110
     8   6 C    3.989 --     9 C    1.624     7 C    1.274    21 H    0.972
     9   6 C    3.765 --     8 C    1.624     2 C    1.008    10 F    0.832
                             7 C    0.114
    10   9 F    0.939 --     9 C    0.832
    11   1 H    1.015 --     1 C    0.988
    12   1 H    1.014 --     1 C    0.988
    13   1 H    1.024 --     1 C    0.989
    14   1 H    1.023 --     2 C    0.967
    15   1 H    1.004 --     3 C    0.971
    16   1 H    1.020 --     5 C    0.977
    17   1 H    1.020 --     5 C    0.977
    18   1 H    0.974 --     6 N    0.955
    19   1 H    0.973 --     6 N    0.954
    20   1 H    1.002 --     7 C    0.977
    21   1 H    1.008 --     8 C    0.972
 ---------------------------------------------------------------------------

           -------------------------------------------------
          | TOTAL ENERGY              -31.457441056032 Eh   |
          | GRADIENT NORM               0.000921477723 Eh/α |
          | HOMO-LUMO GAP               2.630957345390 eV   |
           -------------------------------------------------

 * finished run on 2023/06/20 at 15:13:24.503
