   * xtb version 6.5.1 (579679a) compiled by 'ehlert@majestix' on 2022-07-11
          program call               : /lustre/hpc/kemi/ree/PhD/git/ReactivityQM/dep/xtb-6.5.1/bin/xtb --gfn 1 /lustre/hpc/kemi/ree/PhD/git/ReactivityQM/calculations/R02deprot/reac01prodE02/conf08/R02deprot_reac01prodE02_conf08_gfn1.xyz --opt --vfukui --chrg -2 --uhf 0 --alpb DMSO

   ID    Z sym.   atoms
    1    6 C      1, 3, 4, 6, 8-11, 13, 15, 18, 19, 22, 24
    2    8 O      2, 5, 14, 20, 23, 25
    3    7 N      7, 12, 16, 17, 21
    4    1 H      26-42

      * Solvation model:               ALPB
        Solvent                        DMSO
        Solvent mass                       7.8130E+01 g/mol
          :  Hamiltonian                  GFN1-xTB          :
 * total energy  :   -83.6063043 Eh     change       -0.5272085E-09 Eh
 * total energy  :   -83.6195982 Eh     change       -0.1329392E-01 Eh
 * total energy  :   -83.6253149 Eh     change       -0.5716711E-02 Eh
 * total energy  :   -83.6269607 Eh     change       -0.1645856E-02 Eh
 * total energy  :   -83.6279689 Eh     change       -0.1008175E-02 Eh
 * total energy  :   -83.6284926 Eh     change       -0.5237202E-03 Eh
 * total energy  :   -83.6288278 Eh     change       -0.3351486E-03 Eh
 * total energy  :   -83.6290131 Eh     change       -0.1853568E-03 Eh
 * total energy  :   -83.6291552 Eh     change       -0.1420303E-03 Eh
 * total energy  :   -83.6293207 Eh     change       -0.1655290E-03 Eh
 * total energy  :   -83.6301873 Eh     change       -0.5867077E-05 Eh
 * total energy  :   -83.6301955 Eh     change       -0.8209675E-05 Eh
 * total energy  :   -83.6301957 Eh     change       -0.1908149E-06 Eh
 * total energy  :   -83.6302026 Eh     change       -0.6950217E-05 Eh
 * total energy  :   -83.6302093 Eh     change       -0.6670812E-05 Eh
 * total energy  :   -83.6302177 Eh     change       -0.8372871E-05 Eh
 * total energy  :   -83.6302237 Eh     change       -0.6087400E-05 Eh
 * total energy  :   -83.6302304 Eh     change       -0.6648316E-05 Eh
 * total energy  :   -83.6302321 Eh     change       -0.1729720E-05 Eh
   *** GEOMETRY OPTIMIZATION CONVERGED AFTER 44 ITERATIONS ***

 final structure:
================
42
 xtb: 6.5.1 (579679a)
C           -0.85435593366546        1.97287821987469       -1.82269866018774
O           -1.94128319338811        1.09379423038549       -1.84893036442896
C           -2.99051984361924        1.33218804892201       -0.74054783671154
C           -4.27815387045406        0.81621577781960       -1.48075592280809
O           -3.04662725754742        2.55881713244150       -0.33708611023697
C           -2.61928693624599        0.29073304040844        0.38755574953268
N           -1.32438183727369       -0.14768267391839        0.45979376242530
C           -1.01013905775340       -0.99572504291971        1.41485308008080
C            0.42859426778013       -1.51362361482841        1.46528825573780
C            0.44031252952846       -2.97266158648539        0.98603001286244
C            0.96620456606234       -1.41467989848793        2.89839476910644
N            1.23325225139382       -0.68387672312859        0.56939297596006
C            2.54246771266688       -0.82784034225185        0.37013383089902
O            3.26101981782171       -1.68155347982769        0.87838557469622
C            3.08174676099368        0.20738795455763       -0.56327156240263
N            2.42684045633202        1.18617170823193       -1.10665791159355
N            3.31934466909529        1.89159665467280       -1.86073946428491
C            4.46292347224203        1.29792577833056       -1.72681947140606
C            5.75383029260966        1.67490227361483       -2.34358764476264
O            4.38201174677835        0.22822892503671       -0.92065595905330
N           -1.80626412500264       -1.50383186346164        2.35221238565650
C           -3.10450050585861       -1.09165175625153        2.36478116215279
O           -3.94357070034592       -1.49543337071459        3.21038569026840
C           -3.50059302479561       -0.15078196441145        1.33413751334785
O           -4.82851874357303        0.22800492936276        1.39400478524518
H           -0.39708390862351        1.99546738315675       -2.82071469961943
H           -0.07915465169480        1.65609704300683       -1.10148085929983
H           -1.15587365180769        3.00311359874452       -1.56371455233326
H           -5.14928067375993        0.95953896677293       -0.84572075452717
H           -4.40639558731174        1.40686297718183       -2.38753235910895
H           -4.18445104533105       -0.23611342153939       -1.74728847506754
H            1.44117931793125       -3.39597035694745        1.05227974227619
H            0.09785978395411       -3.03129149432402       -0.04706862646498
H           -0.23325742891202       -3.55351853041429        1.61560429581084
H            1.94074523196904       -1.89194648803711        2.98441594626462
H            0.26482157952706       -1.91200013376628        3.56856290152484
H            1.05616580196816       -0.36977770248753        3.19492050835423
H            0.71592921588446        0.04273322587715        0.07090763490022
H            6.49053861522562        1.88671256691467       -1.56931111283271
H            6.13178311614712        0.85335429394572       -2.95111233507740
H            5.61899364734649        2.55559811480985       -2.96611303913980
H           -5.20287087629782       -0.26836439986045        2.14637314424637

          :  Hamiltonian                  GFN1-xTB          :
         :: total energy             -83.630232127745 Eh    ::
         :: gradient norm              0.000353520400 Eh/a0 ::
         :: HOMO-LUMO gap              0.646995605966 eV    ::
         :: SCC energy               -84.363785979656 Eh    ::
         :: -> Gsolv                  -0.286049666398 Eh    ::
         :: repulsion energy           0.760202935667 Eh    ::

    * Orbital Energies and Occupations

         #    Occupation            Energy/Eh            Energy/eV
      -------------------------------------------------------------
         1        2.0000           -0.8517093             -23.1762
       ...           ...                  ...                  ...
        56        2.0000           -0.4415891             -12.0163
        57        2.0000           -0.4355431             -11.8517
        58        2.0000           -0.4320510             -11.7567
        59        2.0000           -0.4217991             -11.4777
        60        2.0000           -0.4166835             -11.3385
        61        2.0000           -0.4083141             -11.1108
        62        2.0000           -0.3862457             -10.5103
        63        2.0000           -0.3775715             -10.2742
        64        2.0000           -0.3727296             -10.1425
        65        2.0000           -0.3542172              -9.6387
        66        2.0000           -0.3415161              -9.2931
        67        2.0000           -0.3360465              -9.1443
        68        2.0000           -0.3154454              -8.5837 (HOMO)
        69        0.0000           -0.2916687              -7.9367 (LUMO)
        70                         -0.2461485              -6.6980
        71                         -0.2037087              -5.5432
        72                         -0.1951283              -5.3097
        73                         -0.1800612              -4.8997
        74                         -0.1383381              -3.7644
        75                         -0.1008025              -2.7430
        76                         -0.0971937              -2.6448
        77                         -0.0875940              -2.3836
        78                         -0.0816124              -2.2208
        79                         -0.0705052              -1.9185
       ...                                ...                  ...
       134                          0.7304823              19.8774
      -------------------------------------------------------------
                  HL-Gap            0.0237767 Eh            0.6470 eV

Wiberg/Mayer (AO) data.
largest (>0.10) Wiberg bond orders for each atom

     #   Z sym  total        # sym  WBO       # sym  WBO       # sym  WBO
 ---------------------------------------------------------------------------
     1   6 C    3.942 --     2 O    0.989    26 H    0.983    28 H    0.971
                            27 H    0.970
     2   8 O    1.926 --     1 C    0.989     3 C    0.752
     3   6 C    3.892 --     5 O    1.253     4 C    0.932     6 C    0.899
                             2 O    0.752
     4   6 C    3.989 --    31 H    0.991    30 H    0.988    29 H    0.985
                             3 C    0.932
     5   8 O    1.534 --     3 C    1.253
     6   6 C    3.943 --    24 C    1.532     7 N    1.228     3 C    0.899
     7   7 N    3.040 --     8 C    1.454     6 C    1.228
     8   6 C    3.962 --     7 N    1.454    21 N    1.377     9 C    0.962
     9   6 C    3.921 --    11 C    0.989    10 C    0.982     8 C    0.962
                            12 N    0.916
    10   6 C    3.995 --    33 H    0.987    34 H    0.985    32 H    0.984
                             9 C    0.982
    11   6 C    3.995 --     9 C    0.989    37 H    0.987    35 H    0.985
                            36 H    0.982
    12   7 N    3.399 --    13 C    1.317     9 C    0.916    38 H    0.874
                            14 O    0.190
    13   6 C    3.927 --    14 O    1.552    12 N    1.317    15 C    0.978
    14   8 O    1.874 --    13 C    1.552    12 N    0.190
    15   6 C    3.867 --    16 N    1.621    20 O    1.058    13 C    0.978
    16   7 N    3.023 --    15 C    1.621    17 N    1.189
    17   7 N    2.980 --    18 C    1.617    16 N    1.189
    18   6 C    3.875 --    17 N    1.617    20 O    1.080    19 C    1.030
    19   6 C    3.989 --    18 C    1.030    41 H    0.983    40 H    0.965
                            39 H    0.965
    20   8 O    2.321 --    18 C    1.080    15 C    1.058
    21   7 N    2.972 --     8 C    1.377    22 C    1.228    23 O    0.112
    22   6 C    3.929 --    23 O    1.427    21 N    1.228    24 C    1.130
    23   8 O    1.757 --    22 C    1.427    21 N    0.112
    24   6 C    3.895 --     6 C    1.532    22 C    1.130    25 O    1.000
    25   8 O    1.988 --    24 C    1.000    42 H    0.837
    26   1 H    1.026 --     1 C    0.983
    27   1 H    1.051 --     1 C    0.970
    28   1 H    1.039 --     1 C    0.971
    29   1 H    1.029 --     4 C    0.985
    30   1 H    1.024 --     4 C    0.988
    31   1 H    1.015 --     4 C    0.991
    32   1 H    1.013 --    10 C    0.984
    33   1 H    1.008 --    10 C    0.987
    34   1 H    1.014 --    10 C    0.985
    35   1 H    1.013 --    11 C    0.985
    36   1 H    1.026 --    11 C    0.982
    37   1 H    1.007 --    11 C    0.987
    38   1 H    0.989 --    12 N    0.874
    39   1 H    0.998 --    19 C    0.965
    40   1 H    0.998 --    19 C    0.965
    41   1 H    1.000 --    19 C    0.983
    42   1 H    0.897 --    25 O    0.837
 ---------------------------------------------------------------------------

           -------------------------------------------------
          | TOTAL ENERGY              -83.630232127745 Eh   |
          | GRADIENT NORM               0.000353520400 Eh/α |
          | HOMO-LUMO GAP               0.646995605966 eV   |
           -------------------------------------------------

 * finished run on 2023/06/20 at 17:34:33.879
