   * xtb version 6.5.1 (579679a) compiled by 'ehlert@majestix' on 2022-07-11
          program call               : /lustre/hpc/kemi/ree/PhD/git/ReactivityQM/dep/xtb-6.5.1/bin/xtb --gfn 1 /lustre/hpc/kemi/ree/PhD/git/ReactivityQM/calculations/R03/reac02prodN09/conf15/R03_reac02prodN09_conf15_gfn1.xyz --opt --vfukui --chrg 1 --uhf 0 --alpb DMSO

   ID    Z sym.   atoms
    1    6 C      1, 3, 5, 6, 8-11, 13, 15, 18, 19, 22, 23, 25
    2    8 O      2, 4, 14, 20, 24, 26
    3    7 N      7, 12, 16, 17, 21
    4    1 H      27-46

      * Solvation model:               ALPB
        Solvent                        DMSO
        Solvent mass                       7.8130E+01 g/mol
          :  Hamiltonian                  GFN1-xTB          :
 * total energy  :   -86.2793150 Eh     change       -0.3511502E-10 Eh
 * total energy  :   -86.2994658 Eh     change       -0.2015080E-01 Eh
 * total energy  :   -86.3077246 Eh     change       -0.8258779E-02 Eh
 * total energy  :   -86.3096230 Eh     change       -0.1898347E-02 Eh
 * total energy  :   -86.3110434 Eh     change       -0.1420455E-02 Eh
 * total energy  :   -86.3116569 Eh     change       -0.6134435E-03 Eh
 * total energy  :   -86.3121429 Eh     change       -0.4860369E-03 Eh
 * total energy  :   -86.3124673 Eh     change       -0.3244452E-03 Eh
 * total energy  :   -86.3126840 Eh     change       -0.2166294E-03 Eh
 * total energy  :   -86.3128687 Eh     change       -0.1846926E-03 Eh
 * total energy  :   -86.3144081 Eh     change       -0.1015350E-04 Eh
 * total energy  :   -86.3144182 Eh     change       -0.1017312E-04 Eh
 * total energy  :   -86.3144317 Eh     change       -0.1346270E-04 Eh
 * total energy  :   -86.3144481 Eh     change       -0.1636539E-04 Eh
 * total energy  :   -86.3144696 Eh     change       -0.2150041E-04 Eh
 * total energy  :   -86.3144877 Eh     change       -0.1814736E-04 Eh
 * total energy  :   -86.3144943 Eh     change       -0.6588332E-05 Eh
 * total energy  :   -86.3145004 Eh     change       -0.6120458E-05 Eh
 * total energy  :   -86.3145050 Eh     change       -0.4589843E-05 Eh
   *** GEOMETRY OPTIMIZATION CONVERGED AFTER 46 ITERATIONS ***

 final structure:
================
46
 xtb: 6.5.1 (579679a)
C           -3.67721389150615        2.20272736099752        2.59336438506385
O           -3.68098910799545        1.16519124761800        1.58086433168319
C           -2.55155134042145        0.76164118252037        1.11533598852343
O           -1.44420464346426        1.09474552681706        1.38186986584792
C           -2.81834771178232       -0.38634374226817       -0.03105389436372
C           -4.16722984957920       -0.13254787297605       -0.69915643370637
N           -1.73784996275186       -0.21855844495390       -0.92870095826349
C           -0.60233601563579       -0.78640636726807       -0.76409652139627
C            0.46640300898450       -0.45842374178395       -1.79976069874293
C           -0.04483837050414        0.65485925368873       -2.72435537296155
C            0.78119975961515       -1.71828823087071       -2.61973968597799
N            1.64689964716252        0.03418014225759       -1.08486413766116
C            2.81401627009099        0.32840657271570       -1.71836368722092
O            3.06547508837104        0.07952175737081       -2.88160987879687
C            3.79357483625091        0.96863951326011       -0.81082506405894
N            4.99146858452903        1.37529438905093       -1.09360797888333
N            5.51124282659201        1.89497499026614        0.05158345943168
C            4.59977376707118        1.77414035246339        0.96605542586063
C            4.67652764022194        2.18419156241842        2.38432706349209
O            3.48612966087973        1.19543238356028        0.48556169932088
N           -0.36691327375787       -1.71388121733532        0.24993517992779
C            0.92527902174819       -2.34219387845219        0.54527094388174
C           -1.38285545229146       -2.19057379188604        1.02637230439220
O           -1.26911582964530       -3.08291333288460        1.84469050797831
C           -2.70307151250206       -1.55037349638489        0.81864635981671
O           -3.68345346432161       -1.99741557144492        1.50586825774886
H           -2.94444781548312        2.96564141367350        2.33131194523690
H           -3.42847047922539        1.75041803321100        3.55306833601994
H           -4.68544779660671        2.60925652960654        2.60407209717936
H           -4.97276545957141       -0.28385466945837        0.01506755029348
H           -4.19852945917229        0.88436886318194       -1.08316384971836
H           -4.27625874709351       -0.83156090235519       -1.52625080486324
H            0.73235707182245        0.90954426773275       -3.44326597370224
H           -0.29994347434088        1.53702105790081       -2.14037112756979
H           -0.92979319416483        0.31524431833605       -3.25854075755428
H            1.36786343605875       -1.45079908007189       -3.49671369069980
H           -0.15276338533174       -2.17296897012876       -2.94576328502820
H            1.34125069689423       -2.44140832241752       -2.03326896467677
H            1.48554890649036        0.46789947790462       -0.18966588999419
H            5.61057395568621        2.71113566104787        2.56528996227178
H            4.62349885939387        1.30556297391620        3.02717552590753
H            3.83383316306094        2.82937490692446        2.62927935668145
H            0.91781117638832       -3.35795785408052        0.15067401446049
H            1.73404463120523       -1.76644119588887        0.11216752490568
H            1.02811414463098       -2.38455519159207        1.62891164995396
H           -3.41449591599969       -2.73194586393935        2.10637291996060

          :  Hamiltonian                  GFN1-xTB          :
         :: total energy             -86.314505006306 Eh    ::
         :: gradient norm              0.000581354168 Eh/a0 ::
         :: HOMO-LUMO gap              0.933836894749 eV    ::
         :: SCC energy               -87.150542730048 Eh    ::
         :: -> Gsolv                  -0.114027485801 Eh    ::
         :: repulsion energy           0.866344881018 Eh    ::

    * Orbital Energies and Occupations

         #    Occupation            Energy/Eh            Energy/eV
      -------------------------------------------------------------
         1        2.0000           -0.9129455             -24.8425
       ...           ...                  ...                  ...
        58        2.0000           -0.5279295             -14.3657
        59        2.0000           -0.5258283             -14.3085
        60        2.0000           -0.5223457             -14.2137
        61        2.0000           -0.5123883             -13.9428
        62        2.0000           -0.5107172             -13.8973
        63        2.0000           -0.5086994             -13.8424
        64        2.0000           -0.4931449             -13.4192
        65        2.0000           -0.4865237             -13.2390
        66        2.0000           -0.4847150             -13.1898
        67        2.0000           -0.4748059             -12.9201
        68        2.0000           -0.4679621             -12.7339
        69        2.0000           -0.4581802             -12.4677
        70        2.0000           -0.4560776             -12.4105 (HOMO)
        71                         -0.4217597             -11.4767 (LUMO)
        72                         -0.3349367              -9.1141
        73                         -0.3199625              -8.7066
        74                         -0.3074816              -8.3670
        75                         -0.2659237              -7.2362
        76                         -0.2615195              -7.1163
        77                         -0.2072161              -5.6386
        78                         -0.1646278              -4.4798
        79                         -0.1579575              -4.2982
        80                         -0.1510642              -4.1107
        81                         -0.1498341              -4.0772
       ...                                ...                  ...
       144                          0.7517962              20.4574
      -------------------------------------------------------------
                  HL-Gap            0.0343179 Eh            0.9338 eV

Wiberg/Mayer (AO) data.
largest (>0.10) Wiberg bond orders for each atom

     #   Z sym  total        # sym  WBO       # sym  WBO       # sym  WBO
 ---------------------------------------------------------------------------
     1   6 C    3.811 --    29 H    0.980    27 H    0.980    28 H    0.975
                             2 O    0.831
     2   8 O    2.271 --     3 C    1.230     1 C    0.831     4 O    0.150
     3   6 C    3.858 --     4 O    1.750     2 O    1.230     5 C    0.682
     4   8 O    2.075 --     3 C    1.750     2 O    0.150
     5   6 C    3.954 --    25 C    1.102     7 N    1.030     6 C    0.962
                             3 C    0.682
     6   6 C    3.967 --    31 H    0.981    30 H    0.981    32 H    0.974
                             5 C    0.962
     7   7 N    3.037 --     8 C    1.686     5 C    1.030
     8   6 C    3.910 --     7 N    1.686    21 N    1.093     9 C    0.973
     9   6 C    3.932 --    10 C    0.989    11 C    0.978     8 C    0.973
                            12 N    0.928
    10   6 C    3.986 --     9 C    0.989    34 H    0.984    35 H    0.984
                            33 H    0.981
    11   6 C    3.984 --    37 H    0.984    38 H    0.981     9 C    0.978
                            36 H    0.975
    12   7 N    3.326 --    13 C    1.215     9 C    0.928    39 H    0.893
                            14 O    0.166
    13   6 C    3.911 --    14 O    1.609    12 N    1.215    15 C    0.998
    14   8 O    1.921 --    13 C    1.609    12 N    0.166
    15   6 C    3.874 --    16 N    1.619    20 O    1.045    13 C    0.998
    16   7 N    3.003 --    15 C    1.619    17 N    1.203
    17   7 N    2.983 --    18 C    1.607    16 N    1.203
    18   6 C    3.866 --    17 N    1.607    20 O    1.072    19 C    1.033
    19   6 C    3.985 --    18 C    1.033    40 H    0.982    42 H    0.964
                            41 H    0.960
    20   8 O    2.315 --    18 C    1.072    15 C    1.045
    21   7 N    3.532 --    23 C    1.193     8 C    1.093    22 C    0.913
                            24 O    0.170
    22   6 C    3.895 --    44 H    0.973    45 H    0.969    43 H    0.964
                            21 N    0.913
    23   6 C    3.927 --    24 O    1.607    21 N    1.193    25 C    0.996
    24   8 O    1.964 --    23 C    1.607    21 N    0.170
    25   6 C    3.819 --    26 O    1.346     5 C    1.102    23 C    0.996
    26   8 O    2.274 --    25 C    1.346    46 H    0.743
    27   1 H    0.997 --     1 C    0.980
    28   1 H    0.997 --     1 C    0.975
    29   1 H    1.001 --     1 C    0.980
    30   1 H    0.999 --     6 C    0.981
    31   1 H    0.997 --     6 C    0.981
    32   1 H    0.995 --     6 C    0.974
    33   1 H    1.003 --    10 C    0.981
    34   1 H    1.005 --    10 C    0.984
    35   1 H    1.006 --    10 C    0.984
    36   1 H    1.009 --    11 C    0.975
    37   1 H    0.999 --    11 C    0.984
    38   1 H    0.999 --    11 C    0.981
    39   1 H    0.937 --    12 N    0.893
    40   1 H    0.998 --    19 C    0.982
    41   1 H    0.996 --    19 C    0.960
    42   1 H    0.996 --    19 C    0.964
    43   1 H    0.995 --    22 C    0.964
    44   1 H    1.006 --    22 C    0.973
    45   1 H    0.996 --    22 C    0.969
    46   1 H    0.790 --    26 O    0.743
 ---------------------------------------------------------------------------

           -------------------------------------------------
          | TOTAL ENERGY              -86.314505006306 Eh   |
          | GRADIENT NORM               0.000581354168 Eh/α |
          | HOMO-LUMO GAP               0.933836894749 eV   |
           -------------------------------------------------

 * finished run on 2023/06/20 at 15:44:20.533
