                         Program Version 5.0.1 -  RELEASE  -
|  1> # ORCA input file
|  2> ! SP r2SCAN-3c CPCM
|  3>
|  4> %maxcore 1875.0
|  5> %pal nprocs 4 end
|  6> %cpcm smd true SMDsolvent "DMSO" end
|  7>
|  8> *xyz -2 1
|  9> C      -3.045350    2.235932    1.641444
| 10> O      -3.528644    0.972266    1.983270
| 11> C      -2.438806   -0.134689    1.907421
| 12> C      -3.105087   -1.272346    2.757917
| 13> O      -1.296084    0.262816    2.369862
| 14> C      -2.417025   -0.564591    0.389253
| 15> N      -1.193221   -0.400417   -0.186434
| 16> C      -0.980526   -0.686267   -1.426100
| 17> C       0.404821   -0.510465   -2.022675
| 18> C       0.400795    0.591046   -3.093535
| 19> C       0.919748   -1.831506   -2.612947
| 20> N       1.252349   -0.108482   -0.901826
| 21> C       2.558279    0.147921   -0.976667
| 22> O       3.248880    0.094813   -1.987832
| 23> C       3.115236    0.518227    0.357867
| 24> N       2.457061    0.607738    1.470990
| 25> N       3.354483    0.968893    2.433408
| 26> C       4.502782    1.075930    1.844201
| 27> C       5.800445    1.441122    2.454218
| 28> O       4.421884    0.805035    0.532214
| 29> N      -1.995600   -1.152342   -2.230279
| 30> C      -3.274131   -1.379363   -1.770352
| 31> O      -4.122716   -1.805235   -2.573961
| 32> C      -3.516519   -1.081976   -0.324352
| 33> O      -4.671016   -1.313119    0.148118
| 34> H      -2.847520    2.336510    0.557174
| 35> H      -3.798462    2.985613    1.914855
| 36> H      -2.111192    2.485146    2.176210
| 37> H      -3.094453   -0.961813    3.803174
| 38> H      -2.510690   -2.179977    2.654395
| 39> H      -4.130978   -1.467303    2.450466
| 40> H       0.083475    1.537820   -2.657661
| 41> H       1.395984    0.710969   -3.517584
| 42> H      -0.288032    0.320611   -3.891303
| 43> H       1.917462   -1.697472   -3.026734
| 44> H       0.256153   -2.161302   -3.409658
| 45> H       0.954695   -2.599547   -1.841021
| 46> H       0.758279   -0.028387   -0.003504
| 47> H       6.213708    2.318301    1.957956
| 48> H       6.511260    0.623725    2.337559
| 49> H       5.661943    1.652102    3.511469
| 50> H      -1.823669   -1.355940   -3.199015
| 51> **                         ****END OF INPUT****

CARTESIAN COORDINATES (ANGSTROEM)
---------------------------------
  C     -3.045350    2.235932    1.641444
  O     -3.528644    0.972266    1.983270
  C     -2.438806   -0.134689    1.907421
  C     -3.105087   -1.272346    2.757917
  O     -1.296084    0.262816    2.369862
  C     -2.417025   -0.564591    0.389253
  N     -1.193221   -0.400417   -0.186434
  C     -0.980526   -0.686267   -1.426100
  C      0.404821   -0.510465   -2.022675
  C      0.400795    0.591046   -3.093535
  C      0.919748   -1.831506   -2.612947
  N      1.252349   -0.108482   -0.901826
  C      2.558279    0.147921   -0.976667
  O      3.248880    0.094813   -1.987832
  C      3.115236    0.518227    0.357867
  N      2.457061    0.607738    1.470990
  N      3.354483    0.968893    2.433408
  C      4.502782    1.075930    1.844201
  C      5.800445    1.441122    2.454218
  O      4.421884    0.805035    0.532214
  N     -1.995600   -1.152342   -2.230279
  C     -3.274131   -1.379363   -1.770352
  O     -4.122716   -1.805235   -2.573961
  C     -3.516519   -1.081976   -0.324352
  O     -4.671016   -1.313119    0.148118
  H     -2.847520    2.336510    0.557174
  H     -3.798462    2.985613    1.914855
  H     -2.111192    2.485146    2.176210
  H     -3.094453   -0.961813    3.803174
  H     -2.510690   -2.179977    2.654395
  H     -4.130978   -1.467303    2.450466
  H      0.083475    1.537820   -2.657661
  H      1.395984    0.710969   -3.517584
  H     -0.288032    0.320611   -3.891303
  H      1.917462   -1.697472   -3.026734
  H      0.256153   -2.161302   -3.409658
  H      0.954695   -2.599547   -1.841021
  H      0.758279   -0.028387   -0.003504
  H      6.213708    2.318301    1.957956
  H      6.511260    0.623725    2.337559
  H      5.661943    1.652102    3.511469
  H     -1.823669   -1.355940   -3.199015

 Total Charge           Charge          ....   -2
 Multiplicity           Mult            ....    1
 Number of Electrons    NEL             ....  186
 Basis Dimension        Dim             ....  615

ORBITAL ENERGIES
----------------

  NO   OCC          E(Eh)            E(eV)
   0   2.0000     -19.055810      -518.5350
   1   2.0000     -18.918888      -514.8091
   2   2.0000     -18.878612      -513.7132
   3   2.0000     -18.877723      -513.6890
   4   2.0000     -18.839731      -512.6551
   5   2.0000     -18.798228      -511.5258
   6   2.0000     -14.194811      -386.2604
   7   2.0000     -14.189648      -386.1199
   8   2.0000     -14.182485      -385.9250
   9   2.0000     -14.176607      -385.7651
  10   2.0000     -14.118736      -384.1903
  11   2.0000     -10.141362      -275.9605
  12   2.0000     -10.138459      -275.8815
  13   2.0000     -10.133513      -275.7469
  14   2.0000     -10.087132      -274.4848
  15   2.0000     -10.083097      -274.3750
  16   2.0000     -10.067580      -273.9528
  17   2.0000     -10.054708      -273.6025
  18   2.0000     -10.040639      -273.2197
  19   2.0000     -10.034782      -273.0603
  20   2.0000     -10.024821      -272.7893
  21   2.0000     -10.010668      -272.4041
  22   2.0000     -10.010458      -272.3984
  23   2.0000      -9.998531      -272.0739
  24   2.0000      -9.967532      -271.2303
  25   2.0000      -1.145431       -31.1688
  26   2.0000      -1.006109       -27.3776
  27   2.0000      -0.969103       -26.3706
  28   2.0000      -0.966534       -26.3007
  29   2.0000      -0.922264       -25.0961
  30   2.0000      -0.915209       -24.9041
  31   2.0000      -0.892438       -24.2845
  32   2.0000      -0.888236       -24.1701
  33   2.0000      -0.842781       -22.9332
  34   2.0000      -0.824586       -22.4381
  35   2.0000      -0.819460       -22.2986
  36   2.0000      -0.754491       -20.5307
  37   2.0000      -0.705563       -19.1993
  38   2.0000      -0.671688       -18.2776
  39   2.0000      -0.652737       -17.7619
  40   2.0000      -0.649773       -17.6812
  41   2.0000      -0.640036       -17.4163
  42   2.0000      -0.610430       -16.6106
  43   2.0000      -0.585575       -15.9343
  44   2.0000      -0.584141       -15.8953
  45   2.0000      -0.571431       -15.5494
  46   2.0000      -0.565564       -15.3898
  47   2.0000      -0.527809       -14.3624
  48   2.0000      -0.511092       -13.9075
  49   2.0000      -0.485539       -13.2122
  50   2.0000      -0.472660       -12.8617
  51   2.0000      -0.466084       -12.6828
  52   2.0000      -0.451211       -12.2781
  53   2.0000      -0.440681       -11.9915
  54   2.0000      -0.424840       -11.5605
  55   2.0000      -0.415399       -11.3036
  56   2.0000      -0.408976       -11.1288
  57   2.0000      -0.398371       -10.8402
  58   2.0000      -0.397581       -10.8187
  59   2.0000      -0.389745       -10.6055
  60   2.0000      -0.385862       -10.4998
  61   2.0000      -0.382827       -10.4173
  62   2.0000      -0.374958       -10.2031
  63   2.0000      -0.370626       -10.0852
  64   2.0000      -0.362985        -9.8773
  65   2.0000      -0.353688        -9.6243
  66   2.0000      -0.353031        -9.6065
  67   2.0000      -0.340857        -9.2752
  68   2.0000      -0.340415        -9.2632
  69   2.0000      -0.335799        -9.1376
  70   2.0000      -0.335494        -9.1293
  71   2.0000      -0.322218        -8.7680
  72   2.0000      -0.320771        -8.7286
  73   2.0000      -0.315124        -8.5750
  74   2.0000      -0.309730        -8.4282
  75   2.0000      -0.304798        -8.2940
  76   2.0000      -0.298792        -8.1305
  77   2.0000      -0.289043        -7.8653
  78   2.0000      -0.279011        -7.5923
  79   2.0000      -0.270588        -7.3631
  80   2.0000      -0.259863        -7.0712
  81   2.0000      -0.256544        -6.9809
  82   2.0000      -0.237031        -6.4499
  83   2.0000      -0.230799        -6.2804
  84   2.0000      -0.229102        -6.2342
  85   2.0000      -0.218556        -5.9472
  86   2.0000      -0.214472        -5.8361
  87   2.0000      -0.194816        -5.3012
  88   2.0000      -0.169137        -4.6024
  89   2.0000      -0.142964        -3.8903
  90   2.0000      -0.135805        -3.6954
  91   2.0000      -0.120660        -3.2833
  92   2.0000      -0.113883        -3.0989
  93   0.0000      -0.073368        -1.9965
  94   0.0000      -0.012685        -0.3452
  95   0.0000      -0.007119        -0.1937
  96   0.0000       0.018648         0.5074
  97   0.0000       0.059630         1.6226

MULLIKEN ATOMIC CHARGES
-----------------------
   0 C :   -0.435756
   1 O :   -0.302270
   2 C :    0.301730
   3 C :   -0.728198
   4 O :   -0.527267
   5 C :   -0.208977
   6 N :   -0.175562
   7 C :    0.363581
   8 C :   -0.209164
   9 C :   -0.620917
  10 C :   -0.611138
  11 N :    0.035269
  12 C :   -0.145024
  13 O :   -0.467085
  14 C :    0.361040
  15 N :   -0.130532
  16 N :   -0.328035
  17 C :    0.420533
  18 C :   -0.643843
  19 O :   -0.031010
  20 N :   -0.040081
  21 C :   -0.052835
  22 O :   -0.417251
  23 C :   -0.145031
  24 O :   -0.425467
  25 H :    0.111179
  26 H :    0.128458
  27 H :    0.146480
  28 H :    0.145511
  29 H :    0.140967
  30 H :    0.175695
  31 H :    0.180540
  32 H :    0.193379
  33 H :    0.179046
  34 H :    0.194767
  35 H :    0.175932
  36 H :    0.179348
  37 H :    0.327528
  38 H :    0.197938
  39 H :    0.199355
  40 H :    0.203100
  41 H :    0.284068
Sum of atomic charges:   -2.0000000

LOEWDIN ATOMIC CHARGES
----------------------
   0 C :   -0.119762
   1 O :   -0.773607
   2 C :    0.265274
   3 C :   -0.412769
   4 O :   -0.747702
   5 C :    0.144109
   6 N :   -0.638625
   7 C :    0.299528
   8 C :    0.103302
   9 C :   -0.356035
  10 C :   -0.355908
  11 N :   -0.593701
  12 C :    0.374059
  13 O :   -0.481098
  14 C :    0.420072
  15 N :   -0.360815
  16 N :   -0.366886
  17 C :    0.371804
  18 C :   -0.319334
  19 O :   -0.365996
  20 N :   -0.505444
  21 C :    0.333794
  22 O :   -0.538269
  23 C :    0.181262
  24 O :   -0.668242
  25 H :    0.133814
  26 H :    0.154003
  27 H :    0.155302
  28 H :    0.146885
  29 H :    0.146950
  30 H :    0.166418
  31 H :    0.170235
  32 H :    0.174882
  33 H :    0.166637
  34 H :    0.175886
  35 H :    0.166639
  36 H :    0.170587
  37 H :    0.321705
  38 H :    0.189719
  39 H :    0.190290
  40 H :    0.189751
  41 H :    0.291285

  Mayer bond orders larger than 0.100000
B(  0-C ,  1-O ) :   0.9499 B(  0-C , 25-H ) :   0.9731 B(  0-C , 26-H ) :   0.9711
B(  0-C , 27-H ) :   0.9734 B(  1-O ,  2-C ) :   0.7815 B(  2-C ,  3-C ) :   0.7616
B(  2-C ,  4-O ) :   1.8066 B(  2-C ,  5-C ) :   0.8556 B(  3-C , 28-H ) :   0.9946
B(  3-C , 29-H ) :   0.9900 B(  3-C , 30-H ) :   0.9941 B(  5-C ,  6-N ) :   1.0771
B(  5-C , 23-C ) :   0.9795 B(  6-N ,  7-C ) :   1.6898 B(  6-N ,  8-C ) :   0.1030
B(  7-C ,  8-C ) :   0.7510 B(  7-C , 11-N ) :  -0.1257 B(  7-C , 20-N ) :   1.0765
B(  8-C ,  9-C ) :   0.9225 B(  8-C , 10-C ) :   0.9311 B(  8-C , 11-N ) :   0.9456
B(  9-C , 31-H ) :   0.9736 B(  9-C , 32-H ) :   0.9635 B(  9-C , 33-H ) :   0.9633
B( 10-C , 34-H ) :   0.9657 B( 10-C , 35-H ) :   0.9608 B( 10-C , 36-H ) :   0.9725
B( 11-N , 12-C ) :   1.2010 B( 11-N , 37-H ) :   0.8145 B( 12-C , 13-O ) :   1.8937
B( 12-C , 14-C ) :   0.8601 B( 14-C , 15-N ) :   1.6808 B( 14-C , 19-O ) :   1.1191
B( 15-N , 16-N ) :   1.1908 B( 16-N , 17-C ) :   1.6165 B( 17-C , 18-C ) :   0.8295
B( 17-C , 19-O ) :   1.0751 B( 18-C , 38-H ) :   0.9457 B( 18-C , 39-H ) :   0.9426
B( 18-C , 40-H ) :   0.9904 B( 20-N , 21-C ) :   0.9939 B( 20-N , 41-H ) :   0.8862
B( 21-C , 22-O ) :   2.1058 B( 21-C , 23-C ) :   0.9184 B( 23-C , 24-O ) :   1.8151

Dispersion correction           -0.019289244
FINAL SINGLE POINT ENERGY     -1268.849856885766

DIPOLE MOMENT
-------------
                                X             Y             Z
Electronic contribution:      5.64328      -2.32157      -2.94259
Nuclear contribution   :      5.20158       3.80284      -0.39337
                        -----------------------------------------
Total Dipole Moment    :     10.84486       1.48127      -3.33596
                        -----------------------------------------
Magnitude (a.u.)       :     11.44262
Magnitude (Debye)      :     29.08484

Rotational constants in cm-1:     0.011096     0.004550     0.003485
Rotational constants in MHz :   332.664160   136.392930   104.485085

                             ****ORCA TERMINATED NORMALLY****
TOTAL RUN TIME: 0 days 0 hours 1 minutes 41 seconds 578 msec
