   * xtb version 6.5.1 (579679a) compiled by 'ehlert@majestix' on 2022-07-11
          program call               : /lustre/hpc/kemi/ree/PhD/git/ReactivityQM/dep/xtb-6.5.1/bin/xtb --gfn 1 /lustre/hpc/kemi/ree/PhD/git/ReactivityQM/calculations/R02oxygendeprot/reac01prodE02/conf05/R02oxygendeprot_reac01prodE02_conf05_gfn1.xyz --opt --vfukui --chrg -2 --uhf 0 --alpb DMSO

   ID    Z sym.   atoms
    1    6 C      1, 3, 4, 6, 8-11, 13, 15, 18, 19, 22, 24
    2    8 O      2, 5, 14, 20, 23, 25
    3    7 N      7, 12, 16, 17, 21
    4    1 H      26-42

      * Solvation model:               ALPB
        Solvent                        DMSO
        Solvent mass                       7.8130E+01 g/mol
          :  Hamiltonian                  GFN1-xTB          :
 * total energy  :   -83.5979700 Eh     change       -0.2265494E-08 Eh
 * total energy  :   -83.6126732 Eh     change       -0.1470321E-01 Eh
 * total energy  :   -83.6190264 Eh     change       -0.6353260E-02 Eh
 * total energy  :   -83.6207290 Eh     change       -0.1702509E-02 Eh
 * total energy  :   -83.6217958 Eh     change       -0.1066812E-02 Eh
 * total energy  :   -83.6223337 Eh     change       -0.5379248E-03 Eh
 * total energy  :   -83.6226988 Eh     change       -0.3651118E-03 Eh
 * total energy  :   -83.6229592 Eh     change       -0.2604009E-03 Eh
 * total energy  :   -83.6231757 Eh     change       -0.2164965E-03 Eh
 * total energy  :   -83.6234012 Eh     change       -0.2254552E-03 Eh
 * total energy  :   -83.6255090 Eh     change       -0.1329839E-04 Eh
 * total energy  :   -83.6255261 Eh     change       -0.1704363E-04 Eh
 * total energy  :   -83.6255388 Eh     change       -0.1271114E-04 Eh
 * total energy  :   -83.6255457 Eh     change       -0.6912040E-05 Eh
 * total energy  :   -83.6255512 Eh     change       -0.5482944E-05 Eh
 * total energy  :   -83.6255573 Eh     change       -0.6064929E-05 Eh
 * total energy  :   -83.6255635 Eh     change       -0.6214357E-05 Eh
 * total energy  :   -83.6255688 Eh     change       -0.5305590E-05 Eh
 * total energy  :   -83.6255732 Eh     change       -0.4439243E-05 Eh
   *** GEOMETRY OPTIMIZATION CONVERGED AFTER 58 ITERATIONS ***

 final structure:
================
42
 xtb: 6.5.1 (579679a)
C           -3.04534960288934        2.23593245662146        1.64144428256086
O           -3.52864409094927        0.97226557144611        1.98327019206331
C           -2.43880622385295       -0.13468851187012        1.90742091658408
C           -3.10508670830340       -1.27234590282697        2.75791748168354
O           -1.29608380674726        0.26281556826376        2.36986153990617
C           -2.41702466018944       -0.56459126907366        0.38925338863619
N           -1.19322079284481       -0.40041710074648       -0.18643429552459
C           -0.98052644618490       -0.68626699775009       -1.42609983836458
C            0.40482113852620       -0.51046472302646       -2.02267484993638
C            0.40079504267388        0.59104603260218       -3.09353474929493
C            0.91974808253348       -1.83150592093678       -2.61294713881900
N            1.25234854466802       -0.10848153736103       -0.90182568963231
C            2.55827919815935        0.14792132838064       -0.97666745387291
O            3.24888006896619        0.09481269338530       -1.98783223339678
C            3.11523579655662        0.51822710553527        0.35786696229007
N            2.45706096673247        0.60773820638286        1.47098953059677
N            3.35448287885107        0.96889271812865        2.43340796357693
C            4.50278175566485        1.07592973051079        1.84420109835562
C            5.80044473493749        1.44112153743381        2.45421767659041
O            4.42188353558507        0.80503513616017        0.53221374640109
N           -1.99560024529587       -1.15234179295850       -2.23027919459031
C           -3.27413130358310       -1.37936272500092       -1.77035227429916
O           -4.12271632106318       -1.80523523258718       -2.57396059890698
C           -3.51651915674029       -1.08197591224545       -0.32435178059274
O           -4.67101599727224       -1.31311890036742        0.14811753567421
H           -2.84751985092120        2.33651015506352        0.55717418815931
H           -3.79846249331237        2.98561300713771        1.91485494564572
H           -2.11119164664326        2.48514556430887        2.17621023159809
H           -3.09445295646956       -0.96181255945871        3.80317439021432
H           -2.51069028306298       -2.17997657702277        2.65439466049089
H           -4.13097832119174       -1.46730342156987        2.45046640511784
H            0.08347549637911        1.53781998247183       -2.65766115535085
H            1.39598406363339        0.71096944827204       -3.51758438410074
H           -0.28803212138711        0.32061074211015       -3.89130299813944
H            1.91746216249189       -1.69747170392023       -3.02673356602988
H            0.25615305383143       -2.16130225026272       -3.40965777030765
H            0.95469541322283       -2.59954664721066       -1.84102086383877
H            0.75827868715573       -0.02838694050859       -0.00350425793198
H            6.21370798394278        2.31830135324919        1.95795618061376
H            6.51126049646326        0.62372472352903        2.33755860530272
H            5.66194346980345        1.65210190420438        3.51146871738548
H           -1.82366854186925       -1.35594033849179       -3.19901454651270

          :  Hamiltonian                  GFN1-xTB          :
         :: total energy             -83.625573217833 Eh    ::
         :: gradient norm              0.000334432165 Eh/a0 ::
         :: HOMO-LUMO gap              0.518225732078 eV    ::
         :: SCC energy               -84.363840341740 Eh    ::
         :: -> Gsolv                  -0.309040129653 Eh    ::
         :: repulsion energy           0.764423942428 Eh    ::

    * Orbital Energies and Occupations

         #    Occupation            Energy/Eh            Energy/eV
      -------------------------------------------------------------
         1        2.0000           -0.8513987             -23.1677
       ...           ...                  ...                  ...
        56        2.0000           -0.4402908             -11.9809
        57        2.0000           -0.4358269             -11.8595
        58        2.0000           -0.4323563             -11.7650
        59        2.0000           -0.4249671             -11.5639
        60        2.0000           -0.4142584             -11.2725
        61        2.0000           -0.4120137             -11.2115
        62        2.0000           -0.4044986             -11.0070
        63        2.0000           -0.3843033             -10.4574
        64        2.0000           -0.3796478             -10.3307
        65        2.0000           -0.3468661              -9.4387
        66        2.0000           -0.3331836              -9.0664
        67        2.0000           -0.3177814              -8.6473
        68        1.9999           -0.3111740              -8.4675 (HOMO)
        69        0.0001           -0.2921296              -7.9493 (LUMO)
        70                         -0.2455254              -6.6811
        71                         -0.2182153              -5.9379
        72                         -0.2024011              -5.5076
        73                         -0.1805141              -4.9120
        74                         -0.1385357              -3.7697
        75                         -0.1153061              -3.1376
        76                         -0.1075225              -2.9258
        77                         -0.0921376              -2.5072
        78                         -0.0884912              -2.4080
        79                         -0.0820572              -2.2329
       ...                                ...                  ...
       134                          0.7455316              20.2869
      -------------------------------------------------------------
                  HL-Gap            0.0190444 Eh            0.5182 eV

Wiberg/Mayer (AO) data.
largest (>0.10) Wiberg bond orders for each atom

     #   Z sym  total        # sym  WBO       # sym  WBO       # sym  WBO
 ---------------------------------------------------------------------------
     1   6 C    3.948 --     2 O    0.997    27 H    0.983    26 H    0.977
                            28 H    0.973
     2   8 O    1.921 --     1 C    0.997     3 C    0.735
     3   6 C    3.888 --     5 O    1.254     4 C    0.935     6 C    0.909
                             2 O    0.735
     4   6 C    3.988 --    30 H    0.988    29 H    0.988    31 H    0.985
                             3 C    0.935
     5   8 O    1.526 --     3 C    1.254
     6   6 C    3.921 --    24 C    1.338     7 N    1.242     3 C    0.909
                            25 O    0.137
     7   7 N    3.074 --     8 C    1.550     6 C    1.242
     8   6 C    3.924 --     7 N    1.550    21 N    1.103     9 C    0.975
     9   6 C    3.933 --    11 C    0.985    10 C    0.983     8 C    0.975
                            12 N    0.926
    10   6 C    3.992 --    32 H    0.986    34 H    0.985     9 C    0.983
                            33 H    0.982
    11   6 C    3.992 --    37 H    0.986     9 C    0.985    36 H    0.984
                            35 H    0.982
    12   7 N    3.393 --    13 C    1.310     9 C    0.926    38 H    0.863
                            14 O    0.188
    13   6 C    3.925 --    14 O    1.554    12 N    1.310    15 C    0.980
    14   8 O    1.877 --    13 C    1.554    12 N    0.188
    15   6 C    3.869 --    16 N    1.625    20 O    1.056    13 C    0.980
    16   7 N    3.013 --    15 C    1.625    17 N    1.190
    17   7 N    2.981 --    18 C    1.618    16 N    1.190
    18   6 C    3.876 --    17 N    1.618    20 O    1.080    19 C    1.029
    19   6 C    3.989 --    18 C    1.029    41 H    0.983    39 H    0.966
                            40 H    0.965
    20   8 O    2.320 --    18 C    1.080    15 C    1.056
    21   7 N    3.417 --    22 C    1.143     8 C    1.103    42 H    0.907
                            23 O    0.127
    22   6 C    3.879 --    23 O    1.503    21 N    1.143    24 C    1.021
    23   8 O    1.796 --    22 C    1.503    21 N    0.127
    24   6 C    3.956 --    25 O    1.407     6 C    1.338    22 C    1.021
    25   8 O    1.741 --    24 C    1.407     6 C    0.137
    26   1 H    1.022 --     1 C    0.977
    27   1 H    1.026 --     1 C    0.983
    28   1 H    1.041 --     1 C    0.973
    29   1 H    1.026 --     4 C    0.988
    30   1 H    1.020 --     4 C    0.988
    31   1 H    1.035 --     4 C    0.985
    32   1 H    1.007 --    10 C    0.986
    33   1 H    1.011 --    10 C    0.982
    34   1 H    1.004 --    10 C    0.985
    35   1 H    1.011 --    11 C    0.982
    36   1 H    1.004 --    11 C    0.984
    37   1 H    1.006 --    11 C    0.986
    38   1 H    0.989 --    12 N    0.863
    39   1 H    0.998 --    19 C    0.966
    40   1 H    0.998 --    19 C    0.965
    41   1 H    1.000 --    19 C    0.983
    42   1 H    0.959 --    21 N    0.907
 ---------------------------------------------------------------------------

           -------------------------------------------------
          | TOTAL ENERGY              -83.625573217833 Eh   |
          | GRADIENT NORM               0.000334432165 Eh/α |
          | HOMO-LUMO GAP               0.518225732078 eV   |
           -------------------------------------------------

 * finished run on 2023/06/21 at 17:02:33.574
