   * xtb version 6.5.1 (579679a) compiled by 'ehlert@majestix' on 2022-07-11
          program call               : /lustre/hpc/kemi/ree/PhD/git/ReactivityQM/dep/xtb-6.5.1/bin/xtb --gfn 1 /lustre/hpc/kemi/ree/PhD/git/ReactivityQM/calculations/R02methylcation/reac01prodE06/conf12/R02methylcation_reac01prodE06_conf12_gfn1.xyz --opt --vfukui --chrg -2 --uhf 0 --alpb DMSO

   ID    Z sym.   atoms
    1    6 C      1, 3, 5, 6, 8, 11-15, 17, 19, 22, 23
    2    8 O      2, 4, 7, 9, 18, 24
    3    7 N      10, 16, 20, 21, 25
    4    1 H      26-42

      * Solvation model:               ALPB
        Solvent                        DMSO
        Solvent mass                       7.8130E+01 g/mol
          :  Hamiltonian                  GFN1-xTB          :
 * total energy  :   -83.6047792 Eh     change       -0.2643219E-11 Eh
 * total energy  :   -83.6168504 Eh     change       -0.1207119E-01 Eh
 * total energy  :   -83.6211081 Eh     change       -0.4257666E-02 Eh
 * total energy  :   -83.6219656 Eh     change       -0.8575764E-03 Eh
 * total energy  :   -83.6223887 Eh     change       -0.4230393E-03 Eh
 * total energy  :   -83.6225697 Eh     change       -0.1810356E-03 Eh
 * total energy  :   -83.6227057 Eh     change       -0.1359438E-03 Eh
 * total energy  :   -83.6228090 Eh     change       -0.1033401E-03 Eh
 * total energy  :   -83.6228916 Eh     change       -0.8263173E-04 Eh
 * total energy  :   -83.6229606 Eh     change       -0.6897477E-04 Eh
 * total energy  :   -83.6236191 Eh     change       -0.3635852E-04 Eh
 * total energy  :   -83.6236704 Eh     change       -0.5127804E-04 Eh
 * total energy  :   -83.6236951 Eh     change       -0.2469638E-04 Eh
 * total energy  :   -83.6237164 Eh     change       -0.2123642E-04 Eh
 * total energy  :   -83.6237290 Eh     change       -0.1263499E-04 Eh
 * total energy  :   -83.6237451 Eh     change       -0.1610710E-04 Eh
 * total energy  :   -83.6237598 Eh     change       -0.1474176E-04 Eh
 * total energy  :   -83.6237725 Eh     change       -0.1267375E-04 Eh
 * total energy  :   -83.6237766 Eh     change       -0.4040892E-05 Eh
   *** GEOMETRY OPTIMIZATION CONVERGED AFTER 32 ITERATIONS ***

 final structure:
================
42
 xtb: 6.5.1 (579679a)
C           -6.84372447527123       -0.17539184277928       -0.23463437824394
O           -5.60640247112057        0.51041675548760       -0.22482146548106
C           -4.49636507940300       -0.27436328197448       -0.04502629360128
O           -4.63708973735400       -1.49128235127340        0.09992406071542
C           -3.22002907532522        0.42762931176109       -0.06554103653703
C           -3.12391135123185        1.83423006494706       -0.30229712946736
O           -4.09298727922392        2.65384284459193       -0.31931668291512
C           -1.75239423031498        2.33092786029634       -0.62656771082584
O           -1.50407834662245        3.46646232188997       -1.06197355742310
N           -0.73577669449959        1.41363562822603       -0.53563237203820
C           -0.87039696092754        0.19741592562857        0.25657766545819
C           -0.66325977134285        0.55381559982416        1.75673321975931
C            0.19577746125573       -0.82604275411684       -0.25702720268192
C            0.15530955709894       -2.10535066539174        0.59050328154762
C           -0.13199935201878       -1.15684420467087       -1.72065913209987
N            1.52002306828179       -0.20169484392057       -0.18152676056230
C            2.68188002427042       -0.85886761890204       -0.51819974592978
O            2.72739181944512       -1.92888183866530       -1.14462276139747
C            3.84677593499496       -0.11130581603121       -0.09078055076998
N            3.83958338853129        1.02745486407170        0.58759202896948
N            5.14785160737186        1.37798521690915        0.77410302684856
C            5.87054482463039        0.46086016978771        0.21727189099129
C            7.35101194070530        0.40168428891845        0.15572998736680
O            5.13067538437899       -0.51586817462587       -0.35085221126144
N           -2.15641672192822       -0.40955898064533        0.09003370486801
H           -7.62607512668124        0.56840113925497       -0.38623250935001
H           -6.87962226421051       -0.91290537426894       -1.04453863046911
H           -7.01453054790891       -0.69535392627730        0.71473679593201
H            0.19612760450798        1.78721270643786       -0.62487852173199
H           -1.35960002880296        1.34622803556475        2.02998942352001
H            0.34965734124411        0.89983046323743        1.95312298023505
H           -0.87144521889013       -0.31750135652996        2.37374764400705
H           -0.88035535691905       -2.43489819266280        0.68686221569791
H            0.73815970371103       -2.89505286902940        0.11758404937256
H            0.56520932290730       -1.92427046883591        1.58314614131064
H            0.54277763919176       -1.91608792327015       -2.11144227899882
H           -1.15565551967931       -1.53047786427579       -1.77859923257808
H           -0.04923475236117       -0.25959835725826       -2.33508085590481
H            1.64141980403347        0.52962805911848        0.50617318501384
H            7.77000262918392        1.25636032199321        0.68109457444485
H            7.71246540518242       -0.51763566360110        0.61588423473943
H            7.68870590111073        0.41520979105962       -0.88064809053192

          :  Hamiltonian                  GFN1-xTB          :
         :: total energy             -83.623776552492 Eh    ::
         :: gradient norm              0.000513823541 Eh/a0 ::
         :: HOMO-LUMO gap              0.065056906041 eV    ::
         :: SCC energy               -84.345604301442 Eh    ::
         :: -> Gsolv                  -0.270695131004 Eh    ::
         :: repulsion energy           0.748853848454 Eh    ::

    * Orbital Energies and Occupations

         #    Occupation            Energy/Eh            Energy/eV
      -------------------------------------------------------------
         1        2.0000           -0.8172082             -22.2374
       ...           ...                  ...                  ...
        56        2.0000           -0.4452193             -12.1150
        57        2.0000           -0.4412997             -12.0084
        58        2.0000           -0.4204261             -11.4404
        59        2.0000           -0.4177677             -11.3680
        60        2.0000           -0.4157359             -11.3128
        61        2.0000           -0.4099947             -11.1565
        62        2.0000           -0.4051754             -11.0254
        63        2.0000           -0.3977421             -10.8231
        64        2.0000           -0.3931357             -10.6978
        65        2.0000           -0.3820229             -10.3954
        66        2.0000           -0.3669910              -9.9863
        67        2.0000           -0.3372820              -9.1779
        68        1.5575           -0.2770783              -7.5397 (HOMO)
        69        0.4425           -0.2746875              -7.4746 (LUMO)
        70                         -0.2389824              -6.5030
        71                         -0.2216185              -6.0305
        72                         -0.1660926              -4.5196
        73                         -0.1532200              -4.1693
        74                         -0.1285875              -3.4990
        75                         -0.1131612              -3.0793
        76                         -0.1046136              -2.8467
        77                         -0.0937177              -2.5502
        78                         -0.0871356              -2.3711
        79                         -0.0816390              -2.2215
       ...                                ...                  ...
       134                          0.7363589              20.0373
      -------------------------------------------------------------
                  HL-Gap            0.0023908 Eh            0.0651 eV

Wiberg/Mayer (AO) data.
largest (>0.10) Wiberg bond orders for each atom

     #   Z sym  total        # sym  WBO       # sym  WBO       # sym  WBO
 ---------------------------------------------------------------------------
     1   6 C    3.911 --    26 H    0.987    27 H    0.980    28 H    0.980
                             2 O    0.939
     2   8 O    2.135 --     3 C    1.016     1 C    0.939     4 O    0.101
     3   6 C    3.812 --     4 O    1.547     5 C    1.114     2 O    1.016
     4   8 O    1.813 --     3 C    1.547     2 O    0.101
     5   6 C    3.904 --    25 N    1.281     6 C    1.226     3 C    1.114
     6   6 C    3.862 --     7 O    1.417     5 C    1.226     8 C    1.005
     7   8 O    1.656 --     6 C    1.417
     8   6 C    3.859 --     9 O    1.524    10 N    1.168     6 C    1.005
     9   8 O    1.787 --     8 C    1.524    10 N    0.131
    10   7 N    3.258 --     8 C    1.168    11 C    0.927    29 H    0.915
                             9 O    0.131
    11   6 C    3.941 --    25 N    1.024    12 C    0.961    13 C    0.950
                            10 N    0.927
    12   6 C    3.972 --    30 H    0.985    32 H    0.984    31 H    0.981
                            11 C    0.961
    13   6 C    3.930 --    15 C    0.997    14 C    0.994    11 C    0.950
                            16 N    0.928
    14   6 C    3.993 --    13 C    0.994    35 H    0.985    34 H    0.984
                            33 H    0.982
    15   6 C    3.993 --    13 C    0.997    38 H    0.985    36 H    0.983
                            37 H    0.982
    16   7 N    3.219 --    17 C    1.156    13 C    0.928    39 H    0.908
                            18 O    0.135
    17   6 C    3.799 --    18 O    1.486    16 N    1.156    19 C    1.088
    18   8 O    1.749 --    17 C    1.486    16 N    0.135
    19   6 C    3.723 --    20 N    1.459    17 C    1.088    24 O    1.001
    20   7 N    2.815 --    19 C    1.459    21 N    1.186
    21   7 N    2.980 --    22 C    1.626    20 N    1.186
    22   6 C    3.833 --    21 N    1.626    24 O    1.059    23 C    1.026
    23   6 C    3.992 --    22 C    1.026    40 H    0.985    41 H    0.970
                            42 H    0.969
    24   8 O    2.221 --    22 C    1.059    19 C    1.001
    25   7 N    2.607 --     5 C    1.281    11 C    1.024
    26   1 H    1.018 --     1 C    0.987
    27   1 H    1.018 --     1 C    0.980
    28   1 H    1.018 --     1 C    0.980
    29   1 H    0.968 --    10 N    0.915
    30   1 H    1.010 --    12 C    0.985
    31   1 H    1.004 --    12 C    0.981
    32   1 H    1.014 --    12 C    0.984
    33   1 H    1.025 --    14 C    0.982
    34   1 H    1.015 --    14 C    0.984
    35   1 H    1.008 --    14 C    0.985
    36   1 H    1.021 --    15 C    0.983
    37   1 H    1.026 --    15 C    0.982
    38   1 H    1.016 --    15 C    0.985
    39   1 H    0.977 --    16 N    0.908
    40   1 H    1.003 --    23 C    0.985
    41   1 H    1.000 --    23 C    0.970
    42   1 H    1.000 --    23 C    0.969
 ---------------------------------------------------------------------------

           -------------------------------------------------
          | TOTAL ENERGY              -83.623776552492 Eh   |
          | GRADIENT NORM               0.000513823541 Eh/α |
          | HOMO-LUMO GAP               0.065056906041 eV   |
           -------------------------------------------------

 * finished run on 2023/06/21 at 17:15:33.624
