   * xtb version 6.5.1 (579679a) compiled by 'ehlert@majestix' on 2022-07-11
          program call               : /lustre/hpc/kemi/ree/PhD/git/ReactivityQM/dep/xtb-6.5.1/bin/xtb --gfn 1 /lustre/hpc/kemi/ree/PhD/git/ReactivityQM/calculations/R02oxygendeprot/reac01prodE14/conf07/R02oxygendeprot_reac01prodE14_conf07_gfn1.xyz --opt --vfukui --chrg -2 --uhf 0 --alpb DMSO

   ID    Z sym.   atoms
    1    6 C      1, 3, 5, 7-10, 12, 14, 17, 18, 21, 23, 24
    2    8 O      2, 4, 13, 19, 22, 25
    3    7 N      6, 11, 15, 16, 20
    4    1 H      26-42

      * Solvation model:               ALPB
        Solvent                        DMSO
        Solvent mass                       7.8130E+01 g/mol
          :  Hamiltonian                  GFN1-xTB          :
 * total energy  :   -83.5875956 Eh     change       -0.5826450E-11 Eh
 * total energy  :   -83.6018471 Eh     change       -0.1425147E-01 Eh
 * total energy  :   -83.6071087 Eh     change       -0.5261633E-02 Eh
 * total energy  :   -83.6082777 Eh     change       -0.1168993E-02 Eh
 * total energy  :   -83.6092530 Eh     change       -0.9753376E-03 Eh
 * total energy  :   -83.6097841 Eh     change       -0.5311034E-03 Eh
 * total energy  :   -83.6101713 Eh     change       -0.3871579E-03 Eh
 * total energy  :   -83.6104947 Eh     change       -0.3233549E-03 Eh
 * total energy  :   -83.6106867 Eh     change       -0.1920338E-03 Eh
 * total energy  :   -83.6108312 Eh     change       -0.1445375E-03 Eh
 * total energy  :   -83.6123620 Eh     change       -0.3368887E-04 Eh
 * total energy  :   -83.6123732 Eh     change       -0.1122030E-04 Eh
 * total energy  :   -83.6123978 Eh     change       -0.2462510E-04 Eh
 * total energy  :   -83.6124070 Eh     change       -0.9192354E-05 Eh
 * total energy  :   -83.6124250 Eh     change       -0.1805051E-04 Eh
 * total energy  :   -83.6124330 Eh     change       -0.7941532E-05 Eh
 * total energy  :   -83.6124393 Eh     change       -0.6323397E-05 Eh
 * total energy  :   -83.6124423 Eh     change       -0.3025248E-05 Eh
 * total energy  :   -83.6124448 Eh     change       -0.2464829E-05 Eh
   *** GEOMETRY OPTIMIZATION CONVERGED AFTER 65 ITERATIONS ***

 final structure:
================
42
 xtb: 6.5.1 (579679a)
C            4.41583328974399        2.92831027605725        0.27206138153434
O            3.43221874103978        1.92470056938782        0.37620287505376
C            3.69360998468860        0.75518154441349       -0.38689670696229
O            4.74516225090653        0.73646765656914       -1.05960548398118
C            2.68383937477030       -0.20708163976744       -0.29262075885414
N            1.63174498532207        0.07719050894174        0.54898320530947
C            0.57646292636592       -0.65169719671466        0.57456271820694
C           -0.53427580296465       -0.38390260696941        1.56732567449079
C           -0.16846831966729        0.83330811991417        2.42368631779155
C           -0.76613259754929       -1.62267898086335        2.44641201124209
N           -1.77017361529731       -0.09398773594229        0.80450566896100
C           -2.95137181728258        0.20877190285365        1.37190218238824
O           -3.17859186502604        0.24001058096998        2.57983121918194
C           -4.01231094391314        0.51493323098999        0.38600056789472
N           -5.24302242743707        0.86927032820576        0.63368913058556
N           -5.84994288438617        1.05445331319478       -0.57532561038733
C           -4.96062748991510        0.80337936873643       -1.48368253568618
C           -5.13192996257509        0.85514503631435       -2.95293959220635
O           -3.77593098034407        0.45726097649232       -0.94901677895944
N            0.37217063959556       -1.71713972031104       -0.32943268012357
C            1.30594831554318       -2.00036121931639       -1.29248946110277
O            0.95986816169011       -2.61840965238982       -2.30587936524627
C            2.77780651409719       -1.64253952051968       -0.89810055927019
C            3.59760315568549       -1.62624475473736       -2.22932478177978
O            3.19558730496107       -2.58109225535925       -0.03187700656261
H            5.39215934013462        2.58023244059961        0.63633483292607
H            4.09023803280423        3.77240961641048        0.88358761148911
H            4.53901447888963        3.26730471133799       -0.76536637196279
H            0.78030387966888        0.64631841949037        2.92632521045053
H           -0.05632886984307        1.71159457569427        1.78843286675406
H           -0.93502405979098        1.02705251355869        3.17125083155475
H           -1.53990305470880       -1.43327971033010        3.18817257953240
H           -1.06971834306327       -2.46729035701613        1.82936132241461
H            0.15951512133144       -1.87612748765904        2.96295530635640
H           -1.70347014706243       -0.04150838143217       -0.19984194453323
H           -4.37675894448057        1.50270810421709       -3.39677002711572
H           -5.01477081804835       -0.14174492322211       -3.37831445473722
H           -6.12261663382820        1.23366089207822       -3.19036109664967
H           -0.57618896829754       -1.98514535416157       -0.53122477890358
H            4.65867557751199       -1.53062968200236       -2.00409144194982
H            3.44052565520625       -2.57214180080883       -2.75073230548450
H            3.28926681552509       -0.80665570691160       -2.87952677165337

          :  Hamiltonian                  GFN1-xTB          :
         :: total energy             -83.612444799052 Eh    ::
         :: gradient norm              0.000451869531 Eh/a0 ::
         :: HOMO-LUMO gap              0.150387994208 eV    ::
         :: SCC energy               -84.347639767576 Eh    ::
         :: -> Gsolv                  -0.294456708784 Eh    ::
         :: repulsion energy           0.760837649772 Eh    ::

    * Orbital Energies and Occupations

         #    Occupation            Energy/Eh            Energy/eV
      -------------------------------------------------------------
         1        2.0000           -0.8471461             -23.0520
       ...           ...                  ...                  ...
        56        2.0000           -0.4413213             -12.0090
        57        2.0000           -0.4407758             -11.9941
        58        2.0000           -0.4304075             -11.7120
        59        2.0000           -0.4243872             -11.5482
        60        2.0000           -0.4218461             -11.4790
        61        2.0000           -0.4146519             -11.2833
        62        2.0000           -0.4014128             -10.9230
        63        2.0000           -0.3920128             -10.6672
        64        2.0000           -0.3822675             -10.4020
        65        2.0000           -0.3705516             -10.0832
        66        2.0000           -0.3075272              -8.3682
        67        1.9980           -0.3007028              -8.1825
        68        1.8975           -0.2969070              -8.0793 (HOMO)
        69        0.1045           -0.2913803              -7.9289 (LUMO)
        70                         -0.2423765              -6.5954
        71                         -0.2133955              -5.8068
        72                         -0.1774445              -4.8285
        73                         -0.1721155              -4.6835
        74                         -0.1354826              -3.6867
        75                         -0.1129387              -3.0732
        76                         -0.1036811              -2.8213
        77                         -0.1007890              -2.7426
        78                         -0.0989162              -2.6916
        79                         -0.0850255              -2.3137
       ...                                ...                  ...
       134                          0.7262785              19.7630
      -------------------------------------------------------------
                  HL-Gap            0.0055267 Eh            0.1504 eV

Wiberg/Mayer (AO) data.
largest (>0.10) Wiberg bond orders for each atom

     #   Z sym  total        # sym  WBO       # sym  WBO       # sym  WBO
 ---------------------------------------------------------------------------
     1   6 C    3.925 --    27 H    0.986    26 H    0.980    28 H    0.980
                             2 O    0.958
     2   8 O    2.053 --     1 C    0.958     3 C    0.916
     3   6 C    3.848 --     4 O    1.445     5 C    1.346     2 O    0.916
     4   8 O    1.775 --     3 C    1.445     5 C    0.109
     5   6 C    3.828 --     3 C    1.346     6 N    1.186    23 C    0.914
                             4 O    0.109
     6   7 N    3.049 --     7 C    1.620     5 C    1.186
     7   6 C    3.896 --     6 N    1.620    20 N    1.006     8 C    0.979
     8   6 C    3.923 --     9 C    0.995    10 C    0.986     7 C    0.979
                            11 N    0.898
     9   6 C    3.994 --     8 C    0.995    30 H    0.985    29 H    0.985
                            31 H    0.985
    10   6 C    3.990 --    34 H    0.986     8 C    0.986    33 H    0.985
                            32 H    0.983
    11   7 N    3.337 --    12 C    1.271    35 H    0.902     8 C    0.898
                            13 O    0.174
    12   6 C    3.889 --    13 O    1.536    11 N    1.271    14 C    1.007
    13   8 O    1.843 --    12 C    1.536    11 N    0.174
    14   6 C    3.823 --    15 N    1.586    19 O    1.033    12 C    1.007
    15   7 N    2.940 --    14 C    1.586    16 N    1.191
    16   7 N    2.980 --    17 C    1.619    15 N    1.191
    17   6 C    3.859 --    16 N    1.619    19 O    1.068    18 C    1.029
    18   6 C    3.989 --    17 C    1.029    38 H    0.983    36 H    0.967
                            37 H    0.963
    19   8 O    2.289 --    17 C    1.068    14 C    1.033
    20   7 N    3.344 --    21 C    1.170     7 C    1.006    39 H    0.914
                            22 O    0.116
    21   6 C    3.808 --    22 O    1.562    20 N    1.170    23 C    0.877
    22   8 O    1.831 --    21 C    1.562    20 N    0.116
    23   6 C    3.960 --    25 O    1.121    24 C    0.951     5 C    0.914
                            21 C    0.877
    24   6 C    3.990 --    42 H    0.990    41 H    0.987    40 H    0.987
                            23 C    0.951
    25   8 O    1.398 --    23 C    1.121
    26   1 H    1.022 --     1 C    0.980
    27   1 H    1.021 --     1 C    0.986
    28   1 H    1.023 --     1 C    0.980
    29   1 H    1.018 --     9 C    0.985
    30   1 H    1.017 --     9 C    0.985
    31   1 H    1.014 --     9 C    0.985
    32   1 H    1.014 --    10 C    0.983
    33   1 H    1.008 --    10 C    0.985
    34   1 H    1.007 --    10 C    0.986
    35   1 H    0.950 --    11 N    0.902
    36   1 H    0.998 --    18 C    0.967
    37   1 H    0.997 --    18 C    0.963
    38   1 H    1.000 --    18 C    0.983
    39   1 H    0.965 --    20 N    0.914
    40   1 H    1.036 --    24 C    0.987
    41   1 H    1.026 --    24 C    0.987
    42   1 H    1.017 --    24 C    0.990
 ---------------------------------------------------------------------------

           -------------------------------------------------
          | TOTAL ENERGY              -83.612444799052 Eh   |
          | GRADIENT NORM               0.000451869531 Eh/α |
          | HOMO-LUMO GAP               0.150387994208 eV   |
           -------------------------------------------------

 * finished run on 2023/06/21 at 17:16:22.856
