   * xtb version 6.5.1 (579679a) compiled by 'ehlert@majestix' on 2022-07-11
          program call               : /lustre/hpc/kemi/ree/PhD/git/ReactivityQM/dep/xtb-6.5.1/bin/xtb --gfn 1 /lustre/hpc/kemi/ree/PhD/git/ReactivityQM/calculations/R02methylcation/reac01prodN07/conf17/R02methylcation_reac01prodN07_conf17_gfn1.xyz --opt --vfukui --chrg 0 --uhf 0 --alpb DMSO

   ID    Z sym.   atoms
    1    6 C      1, 3, 5, 7-10, 12, 14, 17-19, 22, 24
    2    8 O      2, 4, 13, 20, 23, 25
    3    7 N      6, 11, 15, 16, 21
    4    1 H      26-42

      * Solvation model:               ALPB
        Solvent                        DMSO
        Solvent mass                       7.8130E+01 g/mol
          :  Hamiltonian                  GFN1-xTB          :
 * total energy  :   -82.9499503 Eh     change       -0.3022933E-09 Eh
 * total energy  :   -82.9669152 Eh     change       -0.1696496E-01 Eh
 * total energy  :   -82.9736896 Eh     change       -0.6774374E-02 Eh
 * total energy  :   -82.9749373 Eh     change       -0.1247682E-02 Eh
 * total energy  :   -82.9758604 Eh     change       -0.9230687E-03 Eh
 * total energy  :   -82.9762365 Eh     change       -0.3761497E-03 Eh
 * total energy  :   -82.9765283 Eh     change       -0.2917839E-03 Eh
 * total energy  :   -82.9766892 Eh     change       -0.1608455E-03 Eh
 * total energy  :   -82.9767932 Eh     change       -0.1040710E-03 Eh
 * total energy  :   -82.9768816 Eh     change       -0.8840693E-04 Eh
 * total energy  :   -82.9774057 Eh     change       -0.2102346E-04 Eh
 * total energy  :   -82.9774248 Eh     change       -0.1918773E-04 Eh
 * total energy  :   -82.9774385 Eh     change       -0.1367357E-04 Eh
 * total energy  :   -82.9774543 Eh     change       -0.1583440E-04 Eh
 * total energy  :   -82.9774602 Eh     change       -0.5869137E-05 Eh
 * total energy  :   -82.9774721 Eh     change       -0.1187806E-04 Eh
 * total energy  :   -82.9774784 Eh     change       -0.6309212E-05 Eh
 * total energy  :   -82.9774845 Eh     change       -0.6104654E-05 Eh
 * total energy  :   -82.9774892 Eh     change       -0.4697844E-05 Eh
   *** GEOMETRY OPTIMIZATION CONVERGED AFTER 28 ITERATIONS ***

 final structure:
================
42
 xtb: 6.5.1 (579679a)
C           -6.24659603998410       -1.25116959790232        1.44197272064195
O           -5.00631515627242       -0.65291908978778        1.08889018391991
C           -5.00563127693509        0.06650735726523       -0.07383524841268
O           -6.02378858011460        0.16564777982880       -0.73870917215679
C           -3.70589287148142        0.65178474619354       -0.36459653027508
N           -2.71528150735743        0.37520295769988        0.55804200212159
C           -1.53684287349019        0.84912465748038        0.40855971704056
C           -0.45672007362944        0.57391630221894        1.43120340623769
C           -0.17185403550510        1.84862648086249        2.23681507124426
C           -0.87809623259927       -0.58107388121478        2.34169004732989
N            0.76020575863724        0.18742785160624        0.68272524759475
C            1.93220302264605       -0.08663710052151        1.26163950738727
O            2.19972652904492       -0.06855496280472        2.44422909156087
C            2.97003115265109       -0.44105041011739        0.22517064995151
N            2.81125908929262       -0.50302889206769       -1.06339723432270
N            4.01971864529162       -0.84753852774538       -1.54548706972845
C            4.21599062806834       -1.01575055660786       -2.97019143240288
C            4.87493524688272       -0.98745738780886       -0.55361767058420
C            6.29805333866948       -1.35787620137739       -0.60737493900675
O            4.23641970340744       -0.73641139562831        0.56925887837902
N           -1.20180978615223        1.66406504811979       -0.65747511755017
C           -2.07822498926324        2.00068962511152       -1.66209723866231
O           -1.69541615609782        2.70828674728997       -2.58840234656878
C           -3.48154641652085        1.45149025149763       -1.51826535806848
O           -4.32050449579303        1.72942488673275       -2.39048653410600
H           -6.08853149364555       -1.77904592884633        2.38148969269454
H           -6.56954781056532       -1.95823595468405        0.67063629071833
H           -7.02205182194505       -0.48885849632270        1.57172285484644
H           -1.08714172621130        2.16980669112903        2.73253112586098
H            0.59200896490452        1.66343341805343        2.98912701294662
H            0.16926185435569        2.64007756864777        1.57217628987359
H           -1.82114039056233       -0.32725875271718        2.82412080096659
H           -1.01815444355657       -1.48492840958845        1.75101889747563
H           -0.12139976595371       -0.76197142601888        3.10183797339849
H            0.69212738744198        0.09341536961357       -0.31782042015420
H            5.14756822755675       -0.53162747340701       -3.25445516138781
H            3.37161739376639       -0.56017310582988       -3.48190282465220
H            4.26826813106808       -2.08001106424816       -3.19661200191884
H            6.72955609616682       -1.29686046063442        0.38979327995461
H            6.40022019671535       -2.37503744970014       -0.98954089120398
H            6.83178600626177       -0.69223863617153       -1.28653332675748
H           -0.26846842921465        2.02678642238842       -0.73481622426871

          :  Hamiltonian                  GFN1-xTB          :
         :: total energy             -82.977489207697 Eh    ::
         :: gradient norm              0.000739988212 Eh/a0 ::
         :: HOMO-LUMO gap              0.445466929729 eV    ::
         :: SCC energy               -83.767474595566 Eh    ::
         :: -> Gsolv                  -0.133360977123 Eh    ::
         :: repulsion energy           0.814951358398 Eh    ::

    * Orbital Energies and Occupations

         #    Occupation            Energy/Eh            Energy/eV
      -------------------------------------------------------------
         1        2.0000           -0.9350245             -25.4433
       ...           ...                  ...                  ...
        55        2.0000           -0.5077249             -13.8159
        56        2.0000           -0.5032502             -13.6941
        57        2.0000           -0.4986557             -13.5691
        58        2.0000           -0.4897578             -13.3270
        59        2.0000           -0.4811590             -13.0930
        60        2.0000           -0.4681287             -12.7384
        61        2.0000           -0.4670298             -12.7085
        62        2.0000           -0.4618733             -12.5682
        63        2.0000           -0.4468232             -12.1587
        64        2.0000           -0.4412773             -12.0078
        65        2.0000           -0.4243354             -11.5468
        66        2.0000           -0.3832230             -10.4280
        67        1.9996           -0.3716931             -10.1143 (HOMO)
        68        0.0004           -0.3553225              -9.6688 (LUMO)
        69                         -0.3421535              -9.3105
        70                         -0.2753952              -7.4939
        71                         -0.2477186              -6.7408
        72                         -0.2369533              -6.4478
        73                         -0.2014325              -5.4813
        74                         -0.1835264              -4.9940
        75                         -0.1707347              -4.6459
        76                         -0.1273032              -3.4641
        77                         -0.1249138              -3.3991
        78                         -0.1239650              -3.3733
       ...                                ...                  ...
       134                          0.7648087              20.8115
      -------------------------------------------------------------
                  HL-Gap            0.0163706 Eh            0.4455 eV

Wiberg/Mayer (AO) data.
largest (>0.10) Wiberg bond orders for each atom

     #   Z sym  total        # sym  WBO       # sym  WBO       # sym  WBO
 ---------------------------------------------------------------------------
     1   6 C    3.897 --    26 H    0.987    27 H    0.981    28 H    0.980
                             2 O    0.925
     2   8 O    2.139 --     3 C    1.029     1 C    0.925     4 O    0.110
     3   6 C    3.850 --     4 O    1.598     5 C    1.113     2 O    1.029
     4   8 O    1.872 --     3 C    1.598     2 O    0.110
     5   6 C    3.914 --    24 C    1.263     6 N    1.158     3 C    1.113
                            25 O    0.129
     6   7 N    3.033 --     7 C    1.635     5 C    1.158
     7   6 C    3.934 --     6 N    1.635    21 N    1.085     8 C    0.979
     8   6 C    3.913 --    10 C    0.993     9 C    0.982     7 C    0.979
                            11 N    0.893
     9   6 C    3.988 --    31 H    0.984    29 H    0.984     8 C    0.982
                            30 H    0.980
    10   6 C    3.990 --     8 C    0.993    33 H    0.985    34 H    0.984
                            32 H    0.982
    11   7 N    3.385 --    12 C    1.302     8 C    0.893    35 H    0.893
                            13 O    0.202
    12   6 C    3.927 --    13 O    1.605    11 N    1.302    14 C    0.949
    13   8 O    1.935 --    12 C    1.605    11 N    0.202
    14   6 C    3.836 --    15 N    1.607    20 O    1.066    12 C    0.949
    15   7 N    2.990 --    14 C    1.607    16 N    1.149
    16   7 N    3.631 --    18 C    1.423    15 N    1.149    17 C    0.910
    17   6 C    3.885 --    37 H    0.977    36 H    0.973    38 H    0.965
                            16 N    0.910
    18   6 C    3.844 --    16 N    1.423    20 O    1.156    19 C    1.041
    19   6 C    3.962 --    18 C    1.041    39 H    0.973    41 H    0.949
                            40 H    0.943
    20   8 O    2.389 --    18 C    1.156    14 C    1.066
    21   7 N    3.416 --    22 C    1.150     7 C    1.085    42 H    0.898
                            23 O    0.134
    22   6 C    3.874 --    23 O    1.588    21 N    1.150    24 C    0.965
    23   8 O    1.866 --    22 C    1.588    21 N    0.134
    24   6 C    3.942 --    25 O    1.533     5 C    1.263    22 C    0.965
    25   8 O    1.836 --    24 C    1.533     5 C    0.129
    26   1 H    1.016 --     1 C    0.987
    27   1 H    1.013 --     1 C    0.981
    28   1 H    1.013 --     1 C    0.980
    29   1 H    1.002 --     9 C    0.984
    30   1 H    1.007 --     9 C    0.980
    31   1 H    1.002 --     9 C    0.984
    32   1 H    1.013 --    10 C    0.982
    33   1 H    1.007 --    10 C    0.985
    34   1 H    1.007 --    10 C    0.984
    35   1 H    0.942 --    11 N    0.893
    36   1 H    0.990 --    17 C    0.973
    37   1 H    0.992 --    17 C    0.977
    38   1 H    0.989 --    17 C    0.965
    39   1 H    0.986 --    19 C    0.973
    40   1 H    0.986 --    19 C    0.943
    41   1 H    0.986 --    19 C    0.949
    42   1 H    0.944 --    21 N    0.898
 ---------------------------------------------------------------------------

           -------------------------------------------------
          | TOTAL ENERGY              -82.977489207697 Eh   |
          | GRADIENT NORM               0.000739988212 Eh/α |
          | HOMO-LUMO GAP               0.445466929729 eV   |
           -------------------------------------------------

 * finished run on 2023/06/21 at 17:38:04.943
