   * xtb version 6.5.1 (579679a) compiled by 'ehlert@majestix' on 2022-07-11
          program call               : /lustre/hpc/kemi/ree/PhD/git/ReactivityQM/dep/xtb-6.5.1/bin/xtb --gfn 1 /lustre/hpc/kemi/ree/PhD/git/ReactivityQM/calculations/R02methylcation/reac01prodE06/conf14/R02methylcation_reac01prodE06_conf14_gfn1.xyz --opt --vfukui --chrg -2 --uhf 0 --alpb DMSO

   ID    Z sym.   atoms
    1    6 C      1, 3, 5, 6, 8, 11-15, 17, 19, 22, 23
    2    8 O      2, 4, 7, 9, 18, 24
    3    7 N      10, 16, 20, 21, 25
    4    1 H      26-42

      * Solvation model:               ALPB
        Solvent                        DMSO
        Solvent mass                       7.8130E+01 g/mol
          :  Hamiltonian                  GFN1-xTB          :
 * total energy  :   -83.6054880 Eh     change       -0.2713620E-08 Eh
 * total energy  :   -83.6167564 Eh     change       -0.1126832E-01 Eh
 * total energy  :   -83.6204898 Eh     change       -0.3733450E-02 Eh
 * total energy  :   -83.6212135 Eh     change       -0.7236985E-03 Eh
 * total energy  :   -83.6217941 Eh     change       -0.5805943E-03 Eh
 * total energy  :   -83.6221989 Eh     change       -0.4047577E-03 Eh
 * total energy  :   -83.6225659 Eh     change       -0.3670506E-03 Eh
 * total energy  :   -83.6228671 Eh     change       -0.3011425E-03 Eh
 * total energy  :   -83.6231017 Eh     change       -0.2346174E-03 Eh
 * total energy  :   -83.6232865 Eh     change       -0.1848807E-03 Eh
 * total energy  :   -83.6238225 Eh     change       -0.3027396E-04 Eh
 * total energy  :   -83.6238391 Eh     change       -0.1660247E-04 Eh
 * total energy  :   -83.6238512 Eh     change       -0.1212610E-04 Eh
 * total energy  :   -83.6238589 Eh     change       -0.7644617E-05 Eh
 * total energy  :   -83.6238645 Eh     change       -0.5660835E-05 Eh
 * total energy  :   -83.6238717 Eh     change       -0.7181684E-05 Eh
 * total energy  :   -83.6238783 Eh     change       -0.6547673E-05 Eh
 * total energy  :   -83.6238841 Eh     change       -0.5831884E-05 Eh
 * total energy  :   -83.6238880 Eh     change       -0.3872461E-05 Eh
   *** GEOMETRY OPTIMIZATION CONVERGED AFTER 26 ITERATIONS ***

 final structure:
================
42
 xtb: 6.5.1 (579679a)
C           -3.92818590806681        3.52667012669056       -0.97382576701253
O           -3.79414674251520        2.21301774708738       -0.46607449124686
C           -2.51099623894499        1.73185200395757       -0.40222212512593
O           -1.58181681104725        2.45026738643625       -0.77827613108701
C           -2.37362870610566        0.36970951386469        0.09590220585519
C           -3.50050205692081       -0.43595371460339        0.43910621849261
O           -4.70637283812414       -0.03932141998792        0.51136391267435
C           -3.20349130987968       -1.87629123325320        0.68000861192167
O           -4.06616253498063       -2.74903236635269        0.86896275720665
N           -1.88664729422896       -2.26214140998496        0.57928409912014
C           -0.78313370169965       -1.31975578047595        0.70588043256823
C           -0.43647606380054       -1.15886406632442        2.21300637647285
C            0.44969473117385       -1.88123346950322       -0.08988016688198
C            1.03364596695300       -3.15399675403420        0.53380660661742
C            0.01701801575414       -2.14846061620329       -1.54028188608053
N            1.43958735467803       -0.80835201254669       -0.05927847501243
C            2.68446653711065       -0.89417965319644       -0.60312801113743
O            3.15992379475190       -1.92779225937229       -1.10925015447922
C            3.45629641911078        0.33367037856689       -0.50057205088913
N            4.67209062809679        0.55875329623960       -0.97113041840303
N            4.99301619444038        1.84234741022793       -0.62481046385451
C            3.98367765363896        2.32759641965345        0.02365424300549
C            3.86783228030346        3.68329874785270        0.61358762928031
O            2.96929622383468        1.44358069727621        0.14384814779210
N           -1.07420839680843       -0.03972084500045        0.14211425580364
H           -3.55170101747137        3.59363330870233       -2.00114829715429
H           -4.99007584701993        3.77385766582921       -0.96003209434800
H           -3.37888641320688        4.24664128747760       -0.35655196183587
H           -1.70327583702680       -3.19810120037221        0.90539107315156
H           -0.32386634373525       -2.12936529874082        2.69192619991610
H            0.48739507933538       -0.59388136397476        2.32140126365012
H           -1.24020780315427       -0.61556021912542        2.70842236317127
H            1.76887905291107       -3.60259075865765       -0.13344966398050
H            1.52317057842903       -2.92970305875670        1.48034717289842
H            0.24620797054054       -3.88501046744819        0.71031882466055
H            0.86952549263273       -2.46235091278652       -2.14105219524250
H           -0.73732123597898       -2.93464050032370       -1.56100488782278
H           -0.40900433560948       -1.23928327679686       -1.96785870017119
H            1.04530100101371        0.11613558399447        0.10433904005897
H            3.09188255920176        4.25786241098425        0.10664207554858
H            3.60364301776325        3.61406136177868        1.66849927126052
H            4.81755388463144        4.20262731120304        0.51279016059377

          :  Hamiltonian                  GFN1-xTB          :
         :: total energy             -83.623887965535 Eh    ::
         :: gradient norm              0.000498860221 Eh/a0 ::
         :: HOMO-LUMO gap              0.091344518150 eV    ::
         :: SCC energy               -84.345479749835 Eh    ::
         :: -> Gsolv                  -0.268461484863 Eh    ::
         :: repulsion energy           0.748807354863 Eh    ::

    * Orbital Energies and Occupations

         #    Occupation            Energy/Eh            Energy/eV
      -------------------------------------------------------------
         1        2.0000           -0.8178661             -22.2553
       ...           ...                  ...                  ...
        56        2.0000           -0.4407858             -11.9944
        57        2.0000           -0.4375829             -11.9072
        58        2.0000           -0.4195920             -11.4177
        59        2.0000           -0.4158429             -11.3157
        60        2.0000           -0.4131980             -11.2437
        61        2.0000           -0.4073155             -11.0836
        62        2.0000           -0.4015557             -10.9269
        63        2.0000           -0.3963604             -10.7855
        64        2.0000           -0.3901734             -10.6172
        65        2.0000           -0.3781803             -10.2908
        66        2.0000           -0.3657241              -9.9519
        67        2.0000           -0.3342939              -9.0966
        68        1.7081           -0.2743424              -7.4652 (HOMO)
        69        0.2919           -0.2709856              -7.3739 (LUMO)
        70                         -0.2364376              -6.4338
        71                         -0.2213654              -6.0237
        72                         -0.1634387              -4.4474
        73                         -0.1512691              -4.1162
        74                         -0.1279699              -3.4822
        75                         -0.1109635              -3.0195
        76                         -0.1047621              -2.8507
        77                         -0.0958360              -2.6078
        78                         -0.0847334              -2.3057
        79                         -0.0802217              -2.1829
       ...                                ...                  ...
       134                          0.7380465              20.0833
      -------------------------------------------------------------
                  HL-Gap            0.0033568 Eh            0.0913 eV

Wiberg/Mayer (AO) data.
largest (>0.10) Wiberg bond orders for each atom

     #   Z sym  total        # sym  WBO       # sym  WBO       # sym  WBO
 ---------------------------------------------------------------------------
     1   6 C    3.912 --    27 H    0.987    26 H    0.980    28 H    0.980
                             2 O    0.940
     2   8 O    2.135 --     3 C    1.014     1 C    0.940     4 O    0.101
     3   6 C    3.815 --     4 O    1.548     5 C    1.115     2 O    1.014
     4   8 O    1.817 --     3 C    1.548     2 O    0.101
     5   6 C    3.911 --    25 N    1.271     6 C    1.234     3 C    1.115
     6   6 C    3.873 --     7 O    1.407     5 C    1.234     8 C    1.013
     7   8 O    1.653 --     6 C    1.407
     8   6 C    3.860 --     9 O    1.524    10 N    1.156     6 C    1.013
     9   8 O    1.789 --     8 C    1.524    10 N    0.127
    10   7 N    3.251 --     8 C    1.156    11 C    0.929    29 H    0.917
                             9 O    0.127
    11   6 C    3.941 --    25 N    1.029    12 C    0.961    13 C    0.941
                            10 N    0.929
    12   6 C    3.977 --    30 H    0.986    32 H    0.985    31 H    0.985
                            11 C    0.961
    13   6 C    3.933 --    14 C    0.999    15 C    0.990    11 C    0.941
                            16 N    0.938
    14   6 C    3.994 --    13 C    0.999    34 H    0.985    35 H    0.983
                            33 H    0.980
    15   6 C    3.992 --    13 C    0.990    36 H    0.985    37 H    0.985
                            38 H    0.982
    16   7 N    3.280 --    17 C    1.203    13 C    0.938    39 H    0.889
                            18 O    0.145
    17   6 C    3.833 --    18 O    1.466    16 N    1.203    19 C    1.077
    18   8 O    1.746 --    17 C    1.466    16 N    0.145
    19   6 C    3.741 --    20 N    1.479    17 C    1.077    24 O    0.996
    20   7 N    2.810 --    19 C    1.479    21 N    1.188
    21   7 N    2.979 --    22 C    1.625    20 N    1.188
    22   6 C    3.832 --    21 N    1.625    24 O    1.056    23 C    1.026
    23   6 C    3.993 --    22 C    1.026    42 H    0.985    41 H    0.971
                            40 H    0.967
    24   8 O    2.229 --    22 C    1.056    19 C    0.996
    25   7 N    2.682 --     5 C    1.271    11 C    1.029
    26   1 H    1.018 --     1 C    0.980
    27   1 H    1.018 --     1 C    0.987
    28   1 H    1.018 --     1 C    0.980
    29   1 H    0.970 --    10 N    0.917
    30   1 H    1.007 --    12 C    0.986
    31   1 H    1.014 --    12 C    0.985
    32   1 H    1.011 --    12 C    0.985
    33   1 H    1.021 --    14 C    0.980
    34   1 H    1.008 --    14 C    0.985
    35   1 H    1.005 --    14 C    0.983
    36   1 H    1.014 --    15 C    0.985
    37   1 H    1.014 --    15 C    0.985
    38   1 H    1.023 --    15 C    0.982
    39   1 H    0.988 --    16 N    0.889
    40   1 H    0.999 --    23 C    0.967
    41   1 H    1.000 --    23 C    0.971
    42   1 H    1.003 --    23 C    0.985
 ---------------------------------------------------------------------------

           -------------------------------------------------
          | TOTAL ENERGY              -83.623887965535 Eh   |
          | GRADIENT NORM               0.000498860221 Eh/α |
          | HOMO-LUMO GAP               0.091344518150 eV   |
           -------------------------------------------------

 * finished run on 2023/06/21 at 17:15:20.969
