   * xtb version 6.5.1 (579679a) compiled by 'ehlert@majestix' on 2022-07-11
          program call               : /lustre/hpc/kemi/ree/PhD/git/ReactivityQM/dep/xtb-6.5.1/bin/xtb --gfn 1 /lustre/hpc/kemi/ree/PhD/git/ReactivityQM/calculations/RaltegravirCLI/reac01prodE02/conf03/RaltegravirCLI_reac01prodE02_conf03_gfn1.xyz --opt --vfukui --chrg -1 --uhf 0 --alpb DMSO

   ID    Z sym.   atoms
    1    6 C      1-3, 6, 7
    2    7 N      4, 5
    3    8 O      8, 10
    4   17 Cl     9
    5    1 H      11-16

      * Solvation model:               ALPB
        Solvent                        DMSO
        Solvent mass                       7.8130E+01 g/mol
          :  Hamiltonian                  GFN1-xTB          :
 * total energy  :   -34.1680430 Eh     change       -0.4973799E-13 Eh
 * total energy  :   -34.1708408 Eh     change       -0.2797780E-02 Eh
 * total energy  :   -34.1723395 Eh     change       -0.1498709E-02 Eh
 * total energy  :   -34.1726205 Eh     change       -0.2810279E-03 Eh
 * total energy  :   -34.1727510 Eh     change       -0.1304565E-03 Eh
 * total energy  :   -34.1727692 Eh     change       -0.1826441E-04 Eh
 * total energy  :   -34.1727753 Eh     change       -0.6101813E-05 Eh
 * total energy  :   -34.1727765 Eh     change       -0.1135176E-05 Eh
   *** GEOMETRY OPTIMIZATION CONVERGED AFTER 8 ITERATIONS ***

 final structure:
================
16
 xtb: 6.5.1 (579679a)
C           -1.05427635408668        1.59884168035819       -0.16852393892461
C           -0.60846730931232        0.13470345692849       -0.06493549974244
C           -1.64857800418096       -0.71511998283612        0.67626701431245
N           -0.39968211193140       -0.41310355787298       -1.41652454002908
N            0.82211521359845       -0.76813644863157       -1.52445205079101
C            1.49741988612432       -0.52432009146082       -0.38287924955966
C            2.83358398048603       -0.80166433199934       -0.19411911149152
O            3.65148215166226       -1.29225430029382       -0.96075756999714
Cl           3.41773648796593       -0.35001747622967        1.48787369997437
O            0.65422120353485        0.04518903481160        0.57710495440312
H           -1.99188302727412        1.65878022499997       -0.71684702600917
H           -1.19058534438839        2.01877365811328        0.82607884398123
H           -0.29426384990317        2.17293185654455       -0.69612520739527
H           -1.30081090953607       -1.74529176254279        0.73278371350676
H           -2.59475576715609       -0.68661749644357        0.14035369735710
H           -1.79325624560242       -0.33269246344544        1.68470327040452

          :  Hamiltonian                  GFN1-xTB          :
         :: total energy             -34.172776484963 Eh    ::
         :: gradient norm              0.000914718947 Eh/a0 ::
         :: HOMO-LUMO gap              2.082021845630 eV    ::
         :: SCC energy               -34.430508075906 Eh    ::
         :: -> Gsolv                  -0.087492493283 Eh    ::
         :: repulsion energy           0.265372195686 Eh    ::

    * Orbital Energies and Occupations

         #    Occupation            Energy/Eh            Energy/eV
      -------------------------------------------------------------
         1        2.0000           -0.8671147             -23.5954
       ...           ...                  ...                  ...
        16        2.0000           -0.5173069             -14.0766
        17        2.0000           -0.5013577             -13.6426
        18        2.0000           -0.4935894             -13.4313
        19        2.0000           -0.4918010             -13.3826
        20        2.0000           -0.4830704             -13.1450
        21        2.0000           -0.4602601             -12.5243
        22        2.0000           -0.4561140             -12.4115
        23        2.0000           -0.4473378             -12.1727
        24        2.0000           -0.4451486             -12.1131
        25        2.0000           -0.4351887             -11.8421
        26        2.0000           -0.4255551             -11.5799
        27        2.0000           -0.3879702             -10.5572
        28        2.0000           -0.3400040              -9.2520 (HOMO)
        29                         -0.2634911              -7.1700 (LUMO)
        30                         -0.1692640              -4.6059
        31                         -0.1482914              -4.0352
        32                         -0.1101429              -2.9971
        33                         -0.1043927              -2.8407
        34                         -0.0630726              -1.7163
        35                         -0.0518773              -1.4117
        36                         -0.0338394              -0.9208
        37                         -0.0313989              -0.8544
        38                          0.0014499               0.0395
        39                          0.0016650               0.0453
       ...                                ...                  ...
        57                          0.7579514              20.6249
      -------------------------------------------------------------
                  HL-Gap            0.0765129 Eh            2.0820 eV

Wiberg/Mayer (AO) data.
largest (>0.10) Wiberg bond orders for each atom

     #   Z sym  total        # sym  WBO       # sym  WBO       # sym  WBO
 ---------------------------------------------------------------------------
     1   6 C    3.993 --    11 H    0.987    12 H    0.986    13 H    0.985
                             2 C    0.980
     2   6 C    3.897 --     1 C    0.980     3 C    0.979     4 N    0.972
                            10 O    0.924
     3   6 C    3.993 --    15 H    0.987    16 H    0.986    14 H    0.985
                             2 C    0.979
     4   7 N    2.947 --     5 N    1.582     2 C    0.972     7 C    0.119
                             6 C    0.117
     5   7 N    3.025 --     4 N    1.582     6 C    1.286
     6   6 C    3.856 --     7 C    1.358     5 N    1.286    10 O    0.945
                             4 N    0.117     8 O    0.109
     7   6 C    3.903 --     8 O    1.571     6 C    1.358     9 Cl   0.780
                             4 N    0.119
     8   8 O    1.914 --     7 C    1.571     9 Cl   0.113     6 C    0.109
     9  17 Cl   0.954 --     7 C    0.780     8 O    0.113
    10   8 O    2.059 --     6 C    0.945     2 C    0.924
    11   1 H    1.008 --     1 C    0.987
    12   1 H    1.007 --     1 C    0.986
    13   1 H    1.011 --     1 C    0.985
    14   1 H    1.011 --     3 C    0.985
    15   1 H    1.008 --     3 C    0.987
    16   1 H    1.007 --     3 C    0.986
 ---------------------------------------------------------------------------

           -------------------------------------------------
          | TOTAL ENERGY              -34.172776484963 Eh   |
          | GRADIENT NORM               0.000914718947 Eh/α |
          | HOMO-LUMO GAP               2.082021845630 eV   |
           -------------------------------------------------

 * finished run on 2023/06/20 at 14:52:31.800
