   * xtb version 6.5.1 (579679a) compiled by 'ehlert@majestix' on 2022-07-11
          program call               : /lustre/hpc/kemi/ree/PhD/git/ReactivityQM/dep/xtb-6.5.1/bin/xtb --gfn 1 /lustre/hpc/kemi/ree/PhD/git/ReactivityQM/calculations/RaltegravirCLI/reac02prodN11/conf18/RaltegravirCLI_reac02prodN11_conf18_gfn1.xyz --opt --vfukui --chrg 1 --uhf 0 --alpb DMSO

   ID    Z sym.   atoms
    1    6 C      1, 3-6, 9, 10, 13-18, 20-22, 24
    2    7 N      2, 7, 8, 12
    3    8 O      11, 23, 25
    4    9 F      19
    5    1 H      26-47

      * Solvation model:               ALPB
        Solvent                        DMSO
        Solvent mass                       7.8130E+01 g/mol
          :  Hamiltonian                  GFN1-xTB          :
 * total energy  :   -79.4588138 Eh     change       -0.3071534E-09 Eh
 * total energy  :   -79.4665389 Eh     change       -0.7725097E-02 Eh
 * total energy  :   -79.4691502 Eh     change       -0.2611257E-02 Eh
 * total energy  :   -79.4699760 Eh     change       -0.8257943E-03 Eh
 * total energy  :   -79.4707655 Eh     change       -0.7895181E-03 Eh
 * total energy  :   -79.4712202 Eh     change       -0.4547373E-03 Eh
 * total energy  :   -79.4715969 Eh     change       -0.3766818E-03 Eh
 * total energy  :   -79.4718344 Eh     change       -0.2375003E-03 Eh
 * total energy  :   -79.4720147 Eh     change       -0.1803482E-03 Eh
 * total energy  :   -79.4722064 Eh     change       -0.1916828E-03 Eh
 * total energy  :   -79.4725559 Eh     change       -0.3307368E-04 Eh
 * total energy  :   -79.4725775 Eh     change       -0.2159943E-04 Eh
 * total energy  :   -79.4726075 Eh     change       -0.2995934E-04 Eh
 * total energy  :   -79.4726233 Eh     change       -0.1580786E-04 Eh
 * total energy  :   -79.4726486 Eh     change       -0.2534789E-04 Eh
 * total energy  :   -79.4726576 Eh     change       -0.8944494E-05 Eh
 * total energy  :   -79.4726654 Eh     change       -0.7867759E-05 Eh
 * total energy  :   -79.4726735 Eh     change       -0.8081398E-05 Eh
 * total energy  :   -79.4726775 Eh     change       -0.4022653E-05 Eh
   *** GEOMETRY OPTIMIZATION CONVERGED AFTER 22 ITERATIONS ***

 final structure:
================
47
 xtb: 6.5.1 (579679a)
C           -4.74779462714889        0.98015779720812        0.57894985959873
N           -3.40159452421697        0.76746825088485        0.03910425956014
C           -2.85435150292129       -0.47457997000969       -0.15826454174786
C           -3.57749684010868       -1.75552340482002        0.23881452151608
C           -3.37662638125658       -1.98186203270998        1.74421719878268
C           -2.97157092314271       -2.93705367508795       -0.54037800571413
N           -4.99579763120707       -1.66708362708570       -0.05824101991324
N           -1.65962843553376       -0.62944591547989       -0.63542026979945
C           -0.87214582918438        0.43331842083047       -0.96884686093400
C            0.46797826930519        0.04819416703062       -1.50348105994519
O            0.75286251030785       -1.10762440624059       -1.78070881472118
N            1.35175463473983        1.06212675346670       -1.67998780894090
C            2.67494952479752        0.78704698793491       -2.22067735824948
C            3.61883568686305        0.55227030025473       -1.08244856167626
C            3.46596656125263       -0.59970255296719       -0.27299174920550
C            4.32122220983727       -0.84926821575083        0.75344249731405
C            5.30145765455935        0.17454222102068        1.17453339816406
C            4.66702390319492        0.90253977037440        2.40346004356011
F            6.45835738840155       -0.39020957082682        1.63724467208452
C            5.56918928769759        1.22784039726449        0.17193503353236
C            4.69442866515451        1.44118581857270       -0.84754295901948
C           -1.36202980577897        1.69801319226625       -0.81612347744091
O           -0.68142111700293        2.81474947495509       -1.12871935413417
C           -2.70120782270909        1.91253740816349       -0.29306917267214
O           -3.15904688709936        3.04261874077615       -0.15419519002068
H           -5.48704355220340        0.78174148102994       -0.19545301869496
H           -4.82159224621837        2.01827901156040        0.90173268010992
H           -4.92161543991778        0.32003135706388        1.42259836412210
H           -3.83867458439703       -1.18601931333866        2.32538996471311
H           -3.82450293214984       -2.93108624541832        2.03435165024881
H           -2.31189107473291       -2.00869231874911        1.97218867743315
H           -3.49769377690985       -3.85176399819368       -0.27418712508675
H           -1.91603658152864       -3.04395192321102       -0.29476372313761
H           -3.06830914200253       -2.76817389271541       -1.61171607675339
H           -5.51116586941850       -2.38951175024308        0.42105372051966
H           -5.16739521579901       -1.73178989214492       -1.05144079977142
H            1.17969321963294        1.99164902732973       -1.33389956266441
H            2.98891156557915        1.63240350064990       -2.83366769669930
H            2.59887646544026       -0.11715997720462       -2.83659424781675
H            2.69720864443884       -1.31933505906531       -0.53395261416285
H            4.26642565950775       -1.75889421771719        1.33932878839993
H            3.73807243650693        1.38962545076337        2.12289975932113
H            5.38142049178773        1.63896126411716        2.76365075200665
H            4.48221229947502        0.15998412890276        3.17619768063050
H            6.43243933871165        1.86277288956189        0.33095222093083
H            4.85039026027323        2.26616442807967       -1.53305768968697
H           -1.23304493488400        3.59250871891986       -0.91221498392743

          :  Hamiltonian                  GFN1-xTB          :
         :: total energy             -79.472677547233 Eh    ::
         :: gradient norm              0.000465816289 Eh/a0 ::
         :: HOMO-LUMO gap              0.135637667967 eV    ::
         :: SCC energy               -80.352851205679 Eh    ::
         :: -> Gsolv                  -0.102816075143 Eh    ::
         :: repulsion energy           0.910072156368 Eh    ::

    * Orbital Energies and Occupations

         #    Occupation            Energy/Eh            Energy/eV
      -------------------------------------------------------------
         1        2.0000           -0.8939615             -24.3259
       ...           ...                  ...                  ...
        55        2.0000           -0.5187364             -14.1155
        56        2.0000           -0.5175767             -14.0840
        57        2.0000           -0.5132432             -13.9661
        58        2.0000           -0.5076878             -13.8149
        59        2.0000           -0.5045058             -13.7283
        60        2.0000           -0.4964704             -13.5096
        61        2.0000           -0.4834845             -13.1563
        62        2.0000           -0.4777881             -13.0013
        63        2.0000           -0.4656103             -12.6699
        64        2.0000           -0.4622542             -12.5786
        65        2.0000           -0.4496611             -12.2359
        66        1.9998           -0.4335139             -11.7965
        67        1.8648           -0.4271799             -11.6242 (HOMO)
        68        0.1354           -0.4221953             -11.4885 (LUMO)
        69                         -0.3262785              -8.8785
        70                         -0.3245762              -8.8322
        71                         -0.2864752              -7.7954
        72                         -0.2526684              -6.8755
        73                         -0.2437681              -6.6333
        74                         -0.1623981              -4.4191
        75                         -0.1573921              -4.2829
        76                         -0.1509523              -4.1076
        77                         -0.1408839              -3.8336
        78                         -0.1386561              -3.7730
       ...                                ...                  ...
       144                          0.7039125              19.1544
      -------------------------------------------------------------
                  HL-Gap            0.0049846 Eh            0.1356 eV

Wiberg/Mayer (AO) data.
largest (>0.10) Wiberg bond orders for each atom

     #   Z sym  total        # sym  WBO       # sym  WBO       # sym  WBO
 ---------------------------------------------------------------------------
     1   6 C    3.913 --    28 H    0.977    27 H    0.974    26 H    0.974
                             2 N    0.924
     2   7 N    3.515 --     3 C    1.177    24 C    1.135     1 C    0.924
                            25 O    0.134
     3   6 C    3.915 --     8 N    1.559     2 N    1.177     4 C    0.974
     4   6 C    3.950 --     7 N    0.985     5 C    0.980     6 C    0.976
                             3 C    0.974
     5   6 C    3.991 --    31 H    0.985    30 H    0.982     4 C    0.980
                            29 H    0.979
     6   6 C    3.970 --    32 H    0.985    34 H    0.984    33 H    0.980
                             4 C    0.976
     7   7 N    2.932 --     4 C    0.985    36 H    0.928    35 H    0.926
     8   7 N    3.024 --     3 C    1.559     9 C    1.198
     9   6 C    3.958 --    22 C    1.496     8 N    1.198    10 C    0.998
    10   6 C    3.897 --    11 O    1.589    12 N    1.223     9 C    0.998
    11   8 O    1.903 --    10 C    1.589    12 N    0.154
    12   7 N    3.325 --    10 C    1.223    13 C    0.939    37 H    0.878
                            11 O    0.154
    13   6 C    3.948 --    14 C    1.024    38 H    0.972    39 H    0.939
                            12 N    0.939
    14   6 C    3.846 --    21 C    1.290    15 C    1.286    13 C    1.024
    15   6 C    3.982 --    16 C    1.633    14 C    1.286    40 H    0.954
    16   6 C    3.888 --    15 C    1.633    17 C    1.039    41 H    0.962
    17   6 C    3.882 --    20 C    1.039    16 C    1.039    19 F    0.897
                            18 C    0.855
    18   6 C    3.938 --    42 H    0.983    43 H    0.975    44 H    0.975
                            17 C    0.855
    19   9 F    1.005 --    17 C    0.897
    20   6 C    3.878 --    21 C    1.629    17 C    1.039    45 H    0.961
    21   6 C    3.987 --    20 C    1.629    14 C    1.290    46 H    0.960
    22   6 C    3.908 --     9 C    1.496    23 O    1.084    24 C    1.081
    23   8 O    2.071 --    22 C    1.084    47 H    0.794
    24   6 C    3.914 --    25 O    1.551     2 N    1.135    22 C    1.081
    25   8 O    1.895 --    24 C    1.551     2 N    0.134
    26   1 H    1.012 --     1 C    0.974
    27   1 H    1.005 --     1 C    0.974
    28   1 H    1.016 --     1 C    0.977
    29   1 H    1.002 --     5 C    0.979
    30   1 H    0.998 --     5 C    0.982
    31   1 H    1.003 --     5 C    0.985
    32   1 H    1.001 --     6 C    0.985
    33   1 H    1.011 --     6 C    0.980
    34   1 H    1.005 --     6 C    0.984
    35   1 H    0.941 --     7 N    0.926
    36   1 H    0.945 --     7 N    0.928
    37   1 H    0.935 --    12 N    0.878
    38   1 H    0.996 --    13 C    0.972
    39   1 H    0.996 --    13 C    0.939
    40   1 H    1.003 --    15 C    0.954
    41   1 H    0.990 --    16 C    0.962
    42   1 H    0.995 --    18 C    0.983
    43   1 H    0.993 --    18 C    0.975
    44   1 H    0.993 --    18 C    0.975
    45   1 H    0.989 --    20 C    0.961
    46   1 H    0.990 --    21 C    0.960
    47   1 H    0.838 --    23 O    0.794
 ---------------------------------------------------------------------------

           -------------------------------------------------
          | TOTAL ENERGY              -79.472677547233 Eh   |
          | GRADIENT NORM               0.000465816289 Eh/α |
          | HOMO-LUMO GAP               0.135637667967 eV   |
           -------------------------------------------------

 * finished run on 2023/06/20 at 15:31:45.902
