   * xtb version 6.5.1 (579679a) compiled by 'ehlert@majestix' on 2022-07-11
          program call               : /lustre/hpc/kemi/ree/PhD/git/ReactivityQM/dep/xtb-6.5.1/bin/xtb --gfn 1 /lustre/hpc/kemi/ree/PhD/git/ReactivityQM/calculations/R02oxygendeprot/reac01prodN02/conf04/R02oxygendeprot_reac01prodN02_conf04_gfn1.xyz --opt --vfukui --chrg 0 --uhf 0 --alpb DMSO

   ID    Z sym.   atoms
    1    6 C      1, 3, 5, 7-10, 12, 14, 15, 18, 19, 22, 24
    2    8 O      2, 4, 13, 20, 23, 25
    3    7 N      6, 11, 16, 17, 21
    4    1 H      26-42

      * Solvation model:               ALPB
        Solvent                        DMSO
        Solvent mass                       7.8130E+01 g/mol
          :  Hamiltonian                  GFN1-xTB          :
 * total energy  :   -82.9420024 Eh     change       -0.5023537E-10 Eh
 * total energy  :   -82.9603000 Eh     change       -0.1829762E-01 Eh
 * total energy  :   -82.9681415 Eh     change       -0.7841466E-02 Eh
 * total energy  :   -82.9693651 Eh     change       -0.1223568E-02 Eh
 * total energy  :   -82.9701760 Eh     change       -0.8109277E-03 Eh
 * total energy  :   -82.9704839 Eh     change       -0.3079581E-03 Eh
 * total energy  :   -82.9707429 Eh     change       -0.2589684E-03 Eh
 * total energy  :   -82.9709156 Eh     change       -0.1727203E-03 Eh
 * total energy  :   -82.9710293 Eh     change       -0.1137066E-03 Eh
 * total energy  :   -82.9711237 Eh     change       -0.9439936E-04 Eh
 * total energy  :   -82.9715203 Eh     change       -0.6714762E-05 Eh
 * total energy  :   -82.9715297 Eh     change       -0.9335497E-05 Eh
 * total energy  :   -82.9715429 Eh     change       -0.1324563E-04 Eh
 * total energy  :   -82.9715576 Eh     change       -0.1464191E-04 Eh
 * total energy  :   -82.9715702 Eh     change       -0.1265573E-04 Eh
 * total energy  :   -82.9715792 Eh     change       -0.8987240E-05 Eh
 * total energy  :   -82.9715869 Eh     change       -0.7722916E-05 Eh
 * total energy  :   -82.9715928 Eh     change       -0.5884699E-05 Eh
 * total energy  :   -82.9715974 Eh     change       -0.4543462E-05 Eh
   *** GEOMETRY OPTIMIZATION CONVERGED AFTER 32 ITERATIONS ***

 final structure:
================
42
 xtb: 6.5.1 (579679a)
C           -6.58139209555845       -1.40631578010725       -1.50066425096203
O           -5.40124963670399       -0.63398950991742       -1.68403060109126
C           -4.44393713487360       -0.78181082553314       -0.74042492366266
O           -4.60438671901720       -1.54144161770404        0.20587786511314
C           -3.24913444429550        0.02794652171321       -0.95527353532885
N           -2.31009634995649       -0.13661790143617        0.04174761045988
C           -1.20380186940827        0.50458327849382        0.01253066988688
C           -0.20609305873232        0.35431299647049        1.14037201241477
C           -0.57926422151261       -0.85061562380046        2.00549132482813
C           -0.15623669358151        1.65230451540939        1.95623511672866
N            1.12181555676854        0.11746489489780        0.51796629998456
C            2.26007479343762       -0.02743454402345        1.14725876700653
O            2.28310615953876        0.01932751990889        2.44837242567059
C            3.48926663239554       -0.12677381009577        3.21235069291624
C            3.44209056677696       -0.23936873011378        0.34713263919808
N            4.68363596201503       -0.40829188492272        0.71634373983096
N            5.40773351824658       -0.57288164736271       -0.40669827425830
C            4.57836554496687       -0.49862658982338       -1.41215993470907
C            4.88787419149256       -0.62570025873730       -2.84866589717782
O            3.32275516214035       -0.28947635546675       -0.99691687530266
N           -0.89474138370844        1.39592953985092       -0.99726927753997
C           -1.73306749337318        1.65397390473193       -2.05952042095302
O           -1.39100281910863        2.45507777895291       -2.92016540720329
C           -3.04859646486482        0.90262766298114       -2.05781444076332
O           -3.84032787600833        1.09844499379269       -2.99298691386809
H           -7.23694867148976       -1.19189499044075       -2.34398497284343
H           -6.34364912598770       -2.47415544211200       -1.47667990552213
H           -7.07888433964761       -1.13427664902062       -0.56455983594279
H           -0.51532423798251       -1.76360366505735        1.41571017731216
H            0.07968622553068       -0.93021033151480        2.86549976552509
H           -1.60581547568063       -0.72582119016070        2.34897334375144
H            0.49440185887959        1.54718811396420        2.82004832783118
H            0.20759188499772        2.46866047071936        1.33559718049079
H           -1.16243471925266        1.88740006777239        2.30106814319087
H            1.16081348527324        0.05931786542123       -0.49221638047655
H            3.93703858360417       -1.10308203873478        3.02054297101952
H            4.19639134064419        0.66075461084918        2.94855571933783
H            3.18597661769110       -0.03944470843003        4.25389806075493
H            5.95812064290851       -0.76369745885706       -2.98245612451207
H            4.35161969370570       -1.47852600468879       -3.26654290269753
H            4.56024817609746        0.26805404888314       -3.38020289208214
H           -0.02222276636479        1.89265677323967       -0.98234008635838

          :  Hamiltonian                  GFN1-xTB          :
         :: total energy             -82.971597363202 Eh    ::
         :: gradient norm              0.000494982230 Eh/a0 ::
         :: HOMO-LUMO gap              0.212741311074 eV    ::
         :: SCC energy               -83.747907434886 Eh    ::
         :: -> Gsolv                  -0.104147181446 Eh    ::
         :: repulsion energy           0.801666002925 Eh    ::

    * Orbital Energies and Occupations

         #    Occupation            Energy/Eh            Energy/eV
      -------------------------------------------------------------
         1        2.0000           -0.8979288             -24.4339
       ...           ...                  ...                  ...
        55        2.0000           -0.5076593             -13.8141
        56        2.0000           -0.5027837             -13.6814
        57        2.0000           -0.4982461             -13.5580
        58        2.0000           -0.4919118             -13.3856
        59        2.0000           -0.4836014             -13.1595
        60        2.0000           -0.4797885             -13.0557
        61        2.0000           -0.4699026             -12.7867
        62        2.0000           -0.4670655             -12.7095
        63        2.0000           -0.4521062             -12.3024
        64        2.0000           -0.4437972             -12.0763
        65        2.0000           -0.4299312             -11.6990
        66        2.0000           -0.3889691             -10.5844
        67        1.9679           -0.3768132             -10.2536 (HOMO)
        68        0.0321           -0.3689951             -10.0409 (LUMO)
        69                         -0.2843554              -7.7377
        70                         -0.2790344              -7.5929
        71                         -0.2544645              -6.9243
        72                         -0.2493765              -6.7859
        73                         -0.2056673              -5.5965
        74                         -0.1585847              -4.3153
        75                         -0.1522176              -4.1421
        76                         -0.1362122              -3.7065
        77                         -0.1339767              -3.6457
        78                         -0.1238858              -3.3711
       ...                                ...                  ...
       134                          0.7545327              20.5319
      -------------------------------------------------------------
                  HL-Gap            0.0078181 Eh            0.2127 eV

Wiberg/Mayer (AO) data.
largest (>0.10) Wiberg bond orders for each atom

     #   Z sym  total        # sym  WBO       # sym  WBO       # sym  WBO
 ---------------------------------------------------------------------------
     1   6 C    3.895 --    26 H    0.987    28 H    0.980    27 H    0.980
                             2 O    0.921
     2   8 O    2.168 --     3 C    1.060     1 C    0.921     4 O    0.113
     3   6 C    3.850 --     4 O    1.584     5 C    1.099     2 O    1.060
     4   8 O    1.855 --     3 C    1.584     2 O    0.113
     5   6 C    3.895 --    24 C    1.260     6 N    1.166     3 C    1.099
                            25 O    0.124
     6   7 N    3.036 --     7 C    1.628     5 C    1.166
     7   6 C    3.924 --     6 N    1.628    21 N    1.089     8 C    0.978
     8   6 C    3.893 --     9 C    0.989    10 C    0.979     7 C    0.978
                            11 N    0.875
     9   6 C    3.983 --     8 C    0.989    30 H    0.984    29 H    0.984
                            31 H    0.979
    10   6 C    3.982 --    33 H    0.983    34 H    0.982    32 H    0.981
                             8 C    0.979
    11   7 N    3.471 --    12 C    1.454     8 C    0.875    35 H    0.874
                            13 O    0.108
    12   6 C    3.879 --    11 N    1.454    13 O    1.188    15 C    1.090
    13   8 O    2.270 --    12 C    1.188    14 C    0.864    11 N    0.108
    14   6 C    3.831 --    38 H    0.980    37 H    0.974    36 H    0.974
                            13 O    0.864
    15   6 C    3.881 --    16 N    1.543    12 C    1.090    20 O    1.046
    16   7 N    3.014 --    15 C    1.543    17 N    1.248
    17   7 N    2.986 --    18 C    1.554    16 N    1.248
    18   6 C    3.847 --    17 N    1.554    20 O    1.086    19 C    1.039
    19   6 C    3.979 --    18 C    1.039    39 H    0.980    41 H    0.956
                            40 H    0.954
    20   8 O    2.328 --    18 C    1.086    15 C    1.046
    21   7 N    3.412 --    22 C    1.142     7 C    1.089    42 H    0.896
                            23 O    0.133
    22   6 C    3.871 --    23 O    1.599    21 N    1.142    24 C    0.962
    23   8 O    1.875 --    22 C    1.599    21 N    0.133
    24   6 C    3.937 --    25 O    1.537     5 C    1.260    22 C    0.962
    25   8 O    1.833 --    24 C    1.537     5 C    0.124
    26   1 H    1.015 --     1 C    0.987
    27   1 H    1.013 --     1 C    0.980
    28   1 H    1.013 --     1 C    0.980
    29   1 H    1.004 --     9 C    0.984
    30   1 H    1.004 --     9 C    0.984
    31   1 H    1.012 --     9 C    0.979
    32   1 H    1.003 --    10 C    0.981
    33   1 H    0.999 --    10 C    0.983
    34   1 H    1.000 --    10 C    0.982
    35   1 H    0.925 --    11 N    0.874
    36   1 H    1.009 --    14 C    0.974
    37   1 H    1.008 --    14 C    0.974
    38   1 H    1.003 --    14 C    0.980
    39   1 H    0.995 --    19 C    0.980
    40   1 H    0.992 --    19 C    0.954
    41   1 H    0.992 --    19 C    0.956
    42   1 H    0.940 --    21 N    0.896
 ---------------------------------------------------------------------------

           -------------------------------------------------
          | TOTAL ENERGY              -82.971597363202 Eh   |
          | GRADIENT NORM               0.000494982230 Eh/α |
          | HOMO-LUMO GAP               0.212741311074 eV   |
           -------------------------------------------------

 * finished run on 2023/06/21 at 17:18:06.005
