                         Program Version 5.0.1 -  RELEASE  -
|  1> # ORCA input file
|  2> ! SP r2SCAN-3c CPCM
|  3>
|  4> %maxcore 1875.0
|  5> %pal nprocs 4 end
|  6> %cpcm smd true SMDsolvent "DMSO" end
|  7>
|  8> *xyz 0 1
|  9> C      -3.938634    3.055035    2.088305
| 10> O      -3.202885    2.220748    1.188181
| 11> C      -3.688866    1.002516    0.980317
| 12> O      -4.710304    0.596845    1.528590
| 13> C      -2.901620    0.178401    0.064318
| 14> C      -3.359222   -1.073355   -0.246708
| 15> O      -4.447663   -1.607631    0.268246
| 16> C      -1.398349   -2.143002   -0.780441
| 17> C      -1.132096   -3.575334   -0.489985
| 18> O      -2.723937   -1.878153   -1.147828
| 19> N      -0.517565   -1.243828   -0.733281
| 20> C      -0.781903    0.112411   -0.951433
| 21> C       0.344279    0.839339   -1.664842
| 22> C       0.147443    2.353739   -1.571148
| 23> C       0.371128    0.365596   -3.126881
| 24> N       1.591204    0.442988   -1.000068
| 25> C       2.803975    0.885756   -1.374699
| 26> O       3.022791    1.694180   -2.264372
| 27> C       3.908393    0.304354   -0.566195
| 28> N       5.174438    0.566233   -0.666018
| 29> N       5.807274   -0.179150    0.283951
| 30> C       4.888686   -0.849801    0.905295
| 31> C       5.066124   -1.801406    2.023512
| 32> O       3.663714   -0.590651    0.416305
| 33> N      -1.792378    0.772195   -0.543808
| 34> H      -3.415993    4.008784    2.126045
| 35> H      -4.958575    3.193957    1.722741
| 36> H      -3.969346    2.598847    3.080383
| 37> H      -4.851184   -0.946172    0.906348
| 38> H      -0.098773   -3.712497   -0.185244
| 39> H      -1.803287   -3.917449    0.297343
| 40> H      -1.338116   -4.168726   -1.381142
| 41> H      -0.821712    2.614948   -1.993419
| 42> H       0.928446    2.874752   -2.121273
| 43> H       0.170011    2.665777   -0.527962
| 44> H      -0.588254    0.579738   -3.595180
| 45> H       1.158432    0.879771   -3.675489
| 46> H       0.552097   -0.707616   -3.160962
| 47> H       1.526779   -0.288168   -0.308125
| 48> H       6.114365   -1.835836    2.310574
| 49> H       4.739056   -2.796367    1.722825
| 50> H       4.462027   -1.491770    2.875660
| 51> **                         ****END OF INPUT****

CARTESIAN COORDINATES (ANGSTROEM)
---------------------------------
  C     -3.938634    3.055035    2.088305
  O     -3.202885    2.220748    1.188181
  C     -3.688866    1.002516    0.980317
  O     -4.710304    0.596845    1.528590
  C     -2.901620    0.178401    0.064318
  C     -3.359222   -1.073355   -0.246708
  O     -4.447663   -1.607631    0.268246
  C     -1.398349   -2.143002   -0.780441
  C     -1.132096   -3.575334   -0.489985
  O     -2.723937   -1.878153   -1.147828
  N     -0.517565   -1.243828   -0.733281
  C     -0.781903    0.112411   -0.951433
  C      0.344279    0.839339   -1.664842
  C      0.147443    2.353739   -1.571148
  C      0.371128    0.365596   -3.126881
  N      1.591204    0.442988   -1.000068
  C      2.803975    0.885756   -1.374699
  O      3.022791    1.694180   -2.264372
  C      3.908393    0.304354   -0.566195
  N      5.174438    0.566233   -0.666018
  N      5.807274   -0.179150    0.283951
  C      4.888686   -0.849801    0.905295
  C      5.066124   -1.801406    2.023512
  O      3.663714   -0.590651    0.416305
  N     -1.792378    0.772195   -0.543808
  H     -3.415993    4.008784    2.126045
  H     -4.958575    3.193957    1.722741
  H     -3.969346    2.598847    3.080383
  H     -4.851184   -0.946172    0.906348
  H     -0.098773   -3.712497   -0.185244
  H     -1.803287   -3.917449    0.297343
  H     -1.338116   -4.168726   -1.381142
  H     -0.821712    2.614948   -1.993419
  H      0.928446    2.874752   -2.121273
  H      0.170011    2.665777   -0.527962
  H     -0.588254    0.579738   -3.595180
  H      1.158432    0.879771   -3.675489
  H      0.552097   -0.707616   -3.160962
  H      1.526779   -0.288168   -0.308125
  H      6.114365   -1.835836    2.310574
  H      4.739056   -2.796367    1.722825
  H      4.462027   -1.491770    2.875660

 Total Charge           Charge          ....    0
 Multiplicity           Mult            ....    1
 Number of Electrons    NEL             ....  184
 Basis Dimension        Dim             ....  615

ORBITAL ENERGIES
----------------

  NO   OCC          E(Eh)            E(eV)
   0   2.0000     -19.064746      -518.7781
   1   2.0000     -19.026165      -517.7283
   2   2.0000     -19.009567      -517.2766
   3   2.0000     -19.008866      -517.2575
   4   2.0000     -18.955369      -515.8018
   5   2.0000     -18.929949      -515.1101
   6   2.0000     -14.203293      -386.4913
   7   2.0000     -14.198568      -386.3627
   8   2.0000     -14.196328      -386.3017
   9   2.0000     -14.179773      -385.8512
  10   2.0000     -14.170427      -385.5969
  11   2.0000     -10.188427      -277.2412
  12   2.0000     -10.172718      -276.8137
  13   2.0000     -10.166351      -276.6405
  14   2.0000     -10.154018      -276.3049
  15   2.0000     -10.146307      -276.0951
  16   2.0000     -10.141479      -275.9637
  17   2.0000     -10.116762      -275.2911
  18   2.0000     -10.096157      -274.7304
  19   2.0000     -10.082860      -274.3686
  20   2.0000     -10.079374      -274.2737
  21   2.0000     -10.044905      -273.3358
  22   2.0000     -10.040779      -273.2235
  23   2.0000     -10.020140      -272.6619
  24   2.0000     -10.013932      -272.4929
  25   2.0000      -1.153758       -31.3954
  26   2.0000      -1.110025       -30.2053
  27   2.0000      -1.086019       -29.5521
  28   2.0000      -1.046497       -28.4766
  29   2.0000      -1.019304       -27.7367
  30   2.0000      -0.995066       -27.0771
  31   2.0000      -0.974385       -26.5144
  32   2.0000      -0.950881       -25.8748
  33   2.0000      -0.907227       -24.6869
  34   2.0000      -0.887636       -24.1538
  35   2.0000      -0.830167       -22.5900
  36   2.0000      -0.779136       -21.2014
  37   2.0000      -0.742240       -20.1974
  38   2.0000      -0.737849       -20.0779
  39   2.0000      -0.712526       -19.3888
  40   2.0000      -0.696362       -18.9490
  41   2.0000      -0.666071       -18.1247
  42   2.0000      -0.658050       -17.9064
  43   2.0000      -0.655348       -17.8329
  44   2.0000      -0.627155       -17.0657
  45   2.0000      -0.599876       -16.3234
  46   2.0000      -0.580688       -15.8013
  47   2.0000      -0.572353       -15.5745
  48   2.0000      -0.564893       -15.3715
  49   2.0000      -0.541024       -14.7220
  50   2.0000      -0.536159       -14.5896
  51   2.0000      -0.522382       -14.2147
  52   2.0000      -0.509315       -13.8592
  53   2.0000      -0.493431       -13.4270
  54   2.0000      -0.481751       -13.1091
  55   2.0000      -0.470330       -12.7983
  56   2.0000      -0.458095       -12.4654
  57   2.0000      -0.456159       -12.4127
  58   2.0000      -0.447244       -12.1701
  59   2.0000      -0.439038       -11.9468
  60   2.0000      -0.420416       -11.4401
  61   2.0000      -0.419162       -11.4060
  62   2.0000      -0.408857       -11.1256
  63   2.0000      -0.407073       -11.0770
  64   2.0000      -0.402676       -10.9574
  65   2.0000      -0.396563       -10.7910
  66   2.0000      -0.393851       -10.7172
  67   2.0000      -0.387458       -10.5433
  68   2.0000      -0.383946       -10.4477
  69   2.0000      -0.380791       -10.3619
  70   2.0000      -0.379751       -10.3336
  71   2.0000      -0.377781       -10.2800
  72   2.0000      -0.366619        -9.9762
  73   2.0000      -0.352705        -9.5976
  74   2.0000      -0.351267        -9.5585
  75   2.0000      -0.345773        -9.4090
  76   2.0000      -0.343287        -9.3413
  77   2.0000      -0.334464        -9.1012
  78   2.0000      -0.328926        -8.9505
  79   2.0000      -0.322399        -8.7729
  80   2.0000      -0.319633        -8.6976
  81   2.0000      -0.313064        -8.5189
  82   2.0000      -0.299214        -8.1420
  83   2.0000      -0.297101        -8.0845
  84   2.0000      -0.284252        -7.7349
  85   2.0000      -0.272557        -7.4167
  86   2.0000      -0.266617        -7.2550
  87   2.0000      -0.261020        -7.1027
  88   2.0000      -0.243664        -6.6304
  89   2.0000      -0.240549        -6.5457
  90   2.0000      -0.238196        -6.4817
  91   2.0000      -0.207708        -5.6520
  92   0.0000      -0.086751        -2.3606
  93   0.0000      -0.081490        -2.2175
  94   0.0000      -0.063537        -1.7289
  95   0.0000      -0.019183        -0.5220
  96   0.0000      -0.006345        -0.1727

MULLIKEN ATOMIC CHARGES
-----------------------
   0 C :   -0.316398
   1 O :   -0.189955
   2 C :    0.284733
   3 O :   -0.513210
   4 C :   -0.068397
   5 C :    0.113837
   6 O :   -0.338199
   7 C :    0.383217
   8 C :   -0.575566
   9 O :   -0.153013
  10 N :   -0.272918
  11 C :    0.258826
  12 C :    0.129952
  13 C :   -0.658605
  14 C :   -0.642254
  15 N :   -0.048513
  16 C :   -0.108112
  17 O :   -0.444472
  18 C :    0.422541
  19 N :   -0.184358
  20 N :   -0.279188
  21 C :    0.394006
  22 C :   -0.636577
  23 O :   -0.056515
  24 N :   -0.106448
  25 H :    0.179121
  26 H :    0.178676
  27 H :    0.178804
  28 H :    0.402692
  29 H :    0.197293
  30 H :    0.198084
  31 H :    0.204612
  32 H :    0.187420
  33 H :    0.193176
  34 H :    0.190226
  35 H :    0.190409
  36 H :    0.198192
  37 H :    0.189184
  38 H :    0.311533
  39 H :    0.204827
  40 H :    0.201493
  41 H :    0.199844
Sum of atomic charges:    0.0000000

LOEWDIN ATOMIC CHARGES
----------------------
   0 C :   -0.032770
   1 O :   -0.561331
   2 C :    0.411942
   3 O :   -0.491503
   4 C :    0.150597
   5 C :    0.450095
   6 O :   -0.375582
   7 C :    0.395890
   8 C :   -0.307977
   9 O :   -0.467858
  10 N :   -0.502372
  11 C :    0.339923
  12 C :    0.110533
  13 C :   -0.347576
  14 C :   -0.344201
  15 N :   -0.568403
  16 C :    0.378653
  17 O :   -0.465799
  18 C :    0.415598
  19 N :   -0.338386
  20 N :   -0.362911
  21 C :    0.377377
  22 C :   -0.317816
  23 O :   -0.391325
  24 N :   -0.541439
  25 H :    0.187560
  26 H :    0.183671
  27 H :    0.183458
  28 H :    0.327707
  29 H :    0.186036
  30 H :    0.192247
  31 H :    0.194321
  32 H :    0.176088
  33 H :    0.177142
  34 H :    0.173472
  35 H :    0.172696
  36 H :    0.180161
  37 H :    0.174484
  38 H :    0.303752
  39 H :    0.191053
  40 H :    0.191723
  41 H :    0.191070

  Mayer bond orders larger than 0.100000
B(  0-C ,  1-O ) :   0.8240 B(  0-C , 25-H ) :   0.9607 B(  0-C , 26-H ) :   0.9555
B(  0-C , 27-H ) :   0.9555 B(  1-O ,  2-C ) :   1.1995 B(  2-C ,  3-O ) :   1.6603
B(  2-C ,  4-C ) :   1.1260 B(  3-O , 28-H ) :   0.1351 B(  4-C ,  5-C ) :   1.4810
B(  4-C , 24-N ) :   0.8682 B(  5-C ,  6-O ) :   1.3066 B(  5-C ,  9-O ) :   1.1423
B(  6-O , 28-H ) :   0.7035 B(  7-C ,  8-C ) :   0.9396 B(  7-C ,  9-O ) :   0.8102
B(  7-C , 10-N ) :   1.7812 B(  8-C , 29-H ) :   0.9840 B(  8-C , 30-H ) :   0.9289
B(  8-C , 31-H ) :   0.9381 B( 10-N , 11-C ) :   0.8824 B( 11-C , 12-C ) :   0.9619
B( 11-C , 24-N ) :   1.8042 B( 12-C , 13-C ) :   0.8554 B( 12-C , 14-C ) :   0.8211
B( 12-C , 15-N ) :   0.8879 B( 13-C , 32-H ) :   0.9637 B( 13-C , 33-H ) :   0.9647
B( 13-C , 34-H ) :   0.9774 B( 14-C , 35-H ) :   0.9621 B( 14-C , 36-H ) :   0.9631
B( 14-C , 37-H ) :   0.9695 B( 15-N , 16-C ) :   1.1859 B( 15-N , 38-H ) :   0.8667
B( 16-C , 17-O ) :   1.9057 B( 16-C , 18-C ) :   0.8364 B( 18-C , 19-N ) :   1.7057
B( 18-C , 21-C ) :   0.1028 B( 18-C , 23-O ) :   1.0768 B( 19-N , 20-N ) :   1.2760
B( 20-N , 21-C ) :   1.6361 B( 21-C , 22-C ) :   0.8307 B( 21-C , 23-O ) :   1.0683
B( 22-C , 39-H ) :   0.9899 B( 22-C , 40-H ) :   0.9392 B( 22-C , 41-H ) :   0.9449

Dispersion correction           -0.018296329
FINAL SINGLE POINT ENERGY     -1268.618919590989

DIPOLE MOMENT
-------------
                                X             Y             Z
Electronic contribution:      0.34481      -1.87843      -0.24023
Nuclear contribution   :     -2.63519      -0.74945       2.58261
                        -----------------------------------------
Total Dipole Moment    :     -2.29038      -2.62788       2.34238
                        -----------------------------------------
Magnitude (a.u.)       :      4.19980
Magnitude (Debye)      :     10.67503

Rotational constants in cm-1:     0.011612     0.003717     0.003498
Rotational constants in MHz :   348.113219   111.433114   104.857041

                             ****ORCA TERMINATED NORMALLY****
TOTAL RUN TIME: 0 days 0 hours 2 minutes 4 seconds 748 msec
