   * xtb version 6.5.1 (579679a) compiled by 'ehlert@majestix' on 2022-07-11
          program call               : /lustre/hpc/kemi/ree/PhD/git/ReactivityQM/dep/xtb-6.5.1/bin/xtb --gfn 1 /lustre/hpc/kemi/ree/PhD/git/ReactivityQM/calculations/R02deprot/reac01prodN15/conf09/R02deprot_reac01prodN15_conf09_gfn1.xyz --opt --vfukui --chrg 0 --uhf 0 --alpb DMSO

   ID    Z sym.   atoms
    1    6 C      1, 3, 5, 6, 8, 9, 12-15, 17, 19, 22, 23
    2    8 O      2, 4, 7, 10, 18, 24
    3    7 N      11, 16, 20, 21, 25
    4    1 H      26-42

      * Solvation model:               ALPB
        Solvent                        DMSO
        Solvent mass                       7.8130E+01 g/mol
          :  Hamiltonian                  GFN1-xTB          :
 * total energy  :   -82.8638941 Eh     change       -0.1421085E-12 Eh
 * total energy  :   -82.8808305 Eh     change       -0.1693639E-01 Eh
 * total energy  :   -82.8954352 Eh     change       -0.1460473E-01 Eh
 * total energy  :   -82.9055828 Eh     change       -0.1014761E-01 Eh
 * total energy  :   -82.9286030 Eh     change       -0.2302013E-01 Eh
 * total energy  :   -82.9224182 Eh     change        0.6184811E-02 Eh
 * total energy  :   -82.9493457 Eh     change       -0.2692756E-01 Eh
 * total energy  :   -82.9384773 Eh     change        0.1086844E-01 Eh
 * total energy  :   -82.9550602 Eh     change       -0.1658287E-01 Eh
 * total energy  :   -82.9567194 Eh     change       -0.1659280E-02 Eh
 * total energy  :   -82.9866523 Eh     change       -0.1739563E-04 Eh
 * total energy  :   -82.9866720 Eh     change       -0.1972757E-04 Eh
 * total energy  :   -82.9866871 Eh     change       -0.1507186E-04 Eh
 * total energy  :   -82.9867053 Eh     change       -0.1815110E-04 Eh
 * total energy  :   -82.9867156 Eh     change       -0.1033961E-04 Eh
 * total energy  :   -82.9867228 Eh     change       -0.7171816E-05 Eh
 * total energy  :   -82.9867283 Eh     change       -0.5500260E-05 Eh
 * total energy  :   -82.9867334 Eh     change       -0.5102570E-05 Eh
 * total energy  :   -82.9867362 Eh     change       -0.2850849E-05 Eh
   *** GEOMETRY OPTIMIZATION CONVERGED AFTER 68 ITERATIONS ***

 final structure:
================
42
 xtb: 6.5.1 (579679a)
C           -3.93863427359020        3.05503539422639        2.08830537589716
O           -3.20288488543063        2.22074782297132        1.18818136513156
C           -3.68886579765443        1.00251584513972        0.98031667291608
O           -4.71030437302837        0.59684517933098        1.52858983957654
C           -2.90162042682521        0.17840136114269        0.06431760572320
C           -3.35922247810903       -1.07335528614384       -0.24670765793591
O           -4.44766301015184       -1.60763096631421        0.26824572363837
C           -1.39834931235427       -2.14300217726419       -0.78044124168670
C           -1.13209595070815       -3.57533406835125       -0.48998450941943
O           -2.72393713215790       -1.87815252612279       -1.14782793231680
N           -0.51756476399353       -1.24382783643413       -0.73328132602810
C           -0.78190251264945        0.11241108698982       -0.95143264253179
C            0.34427927858540        0.83933854793462       -1.66484155650995
C            0.14744340197612        2.35373897926302       -1.57114794651093
C            0.37112849343561        0.36559598389199       -3.12688134260097
N            1.59120354891000        0.44298814827625       -1.00006807671177
C            2.80397485042962        0.88575616488030       -1.37469938381944
O            3.02279055073094        1.69417959178865       -2.26437219275719
C            3.90839301804442        0.30435440253534       -0.56619454277094
N            5.17443786131255        0.56623316189527       -0.66601846733068
N            5.80727374741746       -0.17915039528243        0.28395125772829
C            4.88868632915673       -0.84980079624605        0.90529490514635
C            5.06612384571542       -1.80140576340598        2.02351212945500
O            3.66371405029073       -0.59065140484737        0.41630463633900
N           -1.79237770676892        0.77219516526398       -0.54380845186568
H           -3.41599304761324        4.00878421313930        2.12604485926775
H           -4.95857529131675        3.19395669577819        1.72274086026685
H           -3.96934571547106        2.59884658766581        3.08038321903634
H           -4.85118373390351       -0.94617235178089        0.90634767612662
H           -0.09877304961960       -3.71249736749267       -0.18524428109346
H           -1.80328744982546       -3.91744894728477        0.29734262220342
H           -1.33811558824530       -4.16872647718459       -1.38114204969447
H           -0.82171178919716        2.61494830374170       -1.99341856334707
H            0.92844573107412        2.87475249765310       -2.12127287511109
H            0.17001072027756        2.66577734245689       -0.52796218856451
H           -0.58825366594316        0.57973785767866       -3.59518031589540
H            1.15843194419430        0.87977147505782       -3.67548898841741
H            0.55209727102734       -0.70761587783016       -3.16096211929584
H            1.52677936458178       -0.28816827039094       -0.30812490007827
H            6.11436453541382       -1.83583597230426        2.31057389855080
H            4.73905609898136       -2.79636652622071        1.72282470578297
H            4.46202731300273       -1.49176979780134        2.87566019950193

          :  Hamiltonian                  GFN1-xTB          :
         :: total energy             -82.986736233595 Eh    ::
         :: gradient norm              0.000354118813 Eh/a0 ::
         :: HOMO-LUMO gap              2.737963002802 eV    ::
         :: SCC energy               -83.765484609918 Eh    ::
         :: -> Gsolv                  -0.050052700718 Eh    ::
         :: repulsion energy           0.804002019000 Eh    ::

    * Orbital Energies and Occupations

         #    Occupation            Energy/Eh            Energy/eV
      -------------------------------------------------------------
         1        2.0000           -0.8644028             -23.5216
       ...           ...                  ...                  ...
        55        2.0000           -0.5018328             -13.6556
        56        2.0000           -0.4974263             -13.5357
        57        2.0000           -0.4967758             -13.5180
        58        2.0000           -0.4860635             -13.2265
        59        2.0000           -0.4810147             -13.0891
        60        2.0000           -0.4793690             -13.0443
        61        2.0000           -0.4737296             -12.8908
        62        2.0000           -0.4608323             -12.5399
        63        2.0000           -0.4580076             -12.4630
        64        2.0000           -0.4497137             -12.2373
        65        2.0000           -0.4440861             -12.0842
        66        2.0000           -0.4362478             -11.8709
        67        2.0000           -0.4153466             -11.3022 (HOMO)
        68                         -0.3147283              -8.5642 (LUMO)
        69                         -0.3079760              -8.3805
        70                         -0.2949611              -8.0263
        71                         -0.2560948              -6.9687
        72                         -0.2467815              -6.7153
        73                         -0.1960815              -5.3356
        74                         -0.1835070              -4.9935
        75                         -0.1426456              -3.8816
        76                         -0.1411440              -3.8407
        77                         -0.1361767              -3.7056
        78                         -0.1206812              -3.2839
       ...                                ...                  ...
       134                          0.7263971              19.7663
      -------------------------------------------------------------
                  HL-Gap            0.1006183 Eh            2.7380 eV

Wiberg/Mayer (AO) data.
largest (>0.10) Wiberg bond orders for each atom

     #   Z sym  total        # sym  WBO       # sym  WBO       # sym  WBO
 ---------------------------------------------------------------------------
     1   6 C    3.869 --    26 H    0.986    27 H    0.980    28 H    0.979
                             2 O    0.895
     2   8 O    2.209 --     3 C    1.125     1 C    0.895     4 O    0.117
     3   6 C    3.854 --     4 O    1.551     2 O    1.125     5 C    1.074
     4   8 O    1.939 --     3 C    1.551     2 O    0.117    29 H    0.101
     5   6 C    3.931 --     6 C    1.490    25 N    1.080     3 C    1.074
     6   6 C    3.852 --     5 C    1.490     7 O    1.160    10 O    0.984
     7   8 O    2.107 --     6 C    1.160    29 H    0.728
     8   6 C    3.876 --    11 N    1.777     9 C    1.028    10 O    0.909
     9   6 C    3.987 --     8 C    1.028    30 H    0.981    31 H    0.959
                            32 H    0.957
    10   8 O    2.111 --     6 C    0.984     8 C    0.909
    11   7 N    3.113 --     8 C    1.777    12 C    1.059
    12   6 C    3.941 --    25 N    1.723    11 N    1.059    13 C    0.974
    13   6 C    3.934 --    14 C    0.995    15 C    0.977    12 C    0.974
                            16 N    0.919
    14   6 C    3.990 --    13 C    0.995    35 H    0.985    33 H    0.984
                            34 H    0.982
    15   6 C    3.989 --    36 H    0.986    38 H    0.985    37 H    0.981
                            13 C    0.977
    16   7 N    3.361 --    17 C    1.274    13 C    0.919    39 H    0.889
                            18 O    0.180
    17   6 C    3.919 --    18 O    1.575    16 N    1.274    19 C    0.989
    18   8 O    1.894 --    17 C    1.575    16 N    0.180
    19   6 C    3.870 --    20 N    1.625    24 O    1.047    17 C    0.989
    20   7 N    2.998 --    19 C    1.625    21 N    1.196
    21   7 N    2.982 --    22 C    1.614    20 N    1.196
    22   6 C    3.869 --    21 N    1.614    24 O    1.071    23 C    1.031
    23   6 C    3.987 --    22 C    1.031    40 H    0.982    42 H    0.965
                            41 H    0.962
    24   8 O    2.314 --    22 C    1.071    19 C    1.047
    25   7 N    3.059 --    12 C    1.723     5 C    1.080
    26   1 H    1.011 --     1 C    0.986
    27   1 H    1.007 --     1 C    0.980
    28   1 H    1.007 --     1 C    0.979
    29   1 H    0.842 --     7 O    0.728     4 O    0.101
    30   1 H    1.000 --     9 C    0.981
    31   1 H    0.997 --     9 C    0.959
    32   1 H    0.997 --     9 C    0.957
    33   1 H    1.011 --    14 C    0.984
    34   1 H    1.011 --    14 C    0.982
    35   1 H    1.007 --    14 C    0.985
    36   1 H    1.002 --    15 C    0.986
    37   1 H    1.008 --    15 C    0.981
    38   1 H    1.004 --    15 C    0.985
    39   1 H    0.954 --    16 N    0.889
    40   1 H    0.999 --    23 C    0.982
    41   1 H    0.997 --    23 C    0.962
    42   1 H    0.997 --    23 C    0.965
 ---------------------------------------------------------------------------

           -------------------------------------------------
          | TOTAL ENERGY              -82.986736233595 Eh   |
          | GRADIENT NORM               0.000354118813 Eh/α |
          | HOMO-LUMO GAP               2.737963002802 eV   |
           -------------------------------------------------

 * finished run on 2023/06/20 at 18:24:16.216
