   * xtb version 6.5.1 (579679a) compiled by 'ehlert@majestix' on 2022-07-11
          program call               : /lustre/hpc/kemi/ree/PhD/git/ReactivityQM/dep/xtb-6.5.1/bin/xtb --gfn 1 /lustre/hpc/kemi/ree/PhD/git/ReactivityQM/calculations/RaltegravirCLI/reac02prodE09/conf05/RaltegravirCLI_reac02prodE09_conf05_gfn1.xyz --opt --vfukui --chrg -1 --uhf 0 --alpb DMSO

   ID    Z sym.   atoms
    1    6 C      1, 3-6, 9, 10, 13-18, 20-22, 24
    2    7 N      2, 7, 8, 12
    3    8 O      11, 23, 25
    4    9 F      19
    5    1 H      26-47

      * Solvation model:               ALPB
        Solvent                        DMSO
        Solvent mass                       7.8130E+01 g/mol
          :  Hamiltonian                  GFN1-xTB          :
 * total energy  :   -80.1878709 Eh     change       -0.6070167E-09 Eh
 * total energy  :   -80.1980679 Eh     change       -0.1019698E-01 Eh
 * total energy  :   -80.2026380 Eh     change       -0.4570121E-02 Eh
 * total energy  :   -80.2043845 Eh     change       -0.1746521E-02 Eh
 * total energy  :   -80.2062306 Eh     change       -0.1846063E-02 Eh
 * total energy  :   -80.2081040 Eh     change       -0.1873427E-02 Eh
 * total energy  :   -80.2107745 Eh     change       -0.2670543E-02 Eh
 * total energy  :   -80.2139340 Eh     change       -0.3159419E-02 Eh
 * total energy  :   -80.2168330 Eh     change       -0.2899032E-02 Eh
 * total energy  :   -80.2191681 Eh     change       -0.2335158E-02 Eh
 * total energy  :   -80.2323673 Eh     change       -0.2671418E-04 Eh
 * total energy  :   -80.2323889 Eh     change       -0.2157729E-04 Eh
 * total energy  :   -80.2323979 Eh     change       -0.8986232E-05 Eh
 * total energy  :   -80.2324062 Eh     change       -0.8283556E-05 Eh
 * total energy  :   -80.2324114 Eh     change       -0.5261622E-05 Eh
 * total energy  :   -80.2324175 Eh     change       -0.6024406E-05 Eh
 * total energy  :   -80.2324243 Eh     change       -0.6845008E-05 Eh
 * total energy  :   -80.2324309 Eh     change       -0.6557741E-05 Eh
 * total energy  :   -80.2324356 Eh     change       -0.4765473E-05 Eh
   *** GEOMETRY OPTIMIZATION CONVERGED AFTER 61 ITERATIONS ***

 final structure:
================
47
 xtb: 6.5.1 (579679a)
C           -4.86950549891635       -1.11236623396169       -1.05258973800378
N           -3.51505206609890       -1.02537895658888       -0.50518016218362
C           -3.04663763378653        0.06011730831329        0.19522358430543
C           -3.92242708291280        1.26885499402127        0.50600843739214
C           -4.78236763132175        0.94416813154965        1.73680259018853
C           -3.02167337744905        2.47543462058853        0.82136984809934
N           -4.79274194952327        1.58622003284197       -0.62171603856266
N           -1.84745417994020        0.09147592013950        0.68089074098385
C           -0.96613985168757       -0.94060319358950        0.51335458030099
C            0.36646352534542       -0.70698698821821        1.17040548952326
O            0.56149911325335        0.27648768021273        1.87665645744911
N            1.30925141955425       -1.63841146635223        0.94402795589515
C            2.65862468722847       -1.49139250187786        1.49011752894842
C            3.54178372898699       -0.72211404328775        0.53057811811220
C            4.32837631253607       -1.39353199690721       -0.40108351689897
C            5.11589763750701       -0.68601948674404       -1.29788896906035
C            5.13464504896112        0.70830166189191       -1.28793094864438
C            6.00722509598966        1.47044940036653       -2.23800474864312
F            8.66424830919148        2.04354174712014       -0.88555798996339
C            4.34032616621556        1.37536390726363       -0.35461909328348
C            3.55197143634616        0.67069396541174        0.54220293700331
C           -1.36218121685036       -2.03531658313358       -0.19757469557649
O           -0.58932041360568       -3.11694097060557       -0.43779840287507
C           -2.69864879669956       -2.11050821564137       -0.75679608699006
O           -3.06903656951024       -3.09072039961207       -1.40377101693634
H           -4.93817271664755       -0.51667263423495       -1.96120917883907
H           -5.07526371472478       -2.15761855932854       -1.28210981606913
H           -5.59150255488533       -0.74708495500955       -0.32958710845776
H           -5.47188802619721        0.12778844388263        1.52999007791846
H           -4.14287966178224        0.65973346918801        2.57207397124701
H           -5.36120898312378        1.82217994877027        2.01914834062821
H           -2.36164127688242        2.68071304062402       -0.02069099902682
H           -3.64443065621280        3.34929990604215        1.00292769459543
H           -2.41455412360595        2.27874351317785        1.70478708565936
H           -5.52096212425382        2.21478512745308       -0.31528666478889
H           -4.26394031236499        2.05962078551165       -1.34302558156843
H            1.14396336538988       -2.41016235865621        0.32138293099314
H            2.57970939473413       -0.96636369553756        2.44785459006074
H            3.05586584604224       -2.49457741421131        1.66370439094790
H            4.32396352756700       -2.47760538929804       -0.42796887441330
H            5.71501765234812       -1.22987286986313       -2.02113028351274
H            6.98262391023964        1.67137835784090       -1.76364004675791
H            6.18448071472984        0.89863517994341       -3.14908606407399
H            5.55558173574057        2.42729254641960       -2.50145848354150
H            4.33016363868195        2.46083028701109       -0.33228665717180
H            2.93295013938067        1.20513604412678        1.25556765924753
H           -1.11500398699798       -3.75699910683660       -0.95444884358276

          :  Hamiltonian                  GFN1-xTB          :
         :: total energy             -80.232435619847 Eh    ::
         :: gradient norm              0.000554390594 Eh/a0 ::
         :: HOMO-LUMO gap              0.656757283447 eV    ::
         :: SCC energy               -81.126183105122 Eh    ::
         :: -> Gsolv                  -0.160861404764 Eh    ::
         :: repulsion energy           0.922941611203 Eh    ::

    * Orbital Energies and Occupations

         #    Occupation            Energy/Eh            Energy/eV
      -------------------------------------------------------------
         1        2.0000           -0.8240758             -22.4242
       ...           ...                  ...                  ...
        56        2.0000           -0.4626706             -12.5899
        57        2.0000           -0.4593691             -12.5001
        58        2.0000           -0.4495345             -12.2325
        59        2.0000           -0.4439883             -12.0815
        60        2.0000           -0.4324766             -11.7683
        61        2.0000           -0.4280068             -11.6467
        62        2.0000           -0.4241283             -11.5411
        63        2.0000           -0.4180409             -11.3755
        64        2.0000           -0.4119234             -11.2090
        65        2.0000           -0.4094065             -11.1405
        66        2.0000           -0.3324923              -9.0476
        67        2.0000           -0.3324894              -9.0475
        68        2.0000           -0.3319383              -9.0325 (HOMO)
        69        0.0000           -0.3078029              -8.3757 (LUMO)
        70                         -0.2714397              -7.3863
        71                         -0.2458584              -6.6901
        72                         -0.2445870              -6.6555
        73                         -0.2223967              -6.0517
        74                         -0.1454232              -3.9572
        75                         -0.1314704              -3.5775
        76                         -0.1236569              -3.3649
        77                         -0.1232070              -3.3526
        78                         -0.1158243              -3.1517
        79                         -0.1116382              -3.0378
       ...                                ...                  ...
       144                          0.7190753              19.5670
      -------------------------------------------------------------
                  HL-Gap            0.0241354 Eh            0.6568 eV

Wiberg/Mayer (AO) data.
largest (>0.10) Wiberg bond orders for each atom

     #   Z sym  total        # sym  WBO       # sym  WBO       # sym  WBO
 ---------------------------------------------------------------------------
     1   6 C    3.923 --    28 H    0.978    27 H    0.976    26 H    0.976
                             2 N    0.928
     2   7 N    3.514 --     3 C    1.168    24 C    1.140     1 C    0.928
                            25 O    0.132
     3   6 C    3.923 --     8 N    1.569     2 N    1.168     4 C    0.976
     4   6 C    3.966 --     6 C    0.989     7 N    0.985     5 C    0.982
                             3 C    0.976
     5   6 C    3.994 --    30 H    0.985    31 H    0.983     4 C    0.982
                            29 H    0.980
     6   6 C    3.995 --     4 C    0.989    33 H    0.986    32 H    0.985
                            34 H    0.983
     7   7 N    2.977 --     4 C    0.985    36 H    0.941    35 H    0.939
     8   7 N    3.031 --     3 C    1.569     9 C    1.196
     9   6 C    3.963 --    22 C    1.510     8 N    1.196    10 C    0.987
    10   6 C    3.909 --    11 O    1.568    12 N    1.275     9 C    0.987
    11   8 O    1.873 --    10 C    1.568    12 N    0.173
    12   7 N    3.355 --    10 C    1.275    13 C    0.934    37 H    0.890
                            11 O    0.173
    13   6 C    3.945 --    14 C    0.992    39 H    0.978    38 H    0.973
                            12 N    0.934
    14   6 C    3.985 --    15 C    1.417    21 C    1.412    13 C    0.992
                            17 C    0.106
    15   6 C    3.995 --    16 C    1.450    14 C    1.417    40 H    0.973
                            20 C    0.107
    16   6 C    3.995 --    15 C    1.450    17 C    1.406    41 H    0.973
                            21 C    0.108
    17   6 C    3.986 --    16 C    1.406    20 C    1.402    18 C    1.033
                            14 C    0.106
    18   6 C    3.988 --    17 C    1.033    43 H    0.984    44 H    0.983
                            42 H    0.925
    19   9 F    0.102
    20   6 C    3.995 --    21 C    1.455    17 C    1.402    45 H    0.974
                            15 C    0.107
    21   6 C    3.995 --    20 C    1.455    14 C    1.412    46 H    0.971
                            16 C    0.108
    22   6 C    3.916 --     9 C    1.510    24 C    1.094    23 O    1.068
    23   8 O    2.061 --    22 C    1.068    47 H    0.802
    24   6 C    3.917 --    25 O    1.531     2 N    1.140    22 C    1.094
    25   8 O    1.883 --    24 C    1.531     2 N    0.132
    26   1 H    1.020 --     1 C    0.976
    27   1 H    1.010 --     1 C    0.976
    28   1 H    1.021 --     1 C    0.978
    29   1 H    1.004 --     5 C    0.980
    30   1 H    1.004 --     5 C    0.985
    31   1 H    1.000 --     5 C    0.983
    32   1 H    1.007 --     6 C    0.985
    33   1 H    1.004 --     6 C    0.986
    34   1 H    1.015 --     6 C    0.983
    35   1 H    0.954 --     7 N    0.939
    36   1 H    0.957 --     7 N    0.941
    37   1 H    0.948 --    12 N    0.890
    38   1 H    1.012 --    13 C    0.973
    39   1 H    1.005 --    13 C    0.978
    40   1 H    1.002 --    15 C    0.973
    41   1 H    1.003 --    16 C    0.973
    42   1 H    1.038 --    18 C    0.925
    43   1 H    1.006 --    18 C    0.984
    44   1 H    1.006 --    18 C    0.983
    45   1 H    1.003 --    20 C    0.974
    46   1 H    1.012 --    21 C    0.971
    47   1 H    0.848 --    23 O    0.802
 ---------------------------------------------------------------------------

           -------------------------------------------------
          | TOTAL ENERGY              -80.232435619847 Eh   |
          | GRADIENT NORM               0.000554390594 Eh/α |
          | HOMO-LUMO GAP               0.656757283447 eV   |
           -------------------------------------------------

 * finished run on 2023/06/20 at 15:09:56.281
