   * xtb version 6.5.1 (579679a) compiled by 'ehlert@majestix' on 2022-07-11
          program call               : /lustre/hpc/kemi/ree/PhD/git/ReactivityQM/dep/xtb-6.5.1/bin/xtb --gfn 1 /lustre/hpc/kemi/ree/PhD/git/ReactivityQM/calculations/RaltegravirCLI/reac02prodE02/conf13/RaltegravirCLI_reac02prodE02_conf13_gfn1.xyz --opt --vfukui --chrg -1 --uhf 0 --alpb DMSO

   ID    Z sym.   atoms
    1    6 C      1, 3, 5, 7, 8, 11-15, 17, 18, 20-24
    2    7 N      2, 10, 19, 25
    3    8 O      4, 6, 9
    4    9 F      16
    5    1 H      26-47

      * Solvation model:               ALPB
        Solvent                        DMSO
        Solvent mass                       7.8130E+01 g/mol
          :  Hamiltonian                  GFN1-xTB          :
 * total energy  :   -80.2095772 Eh     change       -0.5258016E-11 Eh
 * total energy  :   -80.2172070 Eh     change       -0.7629733E-02 Eh
 * total energy  :   -80.2192114 Eh     change       -0.2004427E-02 Eh
 * total energy  :   -80.2196411 Eh     change       -0.4296870E-03 Eh
 * total energy  :   -80.2200908 Eh     change       -0.4497030E-03 Eh
 * total energy  :   -80.2203058 Eh     change       -0.2150620E-03 Eh
 * total energy  :   -80.2204876 Eh     change       -0.1817163E-03 Eh
 * total energy  :   -80.2205984 Eh     change       -0.1108168E-03 Eh
 * total energy  :   -80.2206639 Eh     change       -0.6552323E-04 Eh
 * total energy  :   -80.2207095 Eh     change       -0.4561000E-04 Eh
 * total energy  :   -80.2211741 Eh     change       -0.3338877E-04 Eh
 * total energy  :   -80.2211968 Eh     change       -0.2272528E-04 Eh
 * total energy  :   -80.2212223 Eh     change       -0.2544835E-04 Eh
 * total energy  :   -80.2212413 Eh     change       -0.1906780E-04 Eh
 * total energy  :   -80.2212476 Eh     change       -0.6241283E-05 Eh
 * total energy  :   -80.2212584 Eh     change       -0.1080603E-04 Eh
 * total energy  :   -80.2212663 Eh     change       -0.7966593E-05 Eh
 * total energy  :   -80.2212710 Eh     change       -0.4626651E-05 Eh
 * total energy  :   -80.2212748 Eh     change       -0.3844123E-05 Eh
   *** GEOMETRY OPTIMIZATION CONVERGED AFTER 36 ITERATIONS ***

 final structure:
================
47
 xtb: 6.5.1 (579679a)
C           -3.46116417906003        1.09765015828377        2.16164677622363
N           -2.43168346548929        0.40701326166230        1.39066972429715
C           -1.59107717428146       -0.42462668119033        2.09764850061260
O           -1.81307222591167       -0.69490364477708        3.30308227427501
C           -0.45975717910983       -0.92726728998000        1.39872629681041
O            0.35482910186270       -1.80503327400724        2.13986053601867
C           -0.12106106199085       -0.42276471206523        0.14583190771809
C            1.16631963508345       -0.71088790797847       -0.57033581804521
O            1.39990272443474       -0.27715136670621       -1.70078338004220
N            2.07013719263011       -1.49992602580512        0.06529562317138
C            3.38721491617601       -1.72602798880541       -0.50936790014773
C            4.34891783138895       -0.62742816116665       -0.10316866656172
C            5.25021231029114       -0.82959018563282        0.93936756157395
C            6.11405832807245        0.18243831677869        1.33791998361200
C            6.05212602842974        1.39315727742791        0.67365213955270
F            6.88288769807101        2.38202822706364        1.05380209020028
C            5.17332587433789        1.62893529057503       -0.36869405157368
C            4.31934833674616        0.60564505021840       -0.75371444697615
N           -0.90412285972371        0.41259645309995       -0.52104901520974
C           -2.22582625931060        0.72305601215954       -0.03693147846943
C           -2.42584319421548        2.24061783070547       -0.26200485242621
C           -3.26240582430983       -0.08890857886155       -0.92120184055542
C           -3.12196523493367       -1.59499928162224       -0.65632073383852
C           -3.00020712401604        0.18975462953006       -2.40545558960173
N           -4.63266013263169        0.33963677084989       -0.60492812221661
H           -3.86248404749484        0.40915136996700        2.90964307820527
H           -4.27346129372737        1.42375895068856        1.51522761361916
H           -3.04907243657354        1.97098356025881        2.68230845933647
H           -0.06945560172354       -1.86933728303995        3.01410014407468
H            1.95549502486944       -1.74162762131114        1.03837043169591
H            3.75168063452095       -2.69562932247065       -0.16049238472406
H            3.28730997571297       -1.75478988466235       -1.59997457650773
H            5.28707832949598       -1.78737338513318        1.44550871608109
H            6.82073710772357        0.03495157616249        2.14383312463029
H            5.16454548398089        2.59019174965858       -0.86654356979145
H            3.62357300693739        0.76625235929356       -1.57093774613484
H           -3.48017122199235        2.51294790552711       -0.25464235393462
H           -1.99798461022246        2.51268357943243       -1.22601950378704
H           -1.90281309286531        2.80155069970545        0.51187194774307
H           -3.29444110179646       -1.81568118111082        0.39715688128243
H           -2.12359255889323       -1.93894529283640       -0.92961817522598
H           -3.85420069573675       -2.14462616950729       -1.24746032556855
H           -3.57661259824009       -0.49781388863050       -3.02512025103522
H           -3.28977028152123        1.20739413003808       -2.66696794641708
H           -1.93930762938442        0.05775114304384       -2.62651633468510
H           -5.03159572636051       -0.27240038596598        0.09644242526550
H           -5.21388972924018        0.25759021113313       -1.42671617252116

          :  Hamiltonian                  GFN1-xTB          :
         :: total energy             -80.221274808565 Eh    ::
         :: gradient norm              0.000608252761 Eh/a0 ::
         :: HOMO-LUMO gap              1.128092120385 eV    ::
         :: SCC energy               -81.075076216083 Eh    ::
         :: -> Gsolv                  -0.102475028452 Eh    ::
         :: repulsion energy           0.885711639646 Eh    ::

    * Orbital Energies and Occupations

         #    Occupation            Energy/Eh            Energy/eV
      -------------------------------------------------------------
         1        2.0000           -0.8580736             -23.3494
       ...           ...                  ...                  ...
        56        2.0000           -0.4603168             -12.5259
        57        2.0000           -0.4524939             -12.3130
        58        2.0000           -0.4443787             -12.0922
        59        2.0000           -0.4438731             -12.0784
        60        2.0000           -0.4313424             -11.7374
        61        2.0000           -0.4191469             -11.4056
        62        2.0000           -0.4166188             -11.3368
        63        2.0000           -0.4059282             -11.0459
        64        2.0000           -0.3909499             -10.6383
        65        2.0000           -0.3881322             -10.5616
        66        2.0000           -0.3751658             -10.2088
        67        2.0000           -0.3617095              -9.8426
        68        2.0000           -0.3073160              -8.3625 (HOMO)
        69                         -0.2658594              -7.2344 (LUMO)
        70                         -0.2592377              -7.0542
        71                         -0.2479699              -6.7476
        72                         -0.1744212              -4.7462
        73                         -0.1379870              -3.7548
        74                         -0.1103059              -3.0016
        75                         -0.1065919              -2.9005
        76                         -0.1045681              -2.8454
        77                         -0.1002042              -2.7267
        78                         -0.0997589              -2.7146
        79                         -0.0968756              -2.6361
       ...                                ...                  ...
       144                          0.7239225              19.6989
      -------------------------------------------------------------
                  HL-Gap            0.0414566 Eh            1.1281 eV

Wiberg/Mayer (AO) data.
largest (>0.10) Wiberg bond orders for each atom

     #   Z sym  total        # sym  WBO       # sym  WBO       # sym  WBO
 ---------------------------------------------------------------------------
     1   6 C    3.965 --    27 H    0.984    28 H    0.983    26 H    0.981
                             2 N    0.959
     2   7 N    3.291 --     3 C    1.139     1 C    0.959    20 C    0.912
                             4 O    0.114
     3   6 C    3.922 --     4 O    1.426     5 C    1.195     2 N    1.139
     4   8 O    1.778 --     3 C    1.426     2 N    0.114
     5   6 C    3.844 --     7 C    1.340     3 C    1.195     6 O    0.953
                            19 N    0.173
     6   8 O    1.953 --     5 C    0.953    29 H    0.837
     7   6 C    3.973 --    19 N    1.426     5 C    1.340     8 C    0.999
     8   6 C    3.881 --     9 O    1.556    10 N    1.232     7 C    0.999
     9   8 O    1.854 --     8 C    1.556    10 N    0.151
    10   7 N    3.312 --     8 C    1.232    11 C    0.953    30 H    0.885
                             9 O    0.151
    11   6 C    3.962 --    12 C    0.993    31 H    0.978    32 H    0.970
                            10 N    0.953
    12   6 C    3.988 --    13 C    1.422    18 C    1.414    11 C    0.993
    13   6 C    3.994 --    14 C    1.438    12 C    1.422    33 H    0.971
                            17 C    0.110
    14   6 C    3.992 --    13 C    1.438    15 C    1.405    34 H    0.970
                            18 C    0.111
    15   6 C    3.858 --    14 C    1.405    17 C    1.399    16 F    0.918
    16   9 F    1.044 --    15 C    0.918
    17   6 C    3.992 --    18 C    1.447    15 C    1.399    35 H    0.970
                            13 C    0.110
    18   6 C    3.992 --    17 C    1.447    12 C    1.414    36 H    0.968
                            14 C    0.111
    19   7 N    2.932 --     7 C    1.426    20 C    1.015     5 C    0.173
    20   6 C    3.939 --    19 N    1.015    21 C    0.984    22 C    0.926
                             2 N    0.912
    21   6 C    3.996 --    39 H    0.986    20 C    0.984    38 H    0.984
                            37 H    0.983
    22   6 C    3.957 --    24 C    1.003    23 C    0.996    25 N    0.974
                            20 C    0.926
    23   6 C    3.997 --    22 C    0.996    42 H    0.987    40 H    0.983
                            41 H    0.983
    24   6 C    3.996 --    22 C    1.003    43 H    0.986    44 H    0.985
                            45 H    0.980
    25   7 N    2.978 --    22 C    0.974    46 H    0.950    47 H    0.948
    26   1 H    1.022 --     1 C    0.981
    27   1 H    1.025 --     1 C    0.984
    28   1 H    1.010 --     1 C    0.983
    29   1 H    0.887 --     6 O    0.837
    30   1 H    0.957 --    10 N    0.885
    31   1 H    1.006 --    11 C    0.978
    32   1 H    1.015 --    11 C    0.970
    33   1 H    1.001 --    13 C    0.971
    34   1 H    0.999 --    14 C    0.970
    35   1 H    1.000 --    17 C    0.970
    36   1 H    1.016 --    18 C    0.968
    37   1 H    1.020 --    21 C    0.983
    38   1 H    1.020 --    21 C    0.984
    39   1 H    1.012 --    21 C    0.986
    40   1 H    1.012 --    23 C    0.983
    41   1 H    1.011 --    23 C    0.983
    42   1 H    1.008 --    23 C    0.987
    43   1 H    1.006 --    24 C    0.986
    44   1 H    1.006 --    24 C    0.985
    45   1 H    1.028 --    24 C    0.980
    46   1 H    0.968 --    25 N    0.950
    47   1 H    0.965 --    25 N    0.948
 ---------------------------------------------------------------------------

           -------------------------------------------------
          | TOTAL ENERGY              -80.221274808565 Eh   |
          | GRADIENT NORM               0.000608252761 Eh/α |
          | HOMO-LUMO GAP               1.128092120385 eV   |
           -------------------------------------------------

 * finished run on 2023/06/20 at 14:56:37.108
