   * xtb version 6.5.1 (579679a) compiled by 'ehlert@majestix' on 2022-07-11
          program call               : /lustre/hpc/kemi/ree/PhD/git/ReactivityQM/dep/xtb-6.5.1/bin/xtb --gfn 1 /lustre/hpc/kemi/ree/PhD/git/ReactivityQM/calculations/R02/reac01prodE14/conf11/R02_reac01prodE14_conf11_gfn1.xyz --opt --vfukui --chrg -1 --uhf 0 --alpb DMSO

   ID    Z sym.   atoms
    1    6 C      1, 3, 5, 7-10, 12, 14, 17, 18, 21, 23, 24
    2    8 O      2, 4, 13, 19, 22, 25
    3    7 N      6, 11, 15, 16, 20
    4    1 H      26-43

      * Solvation model:               ALPB
        Solvent                        DMSO
        Solvent mass                       7.8130E+01 g/mol
          :  Hamiltonian                  GFN1-xTB          :
 * total energy  :   -83.8636701 Eh     change       -0.1375611E-10 Eh
 * total energy  :   -83.8792794 Eh     change       -0.1560930E-01 Eh
 * total energy  :   -83.8853962 Eh     change       -0.6116769E-02 Eh
 * total energy  :   -83.8863196 Eh     change       -0.9233843E-03 Eh
 * total energy  :   -83.8867997 Eh     change       -0.4800956E-03 Eh
 * total energy  :   -83.8870213 Eh     change       -0.2216395E-03 Eh
 * total energy  :   -83.8872384 Eh     change       -0.2170994E-03 Eh
 * total energy  :   -83.8874235 Eh     change       -0.1850749E-03 Eh
 * total energy  :   -83.8875791 Eh     change       -0.1555676E-03 Eh
 * total energy  :   -83.8877066 Eh     change       -0.1275650E-03 Eh
 * total energy  :   -83.8881389 Eh     change       -0.3832006E-04 Eh
 * total energy  :   -83.8881656 Eh     change       -0.2675095E-04 Eh
 * total energy  :   -83.8881885 Eh     change       -0.2282158E-04 Eh
 * total energy  :   -83.8882049 Eh     change       -0.1648600E-04 Eh
 * total energy  :   -83.8882133 Eh     change       -0.8335855E-05 Eh
 * total energy  :   -83.8882252 Eh     change       -0.1189855E-04 Eh
 * total energy  :   -83.8882312 Eh     change       -0.5994135E-05 Eh
 * total energy  :   -83.8882403 Eh     change       -0.9147258E-05 Eh
 * total energy  :   -83.8882449 Eh     change       -0.4569606E-05 Eh
   *** GEOMETRY OPTIMIZATION CONVERGED AFTER 26 ITERATIONS ***

 final structure:
================
43
 xtb: 6.5.1 (579679a)
C           -6.12742205492349        1.48145309202324       -0.12170255347066
O           -5.01939728574279        0.65013083695136       -0.41759184866923
C           -3.86069797241981        0.92713130295170        0.30482448330891
O           -3.87276390481998        1.86158233387653        1.11872025322718
C           -2.76980797290710        0.07793384348229        0.01325077664215
N           -1.64285867035308        0.32075213455295        0.74840750718882
C           -0.57234414638963       -0.36941396272132        0.62765466527663
C            0.64819595281589       -0.09990990120458        1.47722718678689
C            0.46019621139595        1.21387629741575        2.24237863218672
C            0.88504125651302       -1.26752953497624        2.44757736526516
N            1.80637061227868        0.01845663961463        0.56832584933561
C            3.06747833022852        0.23558243577486        0.97547380240085
O            3.44217325001517        0.34937311054440        2.13164840951167
C            3.99379294702847        0.32767671624969       -0.18889884256329
N            3.65634098802628        0.28517709067351       -1.44231827092306
N            4.80682747876602        0.40978104157171       -2.16437875026830
C            5.77161905048569        0.52040915776852       -1.30383945398663
C            7.21680835174410        0.67124802880963       -1.58298545848718
O            5.32313341459426        0.47796161428220       -0.04013558500589
N           -0.48636987528522       -1.44376427862211       -0.28589633125535
C           -1.48930950611501       -1.81044235144697       -1.11110332007844
O           -1.32727786993216       -2.72398696115825       -1.91945036967665
C           -2.83412520684732       -1.05152600381739       -1.00089779379708
C           -3.18013557928534       -0.57072664280218       -2.42314486996164
O           -3.83873934511577       -2.02104266811989       -0.65305424389347
H           -6.96654959102633        1.12679798118805       -0.72163415721727
H           -5.91678230158753        2.52772769205746       -0.37434679693162
H           -6.39080003302557        1.42556344318950        0.94113378968442
H           -0.43135818766289        1.13942997025982        2.86400296319352
H            1.32197566630497        1.41424291700193        2.87566534874308
H            0.32873756758132        2.03778541947807        1.54167380468713
H            0.00013724791741       -1.40146126196741        3.06850628648551
H            1.06841033588009       -2.18538068190858        1.89149380127004
H            1.74005357557694       -1.06795115283870        3.09093292353417
H            1.63601769124643       -0.02880901960035       -0.42588342524747
H            7.60975166748318        1.54303395738300       -1.06044691484707
H            7.37263509620192        0.78316317103590       -2.65307603547120
H            7.75802050440360       -0.20619208079266       -1.22840057131464
H            0.37305193531794       -1.96209739240048       -0.35733785612241
H           -2.47873187158831        0.20431312813978       -2.72834175032406
H           -3.11258957712840       -1.40937059129580       -3.11698437643131
H           -4.19133900278694       -0.17181714202476       -2.45286086743993
H           -3.77737117685318       -2.23916172856972        0.28247359466060

          :  Hamiltonian                  GFN1-xTB          :
         :: total energy             -83.888244882245 Eh    ::
         :: gradient norm              0.000935346118 Eh/a0 ::
         :: HOMO-LUMO gap              0.819501125150 eV    ::
         :: SCC energy               -84.653123065863 Eh    ::
         :: -> Gsolv                  -0.117900486275 Eh    ::
         :: repulsion energy           0.791167911629 Eh    ::

    * Orbital Energies and Occupations

         #    Occupation            Energy/Eh            Energy/eV
      -------------------------------------------------------------
         1        2.0000           -0.8584218             -23.3588
       ...           ...                  ...                  ...
        56        2.0000           -0.4732685             -12.8783
        57        2.0000           -0.4718615             -12.8400
        58        2.0000           -0.4658198             -12.6756
        59        2.0000           -0.4557063             -12.4004
        60        2.0000           -0.4534611             -12.3393
        61        2.0000           -0.4451079             -12.1120
        62        2.0000           -0.4440661             -12.0837
        63        2.0000           -0.4356236             -11.8539
        64        2.0000           -0.4286433             -11.6640
        65        2.0000           -0.4182885             -11.3822
        66        2.0000           -0.4042422             -11.0000
        67        2.0000           -0.3871994             -10.5362
        68        2.0000           -0.3320889              -9.0366 (HOMO)
        69        0.0000           -0.3019728              -8.2171 (LUMO)
        70                         -0.2523311              -6.8663
        71                         -0.2454771              -6.6798
        72                         -0.2021983              -5.5021
        73                         -0.1905275              -5.1845
        74                         -0.1462429              -3.9795
        75                         -0.1403496              -3.8191
        76                         -0.1137756              -3.0960
        77                         -0.1130645              -3.0766
        78                         -0.1086419              -2.9563
        79                         -0.0979973              -2.6666
       ...                                ...                  ...
       136                          0.7314166              19.9029
      -------------------------------------------------------------
                  HL-Gap            0.0301161 Eh            0.8195 eV

Wiberg/Mayer (AO) data.
largest (>0.10) Wiberg bond orders for each atom

     #   Z sym  total        # sym  WBO       # sym  WBO       # sym  WBO
 ---------------------------------------------------------------------------
     1   6 C    3.911 --    26 H    0.987    27 H    0.981    28 H    0.981
                             2 O    0.940
     2   8 O    2.102 --     3 C    0.962     1 C    0.940
     3   6 C    3.865 --     4 O    1.491     5 C    1.285     2 O    0.962
     4   8 O    1.791 --     3 C    1.491     5 C    0.107
     5   6 C    3.853 --     3 C    1.285     6 N    1.206    23 C    0.977
                             7 C    0.109     4 O    0.107
     6   7 N    3.054 --     7 C    1.623     5 C    1.206
     7   6 C    3.902 --     6 N    1.623    20 N    0.992     8 C    0.983
                             5 C    0.109
     8   6 C    3.925 --     9 C    0.994    10 C    0.984     7 C    0.983
                            11 N    0.902
     9   6 C    3.993 --     8 C    0.994    31 H    0.986    30 H    0.984
                            29 H    0.984
    10   6 C    3.990 --    32 H    0.986    33 H    0.985     8 C    0.984
                            34 H    0.981
    11   7 N    3.360 --    12 C    1.279     8 C    0.902    35 H    0.898
                            13 O    0.183
    12   6 C    3.921 --    13 O    1.579    11 N    1.279    14 C    0.982
    13   8 O    1.899 --    12 C    1.579    11 N    0.183
    14   6 C    3.871 --    15 N    1.616    19 O    1.063    12 C    0.982
    15   7 N    3.014 --    14 C    1.616    16 N    1.194
    16   7 N    2.980 --    17 C    1.611    15 N    1.194
    17   6 C    3.873 --    16 N    1.611    19 O    1.081    18 C    1.031
    18   6 C    3.987 --    17 C    1.031    37 H    0.983    36 H    0.967
                            38 H    0.962
    19   8 O    2.327 --    17 C    1.081    14 C    1.063
    20   7 N    3.396 --    21 C    1.239     7 C    0.992    39 H    0.901
                            22 O    0.143
    21   6 C    3.882 --    22 O    1.574    20 N    1.239    23 C    0.927
    22   8 O    1.857 --    21 C    1.574    20 N    0.143
    23   6 C    3.908 --    24 C    0.980     5 C    0.977    21 C    0.927
                            25 O    0.919
    24   6 C    3.996 --    40 H    0.989    41 H    0.985    42 H    0.982
                            23 C    0.980
    25   8 O    1.885 --    23 C    0.919    43 H    0.869
    26   1 H    1.018 --     1 C    0.987
    27   1 H    1.018 --     1 C    0.981
    28   1 H    1.018 --     1 C    0.981
    29   1 H    1.015 --     9 C    0.984
    30   1 H    1.011 --     9 C    0.984
    31   1 H    1.011 --     9 C    0.986
    32   1 H    1.006 --    10 C    0.986
    33   1 H    1.004 --    10 C    0.985
    34   1 H    1.011 --    10 C    0.981
    35   1 H    0.959 --    11 N    0.898
    36   1 H    0.997 --    18 C    0.967
    37   1 H    0.999 --    18 C    0.983
    38   1 H    0.997 --    18 C    0.962
    39   1 H    0.949 --    20 N    0.901
    40   1 H    1.012 --    24 C    0.989
    41   1 H    1.014 --    24 C    0.985
    42   1 H    1.021 --    24 C    0.982
    43   1 H    0.898 --    25 O    0.869
 ---------------------------------------------------------------------------

           -------------------------------------------------
          | TOTAL ENERGY              -83.888244882245 Eh   |
          | GRADIENT NORM               0.000935346118 Eh/α |
          | HOMO-LUMO GAP               0.819501125150 eV   |
           -------------------------------------------------

 * finished run on 2023/06/20 at 15:16:00.736
