   * xtb version 6.5.1 (579679a) compiled by 'ehlert@majestix' on 2022-07-11
          program call               : /lustre/hpc/kemi/ree/PhD/git/ReactivityQM/dep/xtb-6.5.1/bin/xtb --gfn 1 /lustre/hpc/kemi/ree/PhD/git/ReactivityQM/calculations/R02/reac01prodE08/conf10/R02_reac01prodE08_conf10_gfn1.xyz --opt --vfukui --chrg -1 --uhf 0 --alpb DMSO

   ID    Z sym.   atoms
    1    6 C      1, 3, 5, 7-10, 12, 14, 15, 18, 19, 22, 24
    2    8 O      2, 4, 13, 20, 23, 25
    3    7 N      6, 11, 16, 17, 21
    4    1 H      26-43

      * Solvation model:               ALPB
        Solvent                        DMSO
        Solvent mass                       7.8130E+01 g/mol
          :  Hamiltonian                  GFN1-xTB          :
 * total energy  :   -83.8459544 Eh     change       -0.1989520E-12 Eh
 * total energy  :   -83.8576690 Eh     change       -0.1171460E-01 Eh
 * total energy  :   -83.8621655 Eh     change       -0.4496507E-02 Eh
 * total energy  :   -83.8627478 Eh     change       -0.5823099E-03 Eh
 * total energy  :   -83.8630483 Eh     change       -0.3004980E-03 Eh
 * total energy  :   -83.8631767 Eh     change       -0.1284125E-03 Eh
 * total energy  :   -83.8632933 Eh     change       -0.1165505E-03 Eh
 * total energy  :   -83.8633867 Eh     change       -0.9347241E-04 Eh
 * total energy  :   -83.8634697 Eh     change       -0.8297717E-04 Eh
 * total energy  :   -83.8635378 Eh     change       -0.6812525E-04 Eh
 * total energy  :   -83.8639777 Eh     change       -0.1170949E-04 Eh
 * total energy  :   -83.8639917 Eh     change       -0.1395884E-04 Eh
 * total energy  :   -83.8640032 Eh     change       -0.1154092E-04 Eh
 * total energy  :   -83.8640125 Eh     change       -0.9311873E-05 Eh
 * total energy  :   -83.8640231 Eh     change       -0.1055492E-04 Eh
 * total energy  :   -83.8640327 Eh     change       -0.9607521E-05 Eh
 * total energy  :   -83.8640409 Eh     change       -0.8254334E-05 Eh
 * total energy  :   -83.8640490 Eh     change       -0.8063500E-05 Eh
 * total energy  :   -83.8640520 Eh     change       -0.2984469E-05 Eh
   *** GEOMETRY OPTIMIZATION CONVERGED AFTER 44 ITERATIONS ***

 final structure:
================
43
 xtb: 6.5.1 (579679a)
C           -6.50045472687663       -1.07057921685153       -0.90986327676687
O           -5.15450630826760       -1.49248479669063       -0.68303013987223
C           -4.30243352072172       -0.52209777031716       -0.24865733516012
O           -4.68572014991798        0.62183114875890       -0.06703359569891
C           -2.93342134595793       -0.98867593453465       -0.03459068805151
N           -2.08372052143531        0.01050235247200        0.39775221627132
C           -0.84621106908094       -0.25447800873818        0.62482029353722
C            0.08431778807031        0.81804920311106        1.15489590212830
C           -0.53477421280148        2.20340384243375        0.93950972628634
C            0.31022028802405        0.54381826797509        2.65046822010519
N            1.34601387278913        0.70559946008632        0.41753151886593
C            2.40923262791306        1.51034193151287        0.66023550469854
O            2.50912268709321        2.24000301882367        1.63850437437421
C            3.56652403820493        1.35667119060830       -0.35099284743420
C            4.17620912316062        2.73609809455202       -0.64686707192105
N            4.55417183653556        0.45762859859038        0.24598824380466
N            4.67227858275899       -0.58645782262255       -0.60390829218231
C            3.88315989587498       -0.43408880706346       -1.60738154300980
C            3.71756880283234       -1.33458592709461       -2.77694546795384
O            3.12400787278323        0.72723551556181       -1.54673425753436
N           -0.32428942176854       -1.50726624726754        0.46226226107280
C           -1.07351457532781       -2.60423369154296        0.04078469718105
O           -0.53472977880497       -3.70375818756601       -0.07388537674110
C           -2.45884618284772       -2.28599669978766       -0.21570956119854
O           -3.21291796751040       -3.33395687747590       -0.62669967362893
H           -7.05427856185750       -1.94563829555808       -1.24250278626123
H           -6.93562873971510       -0.67919053279533        0.01367116482496
H           -6.52885129552490       -0.29372089828341       -1.67864267319581
H           -1.50731047692827        2.24630425894707        1.42747466379446
H           -0.66834439941046        2.38940181492908       -0.12517455472594
H            0.11200701772188        2.97141599993464        1.35988864107533
H           -0.65348290966672        0.48593850966089        3.15463389190851
H            0.89596516679876        1.34225176568280        3.10164970337494
H            0.83525485901663       -0.40119717916003        2.78165972470192
H            1.28069331937582        0.32322842013148       -0.51606648617070
H            3.45514378307473        3.35758120014817       -1.17426260795377
H            4.45091021968633        3.21258750438656        0.29228104359433
H            5.06373117795182        2.61216599532092       -1.26331465988372
H            2.69277501205853       -1.70488723434402       -2.83986490093136
H            3.93691472566809       -0.80254391874831       -3.70430163317827
H            4.39705461372355       -2.17930926944919       -2.68065527075948
H            0.65201381382361       -1.67713939993188        0.65663996200663
H           -4.13185196051681       -3.06976937780370       -0.79941905339058

          :  Hamiltonian                  GFN1-xTB          :
         :: total energy             -83.864051989222 Eh    ::
         :: gradient norm              0.000362257563 Eh/a0 ::
         :: HOMO-LUMO gap              0.078697532982 eV    ::
         :: SCC energy               -84.619633913685 Eh    ::
         :: -> Gsolv                  -0.108694430480 Eh    ::
         :: repulsion energy           0.782563413505 Eh    ::

    * Orbital Energies and Occupations

         #    Occupation            Energy/Eh            Energy/eV
      -------------------------------------------------------------
         1        2.0000           -0.8190130             -22.2865
       ...           ...                  ...                  ...
        56        2.0000           -0.4811566             -13.0929
        57        2.0000           -0.4751971             -12.9308
        58        2.0000           -0.4607728             -12.5383
        59        2.0000           -0.4598831             -12.5141
        60        2.0000           -0.4367631             -11.8849
        61        2.0000           -0.4360611             -11.8658
        62        2.0000           -0.4302728             -11.7083
        63        2.0000           -0.4268585             -11.6154
        64        2.0000           -0.4235029             -11.5241
        65        2.0000           -0.4118318             -11.2065
        66        2.0000           -0.4060750             -11.0499
        67        2.0000           -0.3835860             -10.4379
        68        1.6417           -0.3091530              -8.4125 (HOMO)
        69        0.3583           -0.3062609              -8.3338 (LUMO)
        70                         -0.2588570              -7.0439
        71                         -0.2321053              -6.3159
        72                         -0.2165232              -5.8919
        73                         -0.1932676              -5.2591
        74                         -0.1341703              -3.6510
        75                         -0.1278145              -3.4780
        76                         -0.1201010              -3.2681
        77                         -0.1160774              -3.1586
        78                         -0.1105045              -3.0070
        79                         -0.1016397              -2.7658
       ...                                ...                  ...
       136                          0.7119930              19.3743
      -------------------------------------------------------------
                  HL-Gap            0.0028921 Eh            0.0787 eV

Wiberg/Mayer (AO) data.
largest (>0.10) Wiberg bond orders for each atom

     #   Z sym  total        # sym  WBO       # sym  WBO       # sym  WBO
 ---------------------------------------------------------------------------
     1   6 C    3.879 --    26 H    0.987    27 H    0.981    28 H    0.980
                             2 O    0.903
     2   8 O    2.152 --     3 C    1.031     1 C    0.903     4 O    0.111
     3   6 C    3.772 --     4 O    1.599     5 C    1.077     2 O    1.031
     4   8 O    1.833 --     3 C    1.599     2 O    0.111
     5   6 C    3.862 --    24 C    1.389     6 N    1.154     3 C    1.077
     6   7 N    3.015 --     7 C    1.608     5 C    1.154
     7   6 C    3.909 --     6 N    1.608    21 N    1.152     8 C    0.979
     8   6 C    3.945 --     9 C    0.992    10 C    0.980     7 C    0.979
                            11 N    0.930
     9   6 C    3.993 --     8 C    0.992    30 H    0.986    29 H    0.984
                            31 H    0.984
    10   6 C    3.990 --    32 H    0.987    34 H    0.985     8 C    0.980
                            33 H    0.978
    11   7 N    3.306 --    12 C    1.237     8 C    0.930    35 H    0.898
                            13 O    0.151
    12   6 C    3.853 --    13 O    1.593    11 N    1.237    14 C    0.913
    13   8 O    1.888 --    12 C    1.593    11 N    0.151
    14   6 C    3.890 --    16 N    0.987    15 C    0.967    20 O    0.916
                            12 C    0.913
    15   6 C    3.971 --    36 H    0.987    38 H    0.986    37 H    0.985
                            14 C    0.967
    16   7 N    2.453 --    17 N    1.222    14 C    0.987    18 C    0.109
    17   7 N    3.002 --    18 C    1.622    16 N    1.222
    18   6 C    3.748 --    17 N    1.622    19 C    1.023    20 O    0.963
                            16 N    0.109
    19   6 C    3.994 --    18 C    1.023    41 H    0.986    40 H    0.972
                            39 H    0.972
    20   8 O    2.078 --    18 C    0.963    14 C    0.916
    21   7 N    3.376 --     7 C    1.152    22 C    1.075    42 H    0.894
                            23 O    0.115
    22   6 C    3.855 --    23 O    1.540    24 C    1.128    21 N    1.075
    23   8 O    1.810 --    22 C    1.540    21 N    0.115
    24   6 C    3.786 --     5 C    1.389    22 C    1.128    25 O    1.067
    25   8 O    2.023 --    24 C    1.067    43 H    0.812
    26   1 H    1.012 --     1 C    0.987
    27   1 H    1.010 --     1 C    0.981
    28   1 H    1.009 --     1 C    0.980
    29   1 H    1.013 --     9 C    0.984
    30   1 H    1.006 --     9 C    0.986
    31   1 H    1.010 --     9 C    0.984
    32   1 H    1.004 --    10 C    0.987
    33   1 H    1.016 --    10 C    0.978
    34   1 H    1.004 --    10 C    0.985
    35   1 H    0.954 --    11 N    0.898
    36   1 H    1.006 --    15 C    0.987
    37   1 H    1.014 --    15 C    0.985
    38   1 H    1.011 --    15 C    0.986
    39   1 H    1.000 --    19 C    0.972
    40   1 H    1.000 --    19 C    0.972
    41   1 H    1.006 --    19 C    0.986
    42   1 H    0.943 --    21 N    0.894
    43   1 H    0.866 --    25 O    0.812
 ---------------------------------------------------------------------------

           -------------------------------------------------
          | TOTAL ENERGY              -83.864051989222 Eh   |
          | GRADIENT NORM               0.000362257563 Eh/α |
          | HOMO-LUMO GAP               0.078697532982 eV   |
           -------------------------------------------------

 * finished run on 2023/06/20 at 15:06:45.449
