   * xtb version 6.5.1 (579679a) compiled by 'ehlert@majestix' on 2022-07-11
          program call               : /lustre/hpc/kemi/ree/PhD/git/ReactivityQM/dep/xtb-6.5.1/bin/xtb --gfn 1 /lustre/hpc/kemi/ree/PhD/git/ReactivityQM/calculations/R02methylcation/reac01prodE09/conf17/R02methylcation_reac01prodE09_conf17_gfn1.xyz --opt --vfukui --chrg -2 --uhf 0 --alpb DMSO

   ID    Z sym.   atoms
    1    6 C      1, 3, 5, 7-10, 12, 14, 16, 17, 20, 22, 24
    2    8 O      2, 4, 13, 15, 23, 25
    3    7 N      6, 11, 18, 19, 21
    4    1 H      26-42

      * Solvation model:               ALPB
        Solvent                        DMSO
        Solvent mass                       7.8130E+01 g/mol
          :  Hamiltonian                  GFN1-xTB          :
 * total energy  :   -83.5975962 Eh     change       -0.1632316E-08 Eh
 * total energy  :   -83.6116713 Eh     change       -0.1407506E-01 Eh
 * total energy  :   -83.6168031 Eh     change       -0.5131850E-02 Eh
 * total energy  :   -83.6183641 Eh     change       -0.1561007E-02 Eh
 * total energy  :   -83.6215180 Eh     change       -0.3153866E-02 Eh
 * total energy  :   -83.6238948 Eh     change       -0.2376753E-02 Eh
 * total energy  :   -83.6263512 Eh     change       -0.2456400E-02 Eh
 * total energy  :   -83.6287855 Eh     change       -0.2434365E-02 Eh
 * total energy  :   -83.6303444 Eh     change       -0.1558871E-02 Eh
 * total energy  :   -83.6313892 Eh     change       -0.1044780E-02 Eh
 * total energy  :   -83.6348520 Eh     change       -0.9961771E-05 Eh
 * total energy  :   -83.6348657 Eh     change       -0.1371236E-04 Eh
 * total energy  :   -83.6348842 Eh     change       -0.1851871E-04 Eh
 * total energy  :   -83.6348954 Eh     change       -0.1112729E-04 Eh
 * total energy  :   -83.6349067 Eh     change       -0.1134836E-04 Eh
 * total energy  :   -83.6349185 Eh     change       -0.1180977E-04 Eh
 * total energy  :   -83.6349270 Eh     change       -0.8497804E-05 Eh
 * total energy  :   -83.6349321 Eh     change       -0.5117654E-05 Eh
 * total energy  :   -83.6349361 Eh     change       -0.3942461E-05 Eh
   *** GEOMETRY OPTIMIZATION CONVERGED AFTER 56 ITERATIONS ***

 final structure:
================
42
 xtb: 6.5.1 (579679a)
C           -5.94425198443307       -1.50504602911873        0.38660614013860
O           -4.73583529013214       -0.76913055014133        0.29358423502009
C           -4.75553544152736        0.29404106982308       -0.57540117659679
O           -5.77529732525173        0.55062930344283       -1.20095796507603
C           -3.48770077512408        0.99514027563737       -0.62612817135784
N           -2.49761162972832        0.48602845256586        0.19923882549671
C           -1.33367389456462        1.02272930265443        0.22245275353760
C           -0.25287092472966        0.54746831011028        1.17765367991186
C           -0.33197137309709        1.45474572893712        2.41917522031663
C           -0.51252985469152       -0.91650143625787        1.56476861311411
N            1.02913551481733        0.71823632841906        0.48871428879008
C            2.21762203064976        0.19231209216909        1.15440021501025
O            2.33083614401786        0.26010925748233        2.42009912703336
C            3.10500830284579       -0.42018082884177        0.31917497429317
O            3.02438462764276       -0.39958855656855       -1.10659636557279
C            4.25152215061728       -0.73728886186314       -1.51664864713963
C            4.50947334011991       -0.81771322104422       -2.98264995925869
N            5.12911337119273       -0.96833009124119       -0.61637972058869
N            4.49011148016215       -0.76096271426747        0.65890374769376
C            4.58402013780860       -2.01494270496354        1.42274380521925
N           -1.02542589545713        2.12130174915593       -0.55334947663222
C           -1.90362307817124        2.73337377431432       -1.40087224751657
O           -1.54542904197511        3.71360650600448       -2.05707083130734
C           -3.28904897512945        2.12943384126774       -1.45692902994406
O           -4.13972663158488        2.64988668529463       -2.20631105516442
H           -5.77171985666496       -2.31833409061496        1.09067287522497
H           -6.22732381929546       -1.91696343951687       -0.58784665994366
H           -6.76080825831763       -0.87198377603255        0.74992096040486
H           -1.34731401321837        1.44183909295812        2.81675411039975
H            0.35277653046626        1.11215084920646        3.19279546782149
H           -0.07166943029780        2.47754366336360        2.14667542710567
H           -1.52628654653687       -1.01919072340767        1.95222334010532
H           -0.40718296492759       -1.55947671450909        0.69100943126967
H            0.19556228606152       -1.23469141419241        2.32878601057178
H            0.96858926198764        0.29832215338042       -0.43623182359219
H            3.83146130505178       -1.53716436234283       -3.44099354191332
H            5.53673898760987       -1.12760764352518       -3.15813188255305
H            4.33968173826513        0.15262836449120       -3.44947146906525
H            5.63600215307177       -2.24626484907420        1.58644119618871
H            4.10386787648815       -2.84657399967377        0.89640627207531
H            4.09049528152608       -1.85077457753263        2.38068863201649
H           -0.08356751557480        2.48718778409156       -0.50888232554197

          :  Hamiltonian                  GFN1-xTB          :
         :: total energy             -83.634936083475 Eh    ::
         :: gradient norm              0.000246482145 Eh/a0 ::
         :: HOMO-LUMO gap              0.779116384017 eV    ::
         :: SCC energy               -84.377684583546 Eh    ::
         :: -> Gsolv                  -0.260625236447 Eh    ::
         :: repulsion energy           0.768209548927 Eh    ::

    * Orbital Energies and Occupations

         #    Occupation            Energy/Eh            Energy/eV
      -------------------------------------------------------------
         1        2.0000           -0.7888929             -21.4669
       ...           ...                  ...                  ...
        56        2.0000           -0.4468784             -12.1602
        57        2.0000           -0.4419432             -12.0259
        58        2.0000           -0.4276618             -11.6373
        59        2.0000           -0.4243662             -11.5476
        60        2.0000           -0.4190022             -11.4016
        61        2.0000           -0.4112702             -11.1912
        62        2.0000           -0.4006130             -10.9012
        63        2.0000           -0.3819345             -10.3930
        64        2.0000           -0.3798070             -10.3351
        65        2.0000           -0.3656797              -9.9507
        66        2.0000           -0.3570174              -9.7149
        67        2.0000           -0.3519725              -9.5777
        68        2.0000           -0.2878489              -7.8328 (HOMO)
        69        0.0000           -0.2592169              -7.0537 (LUMO)
        70                         -0.2208910              -6.0108
        71                         -0.2053679              -5.5883
        72                         -0.1855873              -5.0501
        73                         -0.1292793              -3.5179
        74                         -0.1203213              -3.2741
        75                         -0.1179386              -3.2093
        76                         -0.0970987              -2.6422
        77                         -0.0921494              -2.5075
        78                         -0.0902799              -2.4566
        79                         -0.0876955              -2.3863
       ...                                ...                  ...
       134                          0.7700066              20.9529
      -------------------------------------------------------------
                  HL-Gap            0.0286320 Eh            0.7791 eV

Wiberg/Mayer (AO) data.
largest (>0.10) Wiberg bond orders for each atom

     #   Z sym  total        # sym  WBO       # sym  WBO       # sym  WBO
 ---------------------------------------------------------------------------
     1   6 C    3.904 --    26 H    0.987    28 H    0.980    27 H    0.980
                             2 O    0.932
     2   8 O    2.132 --     3 C    1.016     1 C    0.932     4 O    0.106
     3   6 C    3.848 --     4 O    1.582     5 C    1.131     2 O    1.016
     4   8 O    1.860 --     3 C    1.582     2 O    0.106
     5   6 C    3.919 --    24 C    1.273     6 N    1.145     3 C    1.131
                            25 O    0.130
     6   7 N    3.021 --     7 C    1.633     5 C    1.145
     7   6 C    3.926 --     6 N    1.633    21 N    1.095     8 C    0.976
     8   6 C    3.966 --    10 C    0.989     9 C    0.980     7 C    0.976
                            11 N    0.965
     9   6 C    3.993 --    29 H    0.989    31 H    0.987     8 C    0.980
                            30 H    0.976
    10   6 C    3.996 --     8 C    0.989    33 H    0.987    32 H    0.985
                            34 H    0.984
    11   7 N    3.075 --     8 C    0.965    12 C    0.947    35 H    0.941
    12   6 C    3.932 --    14 C    1.519    13 O    1.336    11 N    0.947
    13   8 O    1.701 --    12 C    1.336    14 C    0.172
    14   6 C    3.659 --    12 C    1.519    19 N    0.947    15 O    0.873
                            13 O    0.172
    15   8 O    2.190 --    16 C    1.087    14 C    0.873    18 N    0.133
    16   6 C    3.906 --    18 N    1.709    15 O    1.087    17 C    1.014
    17   6 C    3.995 --    16 C    1.014    37 H    0.987    36 H    0.973
                            38 H    0.973
    18   7 N    2.947 --    16 C    1.709    19 N    0.987    15 O    0.133
    19   7 N    3.064 --    18 N    0.987    20 C    0.969    14 C    0.947
    20   6 C    3.981 --    39 H    0.989    41 H    0.986    40 H    0.984
                            19 N    0.969
    21   7 N    3.438 --    22 C    1.179     7 C    1.095    42 H    0.893
                            23 O    0.136
    22   6 C    3.883 --    23 O    1.559    21 N    1.179    24 C    0.971
    23   8 O    1.838 --    22 C    1.559    21 N    0.136
    24   6 C    3.944 --    25 O    1.510     5 C    1.273    22 C    0.971
    25   8 O    1.813 --    24 C    1.510     5 C    0.130
    26   1 H    1.017 --     1 C    0.987
    27   1 H    1.015 --     1 C    0.980
    28   1 H    1.015 --     1 C    0.980
    29   1 H    1.009 --     9 C    0.989
    30   1 H    1.032 --     9 C    0.976
    31   1 H    1.012 --     9 C    0.987
    32   1 H    1.019 --    10 C    0.985
    33   1 H    1.008 --    10 C    0.987
    34   1 H    1.016 --    10 C    0.984
    35   1 H    0.982 --    11 N    0.941
    36   1 H    1.003 --    17 C    0.973
    37   1 H    1.006 --    17 C    0.987
    38   1 H    1.004 --    17 C    0.973
    39   1 H    1.025 --    20 C    0.989
    40   1 H    1.021 --    20 C    0.984
    41   1 H    1.034 --    20 C    0.986
    42   1 H    0.964 --    21 N    0.893
 ---------------------------------------------------------------------------

           -------------------------------------------------
          | TOTAL ENERGY              -83.634936083475 Eh   |
          | GRADIENT NORM               0.000246482145 Eh/α |
          | HOMO-LUMO GAP               0.779116384017 eV   |
           -------------------------------------------------

 * finished run on 2023/06/21 at 17:18:58.415
