   * xtb version 6.5.1 (579679a) compiled by 'ehlert@majestix' on 2022-07-11
          program call               : /lustre/hpc/kemi/ree/PhD/git/ReactivityQM/dep/xtb-6.5.1/bin/xtb --gfn 1 /lustre/hpc/kemi/ree/PhD/git/ReactivityQM/calculations/R02deprot/reac01prodE06/conf14/R02deprot_reac01prodE06_conf14_gfn1.xyz --opt --vfukui --chrg -2 --uhf 0 --alpb DMSO

   ID    Z sym.   atoms
    1    6 C      1, 3, 5, 6, 8, 11-15, 17, 19, 22, 23
    2    8 O      2, 4, 7, 9, 18, 24
    3    7 N      10, 16, 20, 21, 25
    4    1 H      26-42

      * Solvation model:               ALPB
        Solvent                        DMSO
        Solvent mass                       7.8130E+01 g/mol
          :  Hamiltonian                  GFN1-xTB          :
 * total energy  :   -83.5810955 Eh     change       -0.6869527E-10 Eh
 * total energy  :   -83.5924280 Eh     change       -0.1133254E-01 Eh
 * total energy  :   -83.5967641 Eh     change       -0.4336031E-02 Eh
 * total energy  :   -83.5975237 Eh     change       -0.7596217E-03 Eh
 * total energy  :   -83.5981388 Eh     change       -0.6151518E-03 Eh
 * total energy  :   -83.5984692 Eh     change       -0.3304189E-03 Eh
 * total energy  :   -83.5987634 Eh     change       -0.2942038E-03 Eh
 * total energy  :   -83.5990065 Eh     change       -0.2430814E-03 Eh
 * total energy  :   -83.5991865 Eh     change       -0.1799649E-03 Eh
 * total energy  :   -83.5993142 Eh     change       -0.1277489E-03 Eh
 * total energy  :   -83.5998612 Eh     change       -0.1635439E-04 Eh
 * total energy  :   -83.5998884 Eh     change       -0.2724372E-04 Eh
 * total energy  :   -83.5998968 Eh     change       -0.8365644E-05 Eh
 * total energy  :   -83.5999052 Eh     change       -0.8398745E-05 Eh
 * total energy  :   -83.5999118 Eh     change       -0.6610659E-05 Eh
 * total energy  :   -83.5999177 Eh     change       -0.5905250E-05 Eh
 * total energy  :   -83.5999309 Eh     change       -0.1316828E-04 Eh
 * total energy  :   -83.5999348 Eh     change       -0.3986723E-05 Eh
 * total energy  :   -83.5999395 Eh     change       -0.4617262E-05 Eh
   *** GEOMETRY OPTIMIZATION CONVERGED AFTER 27 ITERATIONS ***

 final structure:
================
42
 xtb: 6.5.1 (579679a)
C           -3.89798475782492        3.41334474611479       -0.91853663711510
O           -3.71893449722364        2.09543461140757       -0.41275395544950
C           -2.46562773284740        1.56938629732036       -0.57462395445250
O           -1.60573334882893        2.22643351325835       -1.14016443103402
C           -2.28150679953723        0.21472117700951       -0.02674972854329
C           -3.30584975650450       -0.64756497098509        0.34212094551800
O           -4.65466902095574       -0.32519567768304        0.34132200365037
C           -3.00186816149261       -2.09536136339775        0.53813234288274
O           -3.94491904328688       -2.93780756239602        0.57145086709128
N           -1.72610082189985       -2.44955865073758        0.61050332046223
C           -0.71973635079073       -1.41645562512472        0.68757301904148
C           -0.44046554149102       -1.11771453727745        2.19450253664822
C            0.57768078423944       -1.98440737576583        0.00694742639628
C            1.08850457291870       -3.23368024391792        0.72995734037359
C            0.24438428179274       -2.31975565757967       -1.45456703883543
N            1.56262916125862       -0.90158733751644        0.03311366547790
C            2.86047567771751       -1.01624485501259       -0.30333442650907
O            3.43175112847624       -2.07775412141616       -0.59594363200980
C            3.59781105351170        0.25481280069196       -0.26573547782516
N            4.85632561301499        0.45096257548053       -0.58990961088916
N            5.10899336422688        1.78103228339698       -0.39442534168768
C            4.00946402621511        2.31592543691725        0.03075200298349
C            3.78653999103903        3.73391691727786        0.39833676649105
O            3.00887955774930        1.41898228196146        0.13574223165417
N           -0.98215058546026       -0.15076116235105        0.02883323436135
H           -3.75550388999142        3.43363729560108       -2.00345599238060
H           -4.91392825749133        3.71726825817418       -0.67400841073673
H           -3.18472796123346        4.10175586655074       -0.45515568473392
H           -4.79372250495091        0.60967885936948        0.14334780995711
H           -1.28140810560485       -0.55892132873902        2.60445930532013
H           -0.33556541900833       -2.04579886049773        2.75554402204280
H            0.46342183383063       -0.51964774708656        2.30655496088474
H            1.81526330568587       -3.77476062509841        0.12485235728365
H            1.55794178430123       -2.97427632816969        1.67804321722908
H            0.23727432624903       -3.88953515256938        0.92373076698525
H            1.12247160839377       -2.69809279231909       -1.97810738446406
H           -0.54112395690004       -3.07676680319401       -1.47734221060202
H           -0.11434543782664       -1.42301277706703       -1.96219158325772
H            1.14954218295723        0.02720751895269        0.08493331587517
H            3.00721005047409        4.17194770306038       -0.22536719600602
H            3.46904389903785        3.80710656900423        1.43876493898906
H            4.71026074803992        4.29110384431981        0.26362929891249

          :  Hamiltonian                  GFN1-xTB          :
         :: total energy             -83.599939462193 Eh    ::
         :: gradient norm              0.000687004950 Eh/a0 ::
         :: HOMO-LUMO gap              0.130508424633 eV    ::
         :: SCC energy               -84.321316197849 Eh    ::
         :: -> Gsolv                  -0.276265818051 Eh    ::
         :: repulsion energy           0.748469053570 Eh    ::

    * Orbital Energies and Occupations

         #    Occupation            Energy/Eh            Energy/eV
      -------------------------------------------------------------
         1        2.0000           -0.8274424             -22.5159
       ...           ...                  ...                  ...
        56        2.0000           -0.4368877             -11.8883
        57        2.0000           -0.4278831             -11.6433
        58        2.0000           -0.4232673             -11.5177
        59        2.0000           -0.4203267             -11.4377
        60        2.0000           -0.4154515             -11.3050
        61        2.0000           -0.4040936             -10.9959
        62        2.0000           -0.3979940             -10.8300
        63        2.0000           -0.3921731             -10.6716
        64        2.0000           -0.3713693             -10.1055
        65        2.0000           -0.3455435              -9.4027
        66        2.0000           -0.3201647              -8.7121
        67        2.0000           -0.3110022              -8.4628
        68        1.8516           -0.2783493              -7.5743 (HOMO)
        69        0.1484           -0.2735532              -7.4438 (LUMO)
        70                         -0.2361704              -6.4265
        71                         -0.2278773              -6.2009
        72                         -0.1568947              -4.2693
        73                         -0.1413865              -3.8473
        74                         -0.1299955              -3.5374
        75                         -0.1152696              -3.1366
        76                         -0.0919932              -2.5033
        77                         -0.0843512              -2.2953
        78                         -0.0763055              -2.0764
        79                         -0.0718580              -1.9554
       ...                                ...                  ...
       134                          0.7440856              20.2476
      -------------------------------------------------------------
                  HL-Gap            0.0047961 Eh            0.1305 eV

Wiberg/Mayer (AO) data.
largest (>0.10) Wiberg bond orders for each atom

     #   Z sym  total        # sym  WBO       # sym  WBO       # sym  WBO
 ---------------------------------------------------------------------------
     1   6 C    3.895 --    27 H    0.987    26 H    0.981    28 H    0.981
                             2 O    0.918
     2   8 O    2.160 --     3 C    1.020     1 C    0.918     4 O    0.108
     3   6 C    3.810 --     4 O    1.616     5 C    1.052     2 O    1.020
     4   8 O    1.880 --     3 C    1.616     2 O    0.108
     5   6 C    3.957 --     6 C    1.390    25 N    1.303     3 C    1.052
     6   6 C    3.767 --     5 C    1.390     8 C    1.028     7 O    0.995
                            25 N    0.159
     7   8 O    1.967 --     6 C    0.995    29 H    0.848
     8   6 C    3.936 --    10 N    1.418     9 O    1.398     6 C    1.028
     9   8 O    1.677 --     8 C    1.398    10 N    0.171
    10   7 N    2.844 --     8 C    1.418    11 C    1.002     9 O    0.171
    11   6 C    3.959 --    10 N    1.002    25 N    0.994    12 C    0.953
                            13 C    0.935
    12   6 C    3.974 --    32 H    0.986    30 H    0.986    31 H    0.985
                            11 C    0.953
    13   6 C    3.913 --    14 C    1.000    15 C    0.989    11 C    0.935
                            16 N    0.920
    14   6 C    3.996 --    13 C    1.000    34 H    0.986    33 H    0.983
                            35 H    0.982
    15   6 C    3.993 --    13 C    0.989    36 H    0.987    38 H    0.983
                            37 H    0.982
    16   7 N    3.346 --    17 C    1.263    13 C    0.920    39 H    0.889
                            18 O    0.165
    17   6 C    3.879 --    18 O    1.485    16 N    1.263    19 C    1.036
    18   8 O    1.781 --    17 C    1.485    16 N    0.165
    19   6 C    3.783 --    20 N    1.531    17 C    1.036    24 O    1.015
    20   7 N    2.870 --    19 C    1.531    21 N    1.186
    21   7 N    2.979 --    22 C    1.625    20 N    1.186
    22   6 C    3.846 --    21 N    1.625    24 O    1.062    23 C    1.027
    23   6 C    3.992 --    22 C    1.027    42 H    0.985    41 H    0.968
                            40 H    0.968
    24   8 O    2.261 --    22 C    1.062    19 C    1.015
    25   7 N    2.776 --     5 C    1.303    11 C    0.994     6 C    0.159
    26   1 H    1.014 --     1 C    0.981
    27   1 H    1.015 --     1 C    0.987
    28   1 H    1.015 --     1 C    0.981
    29   1 H    0.899 --     7 O    0.848
    30   1 H    1.016 --    12 C    0.986
    31   1 H    1.018 --    12 C    0.985
    32   1 H    1.015 --    12 C    0.986
    33   1 H    1.022 --    14 C    0.983
    34   1 H    1.010 --    14 C    0.986
    35   1 H    1.032 --    14 C    0.982
    36   1 H    1.012 --    15 C    0.987
    37   1 H    1.027 --    15 C    0.982
    38   1 H    1.027 --    15 C    0.983
    39   1 H    0.992 --    16 N    0.889
    40   1 H    0.999 --    23 C    0.968
    41   1 H    0.999 --    23 C    0.968
    42   1 H    1.002 --    23 C    0.985
 ---------------------------------------------------------------------------

           -------------------------------------------------
          | TOTAL ENERGY              -83.599939462193 Eh   |
          | GRADIENT NORM               0.000687004950 Eh/α |
          | HOMO-LUMO GAP               0.130508424633 eV   |
           -------------------------------------------------

 * finished run on 2023/06/20 at 17:44:58.335
