   * xtb version 6.5.1 (579679a) compiled by 'ehlert@majestix' on 2022-07-11
          program call               : /lustre/hpc/kemi/ree/PhD/git/ReactivityQM/dep/xtb-6.5.1/bin/xtb --gfn 1 /lustre/hpc/kemi/ree/PhD/git/ReactivityQM/calculations/RaltegravirCLI/reac01prodE01/conf02/RaltegravirCLI_reac01prodE01_conf02_gfn1.xyz --opt --vfukui --chrg -1 --uhf 0 --alpb DMSO

   ID    Z sym.   atoms
    1    6 C      1, 2, 5-7
    2    7 N      3, 4
    3    8 O      8, 10
    4   17 Cl     9
    5    1 H      11-16

      * Solvation model:               ALPB
        Solvent                        DMSO
        Solvent mass                       7.8130E+01 g/mol
          :  Hamiltonian                  GFN1-xTB          :
 * total energy  :   -34.1577950 Eh     change       -0.4895639E-11 Eh
 * total energy  :   -34.1695995 Eh     change       -0.1180453E-01 Eh
 * total energy  :   -34.1799131 Eh     change       -0.1031358E-01 Eh
 * total energy  :   -34.1834832 Eh     change       -0.3570081E-02 Eh
 * total energy  :   -34.1898675 Eh     change       -0.6384269E-02 Eh
 * total energy  :   -34.1955052 Eh     change       -0.5637705E-02 Eh
 * total energy  :   -34.1998960 Eh     change       -0.4390779E-02 Eh
 * total energy  :   -34.2021946 Eh     change       -0.2298615E-02 Eh
 * total energy  :   -34.2040066 Eh     change       -0.1812059E-02 Eh
 * total energy  :   -34.2040477 Eh     change       -0.4101618E-04 Eh
 * total energy  :   -34.2080921 Eh     change       -0.4429002E-04 Eh
 * total energy  :   -34.2081428 Eh     change       -0.5076535E-04 Eh
 * total energy  :   -34.2081908 Eh     change       -0.4799572E-04 Eh
 * total energy  :   -34.2082110 Eh     change       -0.2019850E-04 Eh
 * total energy  :   -34.2082228 Eh     change       -0.1173784E-04 Eh
 * total energy  :   -34.2082270 Eh     change       -0.4261462E-05 Eh
 * total energy  :   -34.2082328 Eh     change       -0.5793283E-05 Eh
 * total energy  :   -34.2082369 Eh     change       -0.4083531E-05 Eh
 * total energy  :   -34.2082416 Eh     change       -0.4675242E-05 Eh
   *** GEOMETRY OPTIMIZATION CONVERGED AFTER 42 ITERATIONS ***

 final structure:
================
16
 xtb: 6.5.1 (579679a)
C            3.22006040349978        0.33024644209193        0.31500267987083
C            1.79673802597820       -0.05945783454607        0.21806072425908
N            1.31381012266141       -1.25025733907862        0.01867659864803
N           -0.03690293263285       -1.12347292320494        0.00500323693113
C           -0.30343431024269        0.13631615966481        0.19446058249702
C           -1.64578956650027        0.75762040943313        0.27283726009141
C           -2.77290854652109       -0.20457434331810        0.05785564443554
O           -1.79317643876914        1.93863180421780        0.49014050890641
Cl          -2.21707541119172       -1.34419676514107       -3.36918533061401
O            0.83099651365180        0.85706875286353        0.33741563487949
H            3.36413258189777        1.00248048738090        1.15953514309555
H            3.52756951149758        0.85473510250228       -0.59050064365709
H            3.83621402474449       -0.55696742926076        0.43961379451953
H           -3.72086634192453        0.26643332198816        0.30415369964064
H           -2.62508392576726       -1.09954646308015        0.65843421710506
H           -2.77428271038164       -0.50506038251303       -0.99312675061559

          :  Hamiltonian                  GFN1-xTB          :
         :: total energy             -34.208241566302 Eh    ::
         :: gradient norm              0.000916245391 Eh/a0 ::
         :: HOMO-LUMO gap              3.359820665052 eV    ::
         :: SCC energy               -34.492675606763 Eh    ::
         :: -> Gsolv                  -0.110322193130 Eh    ::
         :: repulsion energy           0.291225355013 Eh    ::

    * Orbital Energies and Occupations

         #    Occupation            Energy/Eh            Energy/eV
      -------------------------------------------------------------
         1        2.0000           -0.8609114             -23.4266
       ...           ...                  ...                  ...
        16        2.0000           -0.5456578             -14.8481
        17        2.0000           -0.5413976             -14.7322
        18        2.0000           -0.5322567             -14.4834
        19        2.0000           -0.5210126             -14.1775
        20        2.0000           -0.5166027             -14.0575
        21        2.0000           -0.5033625             -13.6972
        22        2.0000           -0.4795804             -13.0500
        23        2.0000           -0.4741790             -12.9031
        24        2.0000           -0.4741700             -12.9028
        25        2.0000           -0.4721708             -12.8484
        26        2.0000           -0.4585770             -12.4785
        27        2.0000           -0.4539610             -12.3529
        28        2.0000           -0.4472776             -12.1710 (HOMO)
        29                         -0.3238064              -8.8112 (LUMO)
        30                         -0.2555338              -6.9534
        31                         -0.2094148              -5.6985
        32                         -0.1426548              -3.8818
        33                         -0.1222083              -3.3255
        34                         -0.0748513              -2.0368
        35                         -0.0739770              -2.0130
        36                         -0.0627251              -1.7068
        37                         -0.0476994              -1.2980
        38                          0.0347149               0.9446
        39                          0.0355561               0.9675
       ...                                ...                  ...
        57                          0.7123624              19.3844
      -------------------------------------------------------------
                  HL-Gap            0.1234711 Eh            3.3598 eV

Wiberg/Mayer (AO) data.
largest (>0.10) Wiberg bond orders for each atom

     #   Z sym  total        # sym  WBO       # sym  WBO       # sym  WBO
 ---------------------------------------------------------------------------
     1   6 C    3.987 --     2 C    1.031    13 H    0.981    11 H    0.969
                            12 H    0.958
     2   6 C    3.874 --     3 N    1.586    10 O    1.097     1 C    1.031
     3   7 N    2.983 --     2 C    1.586     4 N    1.220
     4   7 N    3.010 --     5 C    1.597     3 N    1.220
     5   6 C    3.871 --     4 N    1.597    10 O    1.049     6 C    1.012
     6   6 C    3.865 --     8 O    1.746     7 C    1.015     5 C    1.012
     7   6 C    3.990 --     6 C    1.015    14 H    0.982    15 H    0.967
                            16 H    0.936
     8   8 O    1.971 --     6 C    1.746
     9  17 Cl   0.040
    10   8 O    2.330 --     2 C    1.097     5 C    1.049
    11   1 H    0.997 --     1 C    0.969
    12   1 H    0.997 --     1 C    0.958
    13   1 H    0.999 --     1 C    0.981
    14   1 H    1.001 --     7 C    0.982
    15   1 H    1.005 --     7 C    0.967
    16   1 H    1.016 --     7 C    0.936
 ---------------------------------------------------------------------------

           -------------------------------------------------
          | TOTAL ENERGY              -34.208241566302 Eh   |
          | GRADIENT NORM               0.000916245391 Eh/α |
          | HOMO-LUMO GAP               3.359820665052 eV   |
           -------------------------------------------------

 * finished run on 2023/06/20 at 14:52:08.220
