                         Program Version 5.0.1 -  RELEASE  -
|  1> # ORCA input file
|  2> ! SP r2SCAN-3c CPCM
|  3>
|  4> %maxcore 1875.0
|  5> %pal nprocs 4 end
|  6> %cpcm smd true SMDsolvent "DMSO" end
|  7>
|  8> *xyz 0 1
|  9> C      -3.692251    3.431228   -1.416361
| 10> O      -3.507999    2.122703   -0.859525
| 11> C      -2.338845    1.874979   -0.299949
| 12> O      -1.429267    2.661610   -0.231303
| 13> C      -2.242265    0.458365    0.235775
| 14> C      -3.458686   -0.319917    0.602899
| 15> O      -4.529951    0.177651    0.836877
| 16> C      -3.228533   -1.829697    0.708913
| 17> O      -4.138743   -2.633238    0.703263
| 18> N      -1.931576   -2.192504    0.792574
| 19> C      -0.785054   -1.308957    0.866499
| 20> C      -0.367880   -1.148086    2.336930
| 21> C       0.363068   -1.872874   -0.035135
| 22> C       0.937156   -3.180908    0.511155
| 23> C      -0.162457   -2.059387   -1.463598
| 24> N       1.398124   -0.839876   -0.027740
| 25> C       2.568269   -0.943157   -0.690018
| 26> O       2.957759   -1.925267   -1.299690
| 27> C       3.381567    0.295740   -0.587283
| 28> N       4.538436    0.532308   -1.122599
| 29> N       4.892251    1.795623   -0.753883
| 30> C       3.929587    2.252993   -0.015300
| 31> C       3.840072    3.578651    0.634334
| 32> O       2.941447    1.354401    0.128179
| 33> N      -1.059881    0.002815    0.375854
| 34> H      -2.982877    3.588903   -2.231132
| 35> H      -4.713884    3.468552   -1.787761
| 36> H      -3.534659    4.188240   -0.645723
| 37> H      -1.763580   -3.168901    0.982748
| 38> H      -0.208855   -2.126563    2.782351
| 39> H       0.546552   -0.563515    2.403826
| 40> H      -1.162343   -0.636720    2.877205
| 41> H       1.657382   -3.585601   -0.198475
| 42> H       1.442725   -3.013577    1.460064
| 43> H       0.145399   -3.913288    0.651947
| 44> H       0.644848   -2.401954   -2.108971
| 45> H      -0.958852   -2.801007   -1.470771
| 46> H      -0.549968   -1.115705   -1.844771
| 47> H       1.127915    0.068393    0.322741
| 48> H       2.976509    4.123600    0.253883
| 49> H       3.714064    3.457723    1.709591
| 50> H       4.745278    4.146217    0.433159
| 51> **                         ****END OF INPUT****

CARTESIAN COORDINATES (ANGSTROEM)
---------------------------------
  C     -3.692251    3.431228   -1.416361
  O     -3.507999    2.122703   -0.859525
  C     -2.338845    1.874979   -0.299949
  O     -1.429267    2.661610   -0.231303
  C     -2.242265    0.458365    0.235775
  C     -3.458686   -0.319917    0.602899
  O     -4.529951    0.177651    0.836877
  C     -3.228533   -1.829697    0.708913
  O     -4.138743   -2.633238    0.703263
  N     -1.931576   -2.192504    0.792574
  C     -0.785054   -1.308957    0.866499
  C     -0.367880   -1.148086    2.336930
  C      0.363068   -1.872874   -0.035135
  C      0.937156   -3.180908    0.511155
  C     -0.162457   -2.059387   -1.463598
  N      1.398124   -0.839876   -0.027740
  C      2.568269   -0.943157   -0.690018
  O      2.957759   -1.925267   -1.299690
  C      3.381567    0.295740   -0.587283
  N      4.538436    0.532308   -1.122599
  N      4.892251    1.795623   -0.753883
  C      3.929587    2.252993   -0.015300
  C      3.840072    3.578651    0.634334
  O      2.941447    1.354401    0.128179
  N     -1.059881    0.002815    0.375854
  H     -2.982877    3.588903   -2.231132
  H     -4.713884    3.468552   -1.787761
  H     -3.534659    4.188240   -0.645723
  H     -1.763580   -3.168901    0.982748
  H     -0.208855   -2.126563    2.782351
  H      0.546552   -0.563515    2.403826
  H     -1.162343   -0.636720    2.877205
  H      1.657382   -3.585601   -0.198475
  H      1.442725   -3.013577    1.460064
  H      0.145399   -3.913288    0.651947
  H      0.644848   -2.401954   -2.108971
  H     -0.958852   -2.801007   -1.470771
  H     -0.549968   -1.115705   -1.844771
  H      1.127915    0.068393    0.322741
  H      2.976509    4.123600    0.253883
  H      3.714064    3.457723    1.709591
  H      4.745278    4.146217    0.433159

 Total Charge           Charge          ....    0
 Multiplicity           Mult            ....    1
 Number of Electrons    NEL             ....  184
 Basis Dimension        Dim             ....  615

ORBITAL ENERGIES
----------------

  NO   OCC          E(Eh)            E(eV)
   0   2.0000     -19.065475      -518.7979
   1   2.0000     -19.014271      -517.4046
   2   2.0000     -18.977381      -516.4008
   3   2.0000     -18.950229      -515.6619
   4   2.0000     -18.934167      -515.2249
   5   2.0000     -18.932189      -515.1711
   6   2.0000     -14.206791      -386.5864
   7   2.0000     -14.205551      -386.5527
   8   2.0000     -14.204218      -386.5164
   9   2.0000     -14.198315      -386.3558
  10   2.0000     -14.196850      -386.3159
  11   2.0000     -10.174046      -276.8499
  12   2.0000     -10.155706      -276.3508
  13   2.0000     -10.150370      -276.2056
  14   2.0000     -10.148234      -276.1475
  15   2.0000     -10.146927      -276.1119
  16   2.0000     -10.142132      -275.9814
  17   2.0000     -10.139469      -275.9090
  18   2.0000     -10.120514      -275.3932
  19   2.0000     -10.104015      -274.9442
  20   2.0000     -10.081751      -274.3384
  21   2.0000     -10.045072      -273.3403
  22   2.0000     -10.036122      -273.0968
  23   2.0000     -10.021761      -272.7060
  24   2.0000     -10.019743      -272.6511
  25   2.0000      -1.154819       -31.4242
  26   2.0000      -1.091670       -29.7059
  27   2.0000      -1.050591       -28.5880
  28   2.0000      -1.021973       -27.8093
  29   2.0000      -1.018151       -27.7053
  30   2.0000      -0.999789       -27.2057
  31   2.0000      -0.975383       -26.5415
  32   2.0000      -0.969300       -26.3760
  33   2.0000      -0.911965       -24.8158
  34   2.0000      -0.891255       -24.2523
  35   2.0000      -0.831365       -22.6226
  36   2.0000      -0.789384       -21.4802
  37   2.0000      -0.744156       -20.2495
  38   2.0000      -0.715332       -19.4652
  39   2.0000      -0.712691       -19.3933
  40   2.0000      -0.682373       -18.5683
  41   2.0000      -0.670511       -18.2455
  42   2.0000      -0.662942       -18.0396
  43   2.0000      -0.643663       -17.5150
  44   2.0000      -0.617032       -16.7903
  45   2.0000      -0.604935       -16.4611
  46   2.0000      -0.593452       -16.1487
  47   2.0000      -0.554865       -15.0986
  48   2.0000      -0.544502       -14.8167
  49   2.0000      -0.535092       -14.5606
  50   2.0000      -0.527916       -14.3653
  51   2.0000      -0.508732       -13.8433
  52   2.0000      -0.494304       -13.4507
  53   2.0000      -0.493454       -13.4276
  54   2.0000      -0.472629       -12.8609
  55   2.0000      -0.463295       -12.6069
  56   2.0000      -0.452868       -12.3232
  57   2.0000      -0.448649       -12.2084
  58   2.0000      -0.441428       -12.0119
  59   2.0000      -0.435439       -11.8489
  60   2.0000      -0.429536       -11.6883
  61   2.0000      -0.420716       -11.4483
  62   2.0000      -0.412995       -11.2382
  63   2.0000      -0.410722       -11.1763
  64   2.0000      -0.404783       -11.0147
  65   2.0000      -0.400311       -10.8930
  66   2.0000      -0.397417       -10.8143
  67   2.0000      -0.391279       -10.6472
  68   2.0000      -0.384241       -10.4557
  69   2.0000      -0.381122       -10.3709
  70   2.0000      -0.376671       -10.2497
  71   2.0000      -0.371628       -10.1125
  72   2.0000      -0.365701        -9.9512
  73   2.0000      -0.361155        -9.8275
  74   2.0000      -0.351268        -9.5585
  75   2.0000      -0.348033        -9.4704
  76   2.0000      -0.344054        -9.3622
  77   2.0000      -0.336288        -9.1509
  78   2.0000      -0.330373        -8.9899
  79   2.0000      -0.322628        -8.7791
  80   2.0000      -0.314270        -8.5517
  81   2.0000      -0.310893        -8.4598
  82   2.0000      -0.303258        -8.2521
  83   2.0000      -0.285409        -7.7664
  84   2.0000      -0.267187        -7.2705
  85   2.0000      -0.264519        -7.1979
  86   2.0000      -0.261968        -7.1285
  87   2.0000      -0.259936        -7.0732
  88   2.0000      -0.251418        -6.8414
  89   2.0000      -0.245190        -6.6720
  90   2.0000      -0.239845        -6.5265
  91   2.0000      -0.223523        -6.0824
  92   0.0000      -0.140754        -3.8301
  93   0.0000      -0.085104        -2.3158
  94   0.0000      -0.080682        -2.1955
  95   0.0000      -0.019794        -0.5386
  96   0.0000       0.003337         0.0908

MULLIKEN ATOMIC CHARGES
-----------------------
   0 C :   -0.312497
   1 O :   -0.144904
   2 C :    0.185560
   3 O :   -0.397561
   4 C :    0.342077
   5 C :    0.176968
   6 O :   -0.291266
   7 C :    0.082770
   8 O :   -0.390509
   9 N :    0.042221
  10 C :   -0.161033
  11 C :   -0.510142
  12 C :    0.124965
  13 C :   -0.608507
  14 C :   -0.672828
  15 N :   -0.037184
  16 C :   -0.106926
  17 O :   -0.440880
  18 C :    0.422177
  19 N :   -0.181886
  20 N :   -0.279483
  21 C :    0.398765
  22 C :   -0.636926
  23 O :   -0.057951
  24 N :   -0.083483
  25 H :    0.180555
  26 H :    0.181504
  27 H :    0.181246
  28 H :    0.302722
  29 H :    0.201494
  30 H :    0.197256
  31 H :    0.193513
  32 H :    0.207644
  33 H :    0.193409
  34 H :    0.182673
  35 H :    0.201354
  36 H :    0.198024
  37 H :    0.193538
  38 H :    0.316351
  39 H :    0.201808
  40 H :    0.200376
  41 H :    0.204998
Sum of atomic charges:    0.0000000

LOEWDIN ATOMIC CHARGES
----------------------
   0 C :   -0.031699
   1 O :   -0.558773
   2 C :    0.397902
   3 O :   -0.388736
   4 C :    0.269856
   5 C :    0.329788
   6 O :   -0.364691
   7 C :    0.358208
   8 O :   -0.431694
   9 N :   -0.525142
  10 C :    0.246271
  11 C :   -0.286903
  12 C :    0.112132
  13 C :   -0.348679
  14 C :   -0.340831
  15 N :   -0.587966
  16 C :    0.381085
  17 O :   -0.462726
  18 C :    0.415784
  19 N :   -0.336970
  20 N :   -0.361998
  21 C :    0.378417
  22 C :   -0.317615
  23 O :   -0.393157
  24 N :   -0.514315
  25 H :    0.185311
  26 H :    0.188956
  27 H :    0.186356
  28 H :    0.300307
  29 H :    0.183451
  30 H :    0.181569
  31 H :    0.182328
  32 H :    0.187847
  33 H :    0.177025
  34 H :    0.170953
  35 H :    0.179780
  36 H :    0.177192
  37 H :    0.179207
  38 H :    0.307767
  39 H :    0.191920
  40 H :    0.191398
  41 H :    0.191085

  Mayer bond orders larger than 0.100000
B(  0-C ,  1-O ) :   0.8295 B(  0-C , 25-H ) :   0.9520 B(  0-C , 26-H ) :   0.9612
B(  0-C , 27-H ) :   0.9516 B(  1-O ,  2-C ) :   1.1488 B(  2-C ,  3-O ) :   1.9161
B(  2-C ,  4-C ) :   0.9573 B(  4-C ,  5-C ) :   0.8467 B(  4-C , 24-N ) :   1.5660
B(  5-C ,  6-O ) :   1.9778 B(  5-C ,  7-C ) :   0.8632 B(  7-C ,  8-O ) :   2.0262
B(  7-C ,  9-N ) :   1.1456 B(  9-N , 10-C ) :   0.8058 B(  9-N , 28-H ) :   0.8875
B( 10-C , 11-C ) :   1.0277 B( 10-C , 12-C ) :   0.8167 B( 10-C , 24-N ) :   0.8510
B( 11-C , 29-H ) :   0.9438 B( 11-C , 30-H ) :   0.9431 B( 11-C , 31-H ) :   0.9464
B( 12-C , 13-C ) :   0.9215 B( 12-C , 14-C ) :   0.8710 B( 12-C , 15-N ) :   0.9018
B( 13-C , 32-H ) :   0.9562 B( 13-C , 33-H ) :   0.9639 B( 13-C , 34-H ) :   0.9586
B( 14-C , 35-H ) :   0.9682 B( 14-C , 36-H ) :   0.9574 B( 14-C , 37-H ) :   0.9694
B( 15-N , 16-C ) :   1.1585 B( 15-N , 38-H ) :   0.8528 B( 16-C , 17-O ) :   1.9258
B( 16-C , 18-C ) :   0.8287 B( 17-O , 18-C ) :  -0.1093 B( 18-C , 19-N ) :   1.7106
B( 18-C , 21-C ) :   0.1047 B( 18-C , 23-O ) :   1.0759 B( 19-N , 20-N ) :   1.2765
B( 20-N , 21-C ) :   1.6340 B( 21-C , 22-C ) :   0.8308 B( 21-C , 23-O ) :   1.0671
B( 22-C , 39-H ) :   0.9400 B( 22-C , 40-H ) :   0.9438 B( 22-C , 41-H ) :   0.9894

Dispersion correction           -0.019568338
FINAL SINGLE POINT ENERGY     -1268.631667790219

DIPOLE MOMENT
-------------
                                X             Y             Z
Electronic contribution:     -3.19444       1.97658      -1.45903
Nuclear contribution   :      2.24171      -0.64547       3.42460
                        -----------------------------------------
Total Dipole Moment    :     -0.95273       1.33111       1.96556
                        -----------------------------------------
Magnitude (a.u.)       :      2.55793
Magnitude (Debye)      :      6.50173

Rotational constants in cm-1:     0.010476     0.004947     0.003743
Rotational constants in MHz :   314.057530   148.310770   112.207650

                             ****ORCA TERMINATED NORMALLY****
TOTAL RUN TIME: 0 days 0 hours 1 minutes 31 seconds 467 msec
