   * xtb version 6.5.1 (579679a) compiled by 'ehlert@majestix' on 2022-07-11
          program call               : /lustre/hpc/kemi/ree/PhD/git/ReactivityQM/dep/xtb-6.5.1/bin/xtb --gfn 1 /lustre/hpc/kemi/ree/PhD/git/ReactivityQM/calculations/R02oxygendeprot/reac01prodN10/conf14/R02oxygendeprot_reac01prodN10_conf14_gfn1.xyz --opt --vfukui --chrg 0 --uhf 0 --alpb DMSO

   ID    Z sym.   atoms
    1    6 C      1, 3, 5, 6, 8, 11-15, 17, 19, 22, 23
    2    8 O      2, 4, 7, 9, 18, 24
    3    7 N      10, 16, 20, 21, 25
    4    1 H      26-42

      * Solvation model:               ALPB
        Solvent                        DMSO
        Solvent mass                       7.8130E+01 g/mol
          :  Hamiltonian                  GFN1-xTB          :
 * total energy  :   -82.9662513 Eh     change       -0.1524825E-10 Eh
 * total energy  :   -82.9771410 Eh     change       -0.1088974E-01 Eh
 * total energy  :   -82.9816337 Eh     change       -0.4492682E-02 Eh
 * total energy  :   -82.9824665 Eh     change       -0.8327457E-03 Eh
 * total energy  :   -82.9831718 Eh     change       -0.7053860E-03 Eh
 * total energy  :   -82.9837165 Eh     change       -0.5446578E-03 Eh
 * total energy  :   -82.9842136 Eh     change       -0.4970556E-03 Eh
 * total energy  :   -82.9845540 Eh     change       -0.3403968E-03 Eh
 * total energy  :   -82.9847582 Eh     change       -0.2042933E-03 Eh
 * total energy  :   -82.9848925 Eh     change       -0.1342718E-03 Eh
 * total energy  :   -82.9855527 Eh     change       -0.7519568E-05 Eh
 * total energy  :   -82.9855609 Eh     change       -0.8133910E-05 Eh
 * total energy  :   -82.9855678 Eh     change       -0.6935986E-05 Eh
 * total energy  :   -82.9855735 Eh     change       -0.5733587E-05 Eh
 * total energy  :   -82.9855767 Eh     change       -0.3185029E-05 Eh
 * total energy  :   -82.9855811 Eh     change       -0.4356940E-05 Eh
 * total energy  :   -82.9855881 Eh     change       -0.7071544E-05 Eh
 * total energy  :   -82.9855931 Eh     change       -0.4960881E-05 Eh
 * total energy  :   -82.9855953 Eh     change       -0.2165151E-05 Eh
   *** GEOMETRY OPTIMIZATION CONVERGED AFTER 39 ITERATIONS ***

 final structure:
================
42
 xtb: 6.5.1 (579679a)
C           -3.69225135739842        3.43122833270262       -1.41636076875375
O           -3.50799900205017        2.12270317645774       -0.85952470930443
C           -2.33884535134757        1.87497943952798       -0.29994859348138
O           -1.42926663677763        2.66160963438102       -0.23130336039889
C           -2.24226538655980        0.45836538506584        0.23577503441038
C           -3.45868569556655       -0.31991688422749        0.60289945773207
O           -4.52995138465442        0.17765075749962        0.83687710936008
C           -3.22853318572826       -1.82969738670788        0.70891289316356
O           -4.13874344471949       -2.63323799950748        0.70326267977498
N           -1.93157633526738       -2.19250440245890        0.79257376523273
C           -0.78505416740202       -1.30895658074177        0.86649933402650
C           -0.36787974907090       -1.14808589771817        2.33692971479560
C            0.36306824353365       -1.87287431303847       -0.03513503538554
C            0.93715630976829       -3.18090780753485        0.51115528036890
C           -0.16245731912683       -2.05938715706518       -1.46359831202985
N            1.39812418931987       -0.83987618907015       -0.02773985767052
C            2.56826883677687       -0.94315665014786       -0.69001783281858
O            2.95775929829675       -1.92526679551858       -1.29968970380992
C            3.38156718305130        0.29573966517613       -0.58728274681083
N            4.53843629107902        0.53230810531969       -1.12259926812617
N            4.89225098843524        1.79562348518734       -0.75388316835580
C            3.92958657885888        2.25299341181520       -0.01529965759046
C            3.84007221319486        3.57865108133593        0.63433424438997
O            2.94144743565548        1.35440104330285        0.12817890640360
N           -1.05988125525079        0.00281489661285        0.37585370075303
H           -2.98287710665062        3.58890320448763       -2.23113174648748
H           -4.71388380920523        3.46855247358403       -1.78776116575946
H           -3.53465940737632        4.18823950019469       -0.64572331893813
H           -1.76358014411245       -3.16890141062467        0.98274844318651
H           -0.20885504457157       -2.12656311689547        2.78235141581266
H            0.54655157354272       -0.56351514243402        2.40382576714634
H           -1.16234264040676       -0.63671957210384        2.87720522374151
H            1.65738167051262       -3.58560116270593       -0.19847507306895
H            1.44272516604138       -3.01357686463342        1.46006437022233
H            0.14539943345285       -3.91328815510112        0.65194667335125
H            0.64484813041877       -2.40195352243179       -2.10897117528846
H           -0.95885171638075       -2.80100740300284       -1.47077083749281
H           -0.54996786099454       -1.11570454274545       -1.84477127987824
H            1.12791457814078        0.06839262505054        0.32274054608997
H            2.97650872403849        4.12359958488145        0.25388260868212
H            3.71406427341344        3.45772342739743        1.70959089658951
H            4.74527788306880        4.14621672644030        0.43315854619892

          :  Hamiltonian                  GFN1-xTB          :
         :: total energy             -82.985595270501 Eh    ::
         :: gradient norm              0.000757139453 Eh/a0 ::
         :: HOMO-LUMO gap              1.746861631377 eV    ::
         :: SCC energy               -83.767223058625 Eh    ::
         :: -> Gsolv                  -0.056769924172 Eh    ::
         :: repulsion energy           0.809085317216 Eh    ::

    * Orbital Energies and Occupations

         #    Occupation            Energy/Eh            Energy/eV
      -------------------------------------------------------------
         1        2.0000           -0.8660484             -23.5664
       ...           ...                  ...                  ...
        55        2.0000           -0.5059160             -13.7667
        56        2.0000           -0.5058093             -13.7638
        57        2.0000           -0.5045994             -13.7308
        58        2.0000           -0.5009791             -13.6323
        59        2.0000           -0.4954123             -13.4809
        60        2.0000           -0.4813308             -13.0977
        61        2.0000           -0.4808253             -13.0839
        62        2.0000           -0.4700013             -12.7894
        63        2.0000           -0.4641246             -12.6295
        64        2.0000           -0.4600904             -12.5197
        65        2.0000           -0.4524960             -12.3130
        66        2.0000           -0.4483738             -12.2009
        67        2.0000           -0.4382903             -11.9265 (HOMO)
        68                         -0.3740943             -10.1796 (LUMO)
        69                         -0.3190484              -8.6818
        70                         -0.3114631              -8.4753
        71                         -0.2574390              -7.0053
        72                         -0.2505842              -6.8187
        73                         -0.2018378              -5.4923
        74                         -0.1994380              -5.4270
        75                         -0.1429739              -3.8905
        76                         -0.1425655              -3.8794
        77                         -0.1415647              -3.8522
        78                         -0.1372873              -3.7358
       ...                                ...                  ...
       134                          0.7686128              20.9150
      -------------------------------------------------------------
                  HL-Gap            0.0641960 Eh            1.7469 eV

Wiberg/Mayer (AO) data.
largest (>0.10) Wiberg bond orders for each atom

     #   Z sym  total        # sym  WBO       # sym  WBO       # sym  WBO
 ---------------------------------------------------------------------------
     1   6 C    3.859 --    27 H    0.985    28 H    0.979    26 H    0.979
                             2 O    0.884
     2   8 O    2.226 --     3 C    1.148     1 C    0.884     4 O    0.147
     3   6 C    3.854 --     4 O    1.685     2 O    1.148     5 C    0.944
     4   8 O    1.949 --     3 C    1.685     2 O    0.147
     5   6 C    3.952 --    25 N    1.786     6 C    0.996     3 C    0.944
     6   6 C    3.857 --     7 O    1.802     5 C    0.996     8 C    0.908
     7   8 O    2.009 --     6 C    1.802
     8   6 C    3.903 --     9 O    1.634    10 N    1.247     6 C    0.908
     9   8 O    1.927 --     8 C    1.634    10 N    0.185
    10   7 N    3.365 --     8 C    1.247    11 C    0.940    29 H    0.883
                             9 O    0.185
    11   6 C    3.913 --    25 N    1.005    12 C    0.947    10 N    0.940
                            13 C    0.924
    12   6 C    3.982 --    32 H    0.982    31 H    0.981    30 H    0.980
                            11 C    0.947
    13   6 C    3.928 --    14 C    0.999    15 C    0.991    16 N    0.934
                            11 C    0.924
    14   6 C    3.988 --    13 C    0.999    34 H    0.982    35 H    0.981
                            33 H    0.974
    15   6 C    3.989 --    13 C    0.991    37 H    0.984    38 H    0.984
                            36 H    0.980
    16   7 N    3.350 --    17 C    1.256    13 C    0.934    39 H    0.886
                            18 O    0.176
    17   6 C    3.917 --    18 O    1.586    16 N    1.256    19 C    0.991
    18   8 O    1.903 --    17 C    1.586    16 N    0.176
    19   6 C    3.872 --    20 N    1.623    24 O    1.047    17 C    0.991
    20   7 N    2.999 --    19 C    1.623    21 N    1.198
    21   7 N    2.981 --    22 C    1.611    20 N    1.198
    22   6 C    3.869 --    21 N    1.611    24 O    1.073    23 C    1.032
    23   6 C    3.986 --    22 C    1.032    42 H    0.982    41 H    0.964
                            40 H    0.962
    24   8 O    2.317 --    22 C    1.073    19 C    1.047
    25   7 N    3.062 --     5 C    1.786    11 C    1.005
    26   1 H    1.004 --     1 C    0.979
    27   1 H    1.008 --     1 C    0.985
    28   1 H    1.004 --     1 C    0.979
    29   1 H    0.929 --    10 N    0.883
    30   1 H    0.999 --    12 C    0.980
    31   1 H    0.998 --    12 C    0.981
    32   1 H    0.999 --    12 C    0.982
    33   1 H    1.008 --    14 C    0.974
    34   1 H    1.001 --    14 C    0.982
    35   1 H    0.998 --    14 C    0.981
    36   1 H    1.006 --    15 C    0.980
    37   1 H    1.003 --    15 C    0.984
    38   1 H    1.004 --    15 C    0.984
    39   1 H    0.956 --    16 N    0.886
    40   1 H    0.997 --    23 C    0.962
    41   1 H    0.997 --    23 C    0.964
    42   1 H    0.998 --    23 C    0.982
 ---------------------------------------------------------------------------

           -------------------------------------------------
          | TOTAL ENERGY              -82.985595270501 Eh   |
          | GRADIENT NORM               0.000757139453 Eh/α |
          | HOMO-LUMO GAP               1.746861631377 eV   |
           -------------------------------------------------

 * finished run on 2023/06/21 at 17:25:40.182
