   * xtb version 6.5.1 (579679a) compiled by 'ehlert@majestix' on 2022-07-11
          program call               : /lustre/hpc/kemi/ree/PhD/git/ReactivityQM/dep/xtb-6.5.1/bin/xtb --gfn 1 /lustre/hpc/kemi/ree/PhD/git/ReactivityQM/calculations/R02methylcation/reac01prodE14/conf08/R02methylcation_reac01prodE14_conf08_gfn1.xyz --opt --vfukui --chrg -2 --uhf 0 --alpb DMSO

   ID    Z sym.   atoms
    1    6 C      1, 3, 5, 7-10, 12, 14, 17, 18, 21, 23, 24
    2    8 O      2, 4, 13, 19, 22, 25
    3    7 N      6, 11, 15, 16, 20
    4    1 H      26-42

      * Solvation model:               ALPB
        Solvent                        DMSO
        Solvent mass                       7.8130E+01 g/mol
          :  Hamiltonian                  GFN1-xTB          :
 * total energy  :   -83.5851344 Eh     change       -0.2010836E-10 Eh
 * total energy  :   -83.6010620 Eh     change       -0.1592761E-01 Eh
 * total energy  :   -83.6074965 Eh     change       -0.6434488E-02 Eh
 * total energy  :   -83.6086479 Eh     change       -0.1151370E-02 Eh
 * total energy  :   -83.6092354 Eh     change       -0.5874984E-03 Eh
 * total energy  :   -83.6095047 Eh     change       -0.2692879E-03 Eh
 * total energy  :   -83.6097391 Eh     change       -0.2344850E-03 Eh
 * total energy  :   -83.6099271 Eh     change       -0.1879248E-03 Eh
 * total energy  :   -83.6100667 Eh     change       -0.1396685E-03 Eh
 * total energy  :   -83.6101822 Eh     change       -0.1154176E-03 Eh
 * total energy  :   -83.6109779 Eh     change       -0.9952229E-05 Eh
 * total energy  :   -83.6109868 Eh     change       -0.8897228E-05 Eh
 * total energy  :   -83.6109956 Eh     change       -0.8805483E-05 Eh
 * total energy  :   -83.6110051 Eh     change       -0.9424278E-05 Eh
 * total energy  :   -83.6110114 Eh     change       -0.6325279E-05 Eh
 * total energy  :   -83.6110175 Eh     change       -0.6103231E-05 Eh
 * total energy  :   -83.6110247 Eh     change       -0.7195602E-05 Eh
 * total energy  :   -83.6110310 Eh     change       -0.6291316E-05 Eh
 * total energy  :   -83.6110358 Eh     change       -0.4815554E-05 Eh
   *** GEOMETRY OPTIMIZATION CONVERGED AFTER 41 ITERATIONS ***

 final structure:
================
42
 xtb: 6.5.1 (579679a)
C           -6.01947802947990        1.72340415599238        0.47596605742150
O           -5.04077004532192        0.85791549020829       -0.05448358341131
C           -3.80823539733800        0.86921734580884        0.62378826047164
O           -3.70020505510319        1.63136144065223        1.60992988180724
C           -2.81144470163452        0.03652592818375        0.08924753606257
N           -1.65873704339692        0.02368681445609        0.84225075554332
C           -0.62544253193039       -0.65662373278366        0.50785809479782
C            0.60824566415707       -0.69846118875993        1.38386103619937
C            0.85734337551982       -2.13122327523868        1.88022091315995
C            0.44097101620835        0.26664562308563        2.56225630187737
N            1.75437298828456       -0.26480385780435        0.55597367056094
C            3.02636295852657       -0.18067422525236        0.98613058663276
O            3.43528806629054       -0.50419486740931        2.09618820592486
C            3.90641106078774        0.35723086464414       -0.07901675185310
N            3.52580096523335        0.73399751768750       -1.26834291730436
N            4.64662898931429        1.15150205696998       -1.92667019151613
C            5.63598987515660        1.00486288014436       -1.10287304547892
C            7.06359625893366        1.31113581507816       -1.34562033992570
O            5.24016375998800        0.50939218249613        0.08201504475352
N           -0.55739865932469       -1.38307901650054       -0.70073490157545
C           -1.55731616324850       -1.28718180119178       -1.63213082888723
O           -1.30185204895847       -1.58013808137256       -2.80684916663805
C           -2.99066741438405       -1.00659094824388       -1.06111342473956
C           -3.80450222161794       -0.38205089402793       -2.24872853602127
O           -3.48213695352041       -2.18582617591837       -0.64496555539820
H           -6.91531751333201        1.62589336307276       -0.14025108078318
H           -6.26927981006560        1.46319037643900        1.51332157075586
H           -5.68519317824307        2.76907652286608        0.45680221662006
H           -0.01086993213274       -2.47305649367191        2.44330346592375
H            1.73187504057917       -2.17188538733631        2.52657601479488
H            1.01444541338107       -2.79803673471207        1.03342328606734
H            1.29710801370577        0.20838925615756        3.23147460857532
H            0.34345090761849        1.28766665532359        2.19362773520501
H           -0.46299409571109        0.00852324768759        3.11376716915969
H            1.55840002827051        0.09424993095781       -0.36817460127516
H            7.41815665123766        2.04636542763960       -0.62395303644162
H            7.66388152532073        0.40918466484943       -1.23006826343773
H            7.18711922995850        1.70189974404867       -2.35230777425236
H            0.35161103236148       -1.64643812207481       -1.04228630851874
H           -3.53993826466620        0.66413743957708       -2.40839756930269
H           -3.59498616424392       -0.94392416328359       -3.16053700740487
H           -4.87045859717700       -0.46126777844850       -2.04387352815335

          :  Hamiltonian                  GFN1-xTB          :
         :: total energy             -83.611035801727 Eh    ::
         :: gradient norm              0.000524214598 Eh/a0 ::
         :: HOMO-LUMO gap              0.159066319008 eV    ::
         :: SCC energy               -84.345781242966 Eh    ::
         :: -> Gsolv                  -0.299615271707 Eh    ::
         :: repulsion energy           0.760410960609 Eh    ::

    * Orbital Energies and Occupations

         #    Occupation            Energy/Eh            Energy/eV
      -------------------------------------------------------------
         1        2.0000           -0.8469559             -23.0468
       ...           ...                  ...                  ...
        56        2.0000           -0.4426504             -12.0451
        57        2.0000           -0.4370813             -11.8936
        58        2.0000           -0.4318943             -11.7524
        59        2.0000           -0.4255564             -11.5800
        60        2.0000           -0.4222300             -11.4895
        61        2.0000           -0.4165816             -11.3358
        62        2.0000           -0.4004383             -10.8965
        63        2.0000           -0.3928898             -10.6911
        64        2.0000           -0.3842529             -10.4561
        65        2.0000           -0.3706337             -10.0855
        66        2.0000           -0.3083166              -8.3897
        67        1.9962           -0.3010498              -8.1920
        68        1.9137           -0.2980411              -8.1101 (HOMO)
        69        0.0901           -0.2921956              -7.9510 (LUMO)
        70                         -0.2433962              -6.6231
        71                         -0.2128616              -5.7923
        72                         -0.1785949              -4.8598
        73                         -0.1729968              -4.7075
        74                         -0.1369052              -3.7254
        75                         -0.1142310              -3.1084
        76                         -0.1043899              -2.8406
        77                         -0.1018172              -2.7706
        78                         -0.0998629              -2.7174
        79                         -0.0856570              -2.3308
       ...                                ...                  ...
       134                          0.7277191              19.8022
      -------------------------------------------------------------
                  HL-Gap            0.0058456 Eh            0.1591 eV

Wiberg/Mayer (AO) data.
largest (>0.10) Wiberg bond orders for each atom

     #   Z sym  total        # sym  WBO       # sym  WBO       # sym  WBO
 ---------------------------------------------------------------------------
     1   6 C    3.922 --    26 H    0.987    27 H    0.980    28 H    0.980
                             2 O    0.953
     2   8 O    2.083 --     1 C    0.953     3 C    0.933
     3   6 C    3.845 --     4 O    1.445     5 C    1.330     2 O    0.933
     4   8 O    1.741 --     3 C    1.445     5 C    0.106
     5   6 C    3.813 --     3 C    1.330     6 N    1.189    23 C    0.917
                             4 O    0.106
     6   7 N    3.048 --     7 C    1.617     5 C    1.189
     7   6 C    3.886 --     6 N    1.617    20 N    1.003     8 C    0.979
     8   6 C    3.923 --    10 C    0.994     9 C    0.986     7 C    0.979
                            11 N    0.899
     9   6 C    3.990 --    29 H    0.986     8 C    0.986    31 H    0.985
                            30 H    0.982
    10   6 C    3.994 --     8 C    0.994    33 H    0.986    32 H    0.985
                            34 H    0.984
    11   7 N    3.337 --    12 C    1.265    35 H    0.901     8 C    0.899
                            13 O    0.176
    12   6 C    3.892 --    13 O    1.550    11 N    1.265    14 C    1.000
    13   8 O    1.856 --    12 C    1.550    11 N    0.176
    14   6 C    3.829 --    15 N    1.581    19 O    1.048    12 C    1.000
    15   7 N    2.965 --    14 C    1.581    16 N    1.190
    16   7 N    2.980 --    17 C    1.618    15 N    1.190
    17   6 C    3.864 --    16 N    1.618    19 O    1.076    18 C    1.029
    18   6 C    3.989 --    17 C    1.029    38 H    0.984    36 H    0.966
                            37 H    0.966
    19   8 O    2.300 --    17 C    1.076    14 C    1.048
    20   7 N    3.346 --    21 C    1.171     7 C    1.003    39 H    0.915
                            22 O    0.116
    21   6 C    3.814 --    22 O    1.562    20 N    1.171    23 C    0.882
    22   8 O    1.830 --    21 C    1.562    20 N    0.116
    23   6 C    3.963 --    25 O    1.120    24 C    0.945     5 C    0.917
                            21 C    0.882
    24   6 C    3.988 --    40 H    0.991    42 H    0.987    41 H    0.985
                            23 C    0.945
    25   8 O    1.414 --    23 C    1.120
    26   1 H    1.020 --     1 C    0.987
    27   1 H    1.022 --     1 C    0.980
    28   1 H    1.022 --     1 C    0.980
    29   1 H    1.007 --     9 C    0.986
    30   1 H    1.014 --     9 C    0.982
    31   1 H    1.008 --     9 C    0.985
    32   1 H    1.012 --    10 C    0.985
    33   1 H    1.015 --    10 C    0.986
    34   1 H    1.019 --    10 C    0.984
    35   1 H    0.964 --    11 N    0.901
    36   1 H    0.998 --    18 C    0.966
    37   1 H    0.998 --    18 C    0.966
    38   1 H    1.000 --    18 C    0.984
    39   1 H    0.967 --    20 N    0.915
    40   1 H    1.017 --    24 C    0.991
    41   1 H    1.026 --    24 C    0.985
    42   1 H    1.034 --    24 C    0.987
 ---------------------------------------------------------------------------

           -------------------------------------------------
          | TOTAL ENERGY              -83.611035801727 Eh   |
          | GRADIENT NORM               0.000524214598 Eh/α |
          | HOMO-LUMO GAP               0.159066319008 eV   |
           -------------------------------------------------

 * finished run on 2023/06/21 at 17:28:50.700
