   * xtb version 6.5.1 (579679a) compiled by 'ehlert@majestix' on 2022-07-11
          program call               : /lustre/hpc/kemi/ree/PhD/git/ReactivityQM/dep/xtb-6.5.1/bin/xtb --gfn 1 /lustre/hpc/kemi/ree/PhD/git/ReactivityQM/calculations/R02/reac01prodN01/conf06/R02_reac01prodN01_conf06_gfn1.xyz --opt --vfukui --chrg 1 --uhf 0 --alpb DMSO

   ID    Z sym.   atoms
    1    6 C      1, 3, 5, 7-10, 12, 14, 17, 18, 20, 22, 24
    2    8 O      2, 4, 13, 19, 23, 25
    3    7 N      6, 11, 15, 16, 21
    4    1 H      26-43

      * Solvation model:               ALPB
        Solvent                        DMSO
        Solvent mass                       7.8130E+01 g/mol
          :  Hamiltonian                  GFN1-xTB          :
 * total energy  :   -83.0785052 Eh     change       -0.3865352E-11 Eh
 * total energy  :   -83.0977367 Eh     change       -0.1923151E-01 Eh
 * total energy  :   -83.1071049 Eh     change       -0.9368164E-02 Eh
 * total energy  :   -83.1099711 Eh     change       -0.2866257E-02 Eh
 * total energy  :   -83.1117451 Eh     change       -0.1774006E-02 Eh
 * total energy  :   -83.1125717 Eh     change       -0.8265603E-03 Eh
 * total energy  :   -83.1131345 Eh     change       -0.5627911E-03 Eh
 * total energy  :   -83.1136028 Eh     change       -0.4683315E-03 Eh
 * total energy  :   -83.1139745 Eh     change       -0.3716419E-03 Eh
 * total energy  :   -83.1142249 Eh     change       -0.2504383E-03 Eh
 * total energy  :   -83.1159477 Eh     change       -0.9819671E-04 Eh
 * total energy  :   -83.1160281 Eh     change       -0.8038612E-04 Eh
 * total energy  :   -83.1161062 Eh     change       -0.7811058E-04 Eh
 * total energy  :   -83.1161292 Eh     change       -0.2303232E-04 Eh
 * total energy  :   -83.1161547 Eh     change       -0.2545542E-04 Eh
 * total energy  :   -83.1161719 Eh     change       -0.1721149E-04 Eh
 * total energy  :   -83.1161845 Eh     change       -0.1262133E-04 Eh
 * total energy  :   -83.1161899 Eh     change       -0.5403035E-05 Eh
 * total energy  :   -83.1161937 Eh     change       -0.3816426E-05 Eh
   *** GEOMETRY OPTIMIZATION CONVERGED AFTER 33 ITERATIONS ***

 final structure:
================
43
 xtb: 6.5.1 (579679a)
C            6.81478371329582        1.34984876787931        0.14812452729137
O            5.64179326287811        0.52436312334193        0.23684807979341
C            4.55249449498118        0.98508490191042       -0.39179611676997
O            4.53714752666953        2.02958852631527       -0.99689565420056
C            3.37350375763323        0.08207686731089       -0.26721098414502
N            2.26039389135713        0.57510498800337       -0.90698331108104
C            1.16020392622280       -0.09248737178311       -0.88913867563375
C           -0.04504186077634        0.46230110181086       -1.63283614483753
C           -0.53770783158082       -0.52883961614620       -2.69251794645543
C            0.33055717704929        1.79243400480855       -2.28767821448949
N           -1.12916805005696        0.76098082587631       -0.67036509418737
C           -1.90888508063964       -0.14344643557688       -0.07881637098169
O           -1.80734104661569       -1.35750528602827       -0.12911092218614
C           -2.99190655919399        0.50613298212131        0.72004577959631
N           -3.19737583354399        1.74622609099195        0.95585070617980
N           -4.31553230585869        1.86801571053915        1.73252140565740
C           -4.78882051664737        0.70362570658880        1.96660025050623
C           -5.97831596780487        0.31804835464735        2.74092053434003
O           -3.98074549538479       -0.25493680316465        1.34301648958344
C           -4.11068893863905       -1.71507486354512        1.32054468305531
N            1.05506753407787       -1.29409307926034       -0.25898192934387
C            2.08803701003528       -1.89531204988902        0.43331049710403
O            1.92973651516216       -2.96170296090581        0.99839306099138
C            3.33638776570207       -1.11739944486037        0.39726908169982
O            4.35401209224982       -1.68509059879449        1.04895106095354
H            6.59871265250668        2.34354641916250        0.54616698361762
H            7.58469411447905        0.86139794179425        0.74009306556803
H            7.12915278096146        1.43375513979708       -0.89433114417781
H           -0.78497295696293       -1.49208687839498       -2.25409195601367
H           -1.42346189633780       -0.12740847798975       -3.18122259949989
H            0.24642089541662       -0.67181833764202       -3.43490141848762
H            1.12472864252411        1.62693199487871       -3.01427014248657
H           -0.53527943780408        2.21341134595930       -2.79480830113527
H            0.68907976915996        2.49520233815926       -1.53708034746855
H           -1.35335107405704        1.73534398392570       -0.53104382769718
H           -6.68240458509589       -0.22555684209764        2.11018680624022
H           -5.69910248588230       -0.32665699043753        3.57503105087445
H           -6.45348077354359        1.22081043575651        3.12114493760039
H           -3.22441484073950       -2.12657177544379        1.79954538113206
H           -5.01622987918645       -1.95457295783518        1.86900430318392
H           -4.17629483291630       -2.01738692056133        0.27754179534187
H            0.16488935873790       -1.77754223328681       -0.24760090431852
H            5.16872436813521       -1.15344062790886        1.01057252529821

          :  Hamiltonian                  GFN1-xTB          :
         :: total energy             -83.116193731867 Eh    ::
         :: gradient norm              0.000697350956 Eh/a0 ::
         :: HOMO-LUMO gap              1.836500561911 eV    ::
         :: SCC energy               -83.918745272401 Eh    ::
         :: -> Gsolv                  -0.126362754061 Eh    ::
         :: repulsion energy           0.829070717254 Eh    ::

    * Orbital Energies and Occupations

         #    Occupation            Energy/Eh            Energy/eV
      -------------------------------------------------------------
         1        2.0000           -0.9708513             -26.4182
       ...           ...                  ...                  ...
        55        2.0000           -0.5227410             -14.2245
        56        2.0000           -0.5198402             -14.1456
        57        2.0000           -0.5190758             -14.1248
        58        2.0000           -0.5173916             -14.0789
        59        2.0000           -0.5119813             -13.9317
        60        2.0000           -0.5030595             -13.6889
        61        2.0000           -0.4986833             -13.5699
        62        2.0000           -0.4918783             -13.3847
        63        2.0000           -0.4906247             -13.3506
        64        2.0000           -0.4884517             -13.2914
        65        2.0000           -0.4635924             -12.6150
        66        2.0000           -0.4551901             -12.3864
        67        2.0000           -0.4370620             -11.8931 (HOMO)
        68                         -0.3695718             -10.0566 (LUMO)
        69                         -0.3294631              -8.9651
        70                         -0.3168992              -8.6233
        71                         -0.2913629              -7.9284
        72                         -0.2513154              -6.8386
        73                         -0.2457675              -6.6877
        74                         -0.1913010              -5.2056
        75                         -0.1768268              -4.8117
        76                         -0.1652162              -4.4958
        77                         -0.1420472              -3.8653
        78                         -0.1396374              -3.7997
       ...                                ...                  ...
       136                          0.7304221              19.8758
      -------------------------------------------------------------
                  HL-Gap            0.0674902 Eh            1.8365 eV

Wiberg/Mayer (AO) data.
largest (>0.10) Wiberg bond orders for each atom

     #   Z sym  total        # sym  WBO       # sym  WBO       # sym  WBO
 ---------------------------------------------------------------------------
     1   6 C    3.859 --    27 H    0.986    26 H    0.980    28 H    0.980
                             2 O    0.882
     2   8 O    2.205 --     3 C    1.091     1 C    0.882     4 O    0.130
     3   6 C    3.848 --     4 O    1.672     2 O    1.091     5 C    1.005
     4   8 O    1.934 --     3 C    1.672     2 O    0.130
     5   6 C    3.961 --    24 C    1.502     6 N    1.169     3 C    1.005
     6   7 N    3.030 --     7 C    1.598     5 C    1.169
     7   6 C    3.937 --     6 N    1.598    21 N    1.180     8 C    0.968
     8   6 C    3.916 --    10 C    1.001     9 C    0.985     7 C    0.968
                            11 N    0.896
     9   6 C    3.985 --     8 C    0.985    30 H    0.983    31 H    0.983
                            29 H    0.978
    10   6 C    3.988 --     8 C    1.001    33 H    0.984    34 H    0.982
                            32 H    0.981
    11   7 N    3.392 --    12 C    1.316     8 C    0.896    35 H    0.887
                            13 O    0.192
    12   6 C    3.927 --    13 O    1.563    11 N    1.316    14 C    0.973
    13   8 O    1.946 --    12 C    1.563    11 N    0.192
    14   6 C    3.804 --    15 N    1.703    12 C    0.973    19 O    0.889
    15   7 N    3.045 --    14 C    1.703    16 N    1.149
    16   7 N    3.024 --    17 C    1.693    15 N    1.149
    17   6 C    3.801 --    16 N    1.693    18 C    1.044    19 O    0.877
    18   6 C    3.968 --    17 C    1.044    38 H    0.969    37 H    0.950
                            36 H    0.950
    19   8 O    2.656 --    14 C    0.889    17 C    0.877    20 C    0.743
    20   6 C    3.719 --    40 H    0.974    39 H    0.967    41 H    0.967
                            19 O    0.743
    21   7 N    3.466 --     7 C    1.180    22 C    1.124    42 H    0.861
                            23 O    0.135
    22   6 C    3.909 --    23 O    1.606    21 N    1.124    24 C    1.050
    23   8 O    1.902 --    22 C    1.606    21 N    0.135
    24   6 C    3.918 --     5 C    1.502    25 O    1.116    22 C    1.050
    25   8 O    2.096 --    24 C    1.116    43 H    0.798
    26   1 H    1.006 --     1 C    0.980
    27   1 H    1.008 --     1 C    0.986
    28   1 H    1.006 --     1 C    0.980
    29   1 H    1.004 --     9 C    0.978
    30   1 H    0.997 --     9 C    0.983
    31   1 H    0.998 --     9 C    0.983
    32   1 H    1.005 --    10 C    0.981
    33   1 H    0.997 --    10 C    0.984
    34   1 H    1.005 --    10 C    0.982
    35   1 H    0.934 --    11 N    0.887
    36   1 H    0.987 --    18 C    0.950
    37   1 H    0.987 --    18 C    0.950
    38   1 H    0.989 --    18 C    0.969
    39   1 H    0.998 --    20 C    0.967
    40   1 H    0.990 --    20 C    0.974
    41   1 H    0.997 --    20 C    0.967
    42   1 H    0.932 --    21 N    0.861
    43   1 H    0.850 --    25 O    0.798
 ---------------------------------------------------------------------------

           -------------------------------------------------
          | TOTAL ENERGY              -83.116193731867 Eh   |
          | GRADIENT NORM               0.000697350956 Eh/α |
          | HOMO-LUMO GAP               1.836500561911 eV   |
           -------------------------------------------------

 * finished run on 2023/06/20 at 15:18:18.370
