   * xtb version 6.5.1 (579679a) compiled by 'ehlert@majestix' on 2022-07-11
          program call               : /lustre/hpc/kemi/ree/PhD/git/ReactivityQM/dep/xtb-6.5.1/bin/xtb --gfn 1 /lustre/hpc/kemi/ree/PhD/git/ReactivityQM/calculations/RaltegravirCLI/reac02prodE06/conf19/RaltegravirCLI_reac02prodE06_conf19_gfn1.xyz --opt --vfukui --chrg -1 --uhf 0 --alpb DMSO

   ID    Z sym.   atoms
    1    6 C      1, 3-6, 9, 10, 13-18, 20-22, 24
    2    7 N      2, 7, 8, 12
    3    8 O      11, 23, 25
    4    9 F      19
    5    1 H      26-47

      * Solvation model:               ALPB
        Solvent                        DMSO
        Solvent mass                       7.8130E+01 g/mol
          :  Hamiltonian                  GFN1-xTB          :
 * total energy  :   -80.1777138 Eh     change       -0.1034550E-10 Eh
 * total energy  :   -80.1846768 Eh     change       -0.6962937E-02 Eh
 * total energy  :   -80.1865354 Eh     change       -0.1858582E-02 Eh
 * total energy  :   -80.1868839 Eh     change       -0.3485255E-03 Eh
 * total energy  :   -80.1872151 Eh     change       -0.3312560E-03 Eh
 * total energy  :   -80.1874364 Eh     change       -0.2212351E-03 Eh
 * total energy  :   -80.1876709 Eh     change       -0.2345431E-03 Eh
 * total energy  :   -80.1878149 Eh     change       -0.1439843E-03 Eh
 * total energy  :   -80.1878618 Eh     change       -0.4694132E-04 Eh
 * total energy  :   -80.1878810 Eh     change       -0.1918727E-04 Eh
 * total energy  :   -80.1880434 Eh     change       -0.1426916E-04 Eh
 * total energy  :   -80.1880514 Eh     change       -0.7922941E-05 Eh
 * total energy  :   -80.1880592 Eh     change       -0.7854644E-05 Eh
 * total energy  :   -80.1880667 Eh     change       -0.7506918E-05 Eh
 * total energy  :   -80.1880732 Eh     change       -0.6500794E-05 Eh
 * total energy  :   -80.1880798 Eh     change       -0.6577532E-05 Eh
 * total energy  :   -80.1880871 Eh     change       -0.7332710E-05 Eh
 * total energy  :   -80.1880930 Eh     change       -0.5894628E-05 Eh
 * total energy  :   -80.1880980 Eh     change       -0.4990571E-05 Eh
   *** GEOMETRY OPTIMIZATION CONVERGED AFTER 31 ITERATIONS ***

 final structure:
================
47
 xtb: 6.5.1 (579679a)
C            4.18756671283471        1.01746490709706        2.24051951819031
N            2.98057403900869        0.84027494119976        1.43783704953281
C            2.90236241785191        0.01889285636682        0.33454333537600
C            4.10329857251460       -0.77886156317143       -0.16437282501684
C            4.99675197864369        0.13803169393145       -1.01331372676582
C            3.60716171338728       -1.94489414280014       -1.03714476238972
N            4.87847255497728       -1.30487576101578        0.95702563175966
N            1.82312111216799       -0.08477999002952       -0.36639615490965
C            0.66687858022212        0.58631717991898       -0.04668402850550
C           -0.44631248194597        0.34305815373712       -0.99244224794186
O           -0.30895799234764       -0.38829503534546       -1.98379018118384
N           -1.60846950847659        0.99380753233298       -0.74135455909318
C           -2.80725560516634        0.74002517509922       -1.50390405527349
C           -3.75369033637147       -0.35484622598300       -0.84713002091496
C           -2.95545479533660       -1.67808372141545       -0.76229607627926
C           -4.17781387607203        0.09230667741347        0.52873081059213
C           -5.46258684435774        0.43815194837749        0.83705738057513
C           -6.46937029887337        0.33288854212251       -0.12461312024667
F           -7.75992794414005        0.67582912258416        0.21485472002047
C           -6.21158642597280       -0.16060960709917       -1.40336931289481
C           -4.94223200267047       -0.52158076632365       -1.76098287254046
C            0.67502560811157        1.38553712416599        1.08020072813638
O           -0.40886686695468        2.08673629609842        1.52509459992735
C            1.85389250837837        1.53773420435958        1.87633056087558
O            1.88316022919659        2.25514475419504        2.88882809959689
H            5.06357953085379        1.08340990240161        1.60258884666576
H            4.08378414781776        1.94072249469568        2.81175411243472
H            4.30934333541877        0.17942375038021        2.92659606382715
H            4.42394089683794        0.54554038039512       -1.84620880697075
H            5.38976115817331        0.96366149313567       -0.42262202924557
H            5.83572887398116       -0.43191061090647       -1.40984922589392
H            4.46060570737633       -2.52358420439604       -1.38573345251168
H            3.05407646094024       -1.56911554574678       -1.89794066506299
H            2.95391797229936       -2.59549728030631       -0.45683866187142
H            4.37805456291925       -2.07204744419097        1.38751500658589
H            5.75429670863281       -1.67130511988294        0.61355377523266
H           -1.71839319256695        1.51253744916643        0.11519809132683
H           -3.37739574885021        1.67008374882579       -1.58121666602010
H           -2.52728389533948        0.41120712138812       -2.51033304231940
H           -3.61857962911595       -2.47441896971536       -0.42379611905443
H           -2.13395494175569       -1.58584429951828       -0.05146893979626
H           -2.54901550239888       -1.94887433770598       -1.73778982829500
H           -3.39897311478461        0.15518944914909        1.28237398840357
H           -5.71621227490327        0.77872040012674        1.83621766251848
H           -7.03335469578800       -0.27608596456488       -2.10338955110547
H           -4.74607930400845       -0.92393969087914       -2.74981989152927
H           -0.13358610435721        2.56675498233631        2.32766384205005

          :  Hamiltonian                  GFN1-xTB          :
         :: total energy             -80.188098021639 Eh    ::
         :: gradient norm              0.000280140538 Eh/a0 ::
         :: HOMO-LUMO gap              0.257867183890 eV    ::
         :: SCC energy               -81.043935965194 Eh    ::
         :: -> Gsolv                  -0.101880019598 Eh    ::
         :: repulsion energy           0.886542343812 Eh    ::

    * Orbital Energies and Occupations

         #    Occupation            Energy/Eh            Energy/eV
      -------------------------------------------------------------
         1        2.0000           -0.8010680             -21.7982
       ...           ...                  ...                  ...
        56        2.0000           -0.4564834             -12.4215
        57        2.0000           -0.4414795             -12.0133
        58        2.0000           -0.4410933             -12.0028
        59        2.0000           -0.4386898             -11.9374
        60        2.0000           -0.4306933             -11.7198
        61        2.0000           -0.4216467             -11.4736
        62        2.0000           -0.4164140             -11.3312
        63        2.0000           -0.4097668             -11.1503
        64        2.0000           -0.4043190             -11.0021
        65        2.0000           -0.4020849             -10.9413
        66        2.0000           -0.3954882             -10.7618
        67        2.0000           -0.3946291             -10.7384
        68        1.9864           -0.2980993              -8.1117 (HOMO)
        69        0.0136           -0.2886228              -7.8538 (LUMO)
        70                         -0.2499072              -6.8003
        71                         -0.2102199              -5.7204
        72                         -0.1992306              -5.4213
        73                         -0.1280445              -3.4843
        74                         -0.1255053              -3.4152
        75                         -0.1202798              -3.2730
        76                         -0.1159085              -3.1540
        77                         -0.1098571              -2.9894
        78                         -0.0927597              -2.5241
        79                         -0.0877570              -2.3880
       ...                                ...                  ...
       144                          0.7037704              19.1506
      -------------------------------------------------------------
                  HL-Gap            0.0094764 Eh            0.2579 eV

Wiberg/Mayer (AO) data.
largest (>0.10) Wiberg bond orders for each atom

     #   Z sym  total        # sym  WBO       # sym  WBO       # sym  WBO
 ---------------------------------------------------------------------------
     1   6 C    3.935 --    26 H    0.979    28 H    0.978    27 H    0.977
                             2 N    0.938
     2   7 N    3.425 --     3 C    1.150    24 C    1.089     1 C    0.938
                            25 O    0.113
     3   6 C    3.906 --     8 N    1.587     2 N    1.150     4 C    0.975
     4   6 C    3.966 --     6 C    0.990     5 C    0.984     7 N    0.982
                             3 C    0.975
     5   6 C    3.994 --    29 H    0.986     4 C    0.984    31 H    0.984
                            30 H    0.980
     6   6 C    3.995 --     4 C    0.990    32 H    0.987    34 H    0.985
                            33 H    0.982
     7   7 N    2.977 --     4 C    0.982    35 H    0.943    36 H    0.942
     8   7 N    3.024 --     3 C    1.587     9 C    1.175
     9   6 C    3.899 --    22 C    1.415     8 N    1.175    10 C    1.044
    10   6 C    3.898 --    11 O    1.502    12 N    1.231     9 C    1.044
    11   8 O    1.810 --    10 C    1.502    12 N    0.157
    12   7 N    3.354 --    10 C    1.231    13 C    0.968    37 H    0.898
                            11 O    0.157
    13   6 C    3.927 --    38 H    0.980    39 H    0.976    12 N    0.968
                            14 C    0.900
    14   6 C    3.983 --    16 C    1.023    21 C    1.021    15 C    0.976
                            13 C    0.900
    15   6 C    3.990 --    40 H    0.988    41 H    0.986    42 H    0.985
                            14 C    0.976
    16   6 C    3.910 --    17 C    1.600    14 C    1.023    43 H    0.974
    17   6 C    3.994 --    16 C    1.600    18 C    1.309    44 H    0.971
    18   6 C    3.652 --    20 C    1.317    17 C    1.309    19 F    0.858
    19   9 F    0.949 --    18 C    0.858
    20   6 C    3.993 --    21 C    1.590    18 C    1.317    45 H    0.971
    21   6 C    3.855 --    20 C    1.590    14 C    1.021    46 H    0.976
    22   6 C    3.853 --     9 C    1.415    24 C    1.161    23 O    1.035
    23   8 O    2.025 --    22 C    1.035    47 H    0.815
    24   6 C    3.870 --    25 O    1.483    22 C    1.161     2 N    1.089
    25   8 O    1.816 --    24 C    1.483     2 N    0.113
    26   1 H    1.023 --     1 C    0.979
    27   1 H    1.013 --     1 C    0.977
    28   1 H    1.018 --     1 C    0.978
    29   1 H    1.005 --     5 C    0.986
    30   1 H    1.006 --     5 C    0.980
    31   1 H    1.001 --     5 C    0.984
    32   1 H    1.005 --     6 C    0.987
    33   1 H    1.018 --     6 C    0.982
    34   1 H    1.008 --     6 C    0.985
    35   1 H    0.960 --     7 N    0.943
    36   1 H    0.957 --     7 N    0.942
    37   1 H    0.962 --    12 N    0.898
    38   1 H    1.024 --    13 C    0.980
    39   1 H    1.019 --    13 C    0.976
    40   1 H    1.021 --    15 C    0.988
    41   1 H    1.010 --    15 C    0.986
    42   1 H    1.015 --    15 C    0.985
    43   1 H    1.004 --    16 C    0.974
    44   1 H    1.006 --    17 C    0.971
    45   1 H    1.006 --    20 C    0.971
    46   1 H    1.003 --    21 C    0.976
    47   1 H    0.862 --    23 O    0.815
 ---------------------------------------------------------------------------

           -------------------------------------------------
          | TOTAL ENERGY              -80.188098021639 Eh   |
          | GRADIENT NORM               0.000280140538 Eh/α |
          | HOMO-LUMO GAP               0.257867183890 eV   |
           -------------------------------------------------

 * finished run on 2023/06/20 at 15:03:38.975
