                         Program Version 5.0.1 -  RELEASE  -
|  1> # ORCA input file
|  2> ! SP r2SCAN-3c CPCM
|  3>
|  4> %maxcore 1875.0
|  5> %pal nprocs 4 end
|  6> %cpcm smd true SMDsolvent "DMSO" end
|  7>
|  8> *xyz -2 1
|  9> C       6.167016    1.616074   -1.046372
| 10> O       4.856548    1.130394   -0.780627
| 11> C       4.759038    0.198057    0.188393
| 12> O       5.753102   -0.193564    0.795968
| 13> C       3.397790   -0.278499    0.429834
| 14> N       2.394897    0.249711   -0.336289
| 15> C       1.174925   -0.197820   -0.103784
| 16> C       0.091234    0.409231   -0.994356
| 17> C       0.099968    1.935848   -0.815523
| 18> C       0.406985    0.049447   -2.456127
| 19> N      -1.199610   -0.135829   -0.612282
| 20> C      -2.369739    0.143641   -1.186036
| 21> O      -2.527984    0.944360   -2.110474
| 22> C      -3.551597   -0.692830   -0.577999
| 23> C      -4.160672   -1.513808   -1.733302
| 24> N      -3.078009   -1.541707    0.501803
| 25> N      -3.753360   -1.132178    1.621074
| 26> C      -4.558220   -0.180257    1.326168
| 27> C      -5.491826    0.539442    2.236170
| 28> O      -4.532537    0.184716   -0.025541
| 29> N       0.809616   -1.100946    0.794230
| 30> C       1.745023   -1.679807    1.602706
| 31> O       1.440934   -2.531434    2.457971
| 32> C       3.125559   -1.231011    1.393012
| 33> O       4.082826   -1.791045    2.177112
| 34> H       6.591216    2.083671   -0.153338
| 35> H       6.821471    0.799075   -1.362675
| 36> H       6.078014    2.351294   -1.844261
| 37> H      -0.612251    2.405495   -1.492766
| 38> H       1.098627    2.313096   -1.032387
| 39> H      -0.158933    2.197034    0.210669
| 40> H      -0.303544    0.525020   -3.131034
| 41> H       1.411903    0.393075   -2.698486
| 42> H       0.361266   -1.030698   -2.595620
| 43> H      -1.221184   -0.844275    0.136165
| 44> H      -4.474246   -0.851825   -2.539290
| 45> H      -5.021811   -2.067123   -1.364217
| 46> H      -3.418255   -2.216573   -2.107259
| 47> H      -5.273149    1.609603    2.262002
| 48> H      -5.394170    0.135462    3.242619
| 49> H      -6.526905    0.420497    1.908262
| 50> H       4.960045   -1.423013    1.948594
| 51> **                         ****END OF INPUT****

CARTESIAN COORDINATES (ANGSTROEM)
---------------------------------
  C      6.167016    1.616074   -1.046372
  O      4.856548    1.130394   -0.780627
  C      4.759038    0.198057    0.188393
  O      5.753102   -0.193564    0.795968
  C      3.397790   -0.278499    0.429834
  N      2.394897    0.249711   -0.336289
  C      1.174925   -0.197820   -0.103784
  C      0.091234    0.409231   -0.994356
  C      0.099968    1.935848   -0.815523
  C      0.406985    0.049447   -2.456127
  N     -1.199610   -0.135829   -0.612282
  C     -2.369739    0.143641   -1.186036
  O     -2.527984    0.944360   -2.110474
  C     -3.551597   -0.692830   -0.577999
  C     -4.160672   -1.513808   -1.733302
  N     -3.078009   -1.541707    0.501803
  N     -3.753360   -1.132178    1.621074
  C     -4.558220   -0.180257    1.326168
  C     -5.491826    0.539442    2.236170
  O     -4.532537    0.184716   -0.025541
  N      0.809616   -1.100946    0.794230
  C      1.745023   -1.679807    1.602706
  O      1.440934   -2.531434    2.457971
  C      3.125559   -1.231011    1.393012
  O      4.082826   -1.791045    2.177112
  H      6.591216    2.083671   -0.153338
  H      6.821471    0.799075   -1.362675
  H      6.078014    2.351294   -1.844261
  H     -0.612251    2.405495   -1.492766
  H      1.098627    2.313096   -1.032387
  H     -0.158933    2.197034    0.210669
  H     -0.303544    0.525020   -3.131034
  H      1.411903    0.393075   -2.698486
  H      0.361266   -1.030698   -2.595620
  H     -1.221184   -0.844275    0.136165
  H     -4.474246   -0.851825   -2.539290
  H     -5.021811   -2.067123   -1.364217
  H     -3.418255   -2.216573   -2.107259
  H     -5.273149    1.609603    2.262002
  H     -5.394170    0.135462    3.242619
  H     -6.526905    0.420497    1.908262
  H      4.960045   -1.423013    1.948594

 Total Charge           Charge          ....   -2
 Multiplicity           Mult            ....    1
 Number of Electrons    NEL             ....  186
 Basis Dimension        Dim             ....  615

ORBITAL ENERGIES
----------------

  NO   OCC          E(Eh)            E(eV)
   0   2.0000     -18.994650      -516.8707
   1   2.0000     -18.968628      -516.1626
   2   2.0000     -18.948841      -515.6242
   3   2.0000     -18.941590      -515.4269
   4   2.0000     -18.886658      -513.9321
   5   2.0000     -18.879921      -513.7488
   6   2.0000     -14.148024      -384.9873
   7   2.0000     -14.131925      -384.5492
   8   2.0000     -14.124463      -384.3462
   9   2.0000     -14.121960      -384.2781
  10   2.0000     -14.079870      -383.1327
  11   2.0000     -10.157406      -276.3971
  12   2.0000     -10.094159      -274.6760
  13   2.0000     -10.088720      -274.5280
  14   2.0000     -10.087717      -274.5007
  15   2.0000     -10.077366      -274.2191
  16   2.0000     -10.073001      -274.1003
  17   2.0000     -10.071188      -274.0510
  18   2.0000     -10.065810      -273.9046
  19   2.0000     -10.062119      -273.8042
  20   2.0000     -10.055027      -273.6112
  21   2.0000     -10.015295      -272.5300
  22   2.0000     -10.002345      -272.1777
  23   2.0000     -10.001671      -272.1593
  24   2.0000      -9.995998      -272.0049
  25   2.0000      -1.068661       -29.0797
  26   2.0000      -1.019079       -27.7305
  27   2.0000      -1.015353       -27.6292
  28   2.0000      -0.977662       -26.6035
  29   2.0000      -0.967307       -26.3218
  30   2.0000      -0.954814       -25.9818
  31   2.0000      -0.911206       -24.7952
  32   2.0000      -0.873066       -23.7573
  33   2.0000      -0.861927       -23.4542
  34   2.0000      -0.812500       -22.1092
  35   2.0000      -0.760330       -20.6896
  36   2.0000      -0.740424       -20.1480
  37   2.0000      -0.708295       -19.2737
  38   2.0000      -0.686645       -18.6846
  39   2.0000      -0.676712       -18.4143
  40   2.0000      -0.640213       -17.4211
  41   2.0000      -0.626335       -17.0434
  42   2.0000      -0.617889       -16.8136
  43   2.0000      -0.606240       -16.4966
  44   2.0000      -0.568063       -15.4578
  45   2.0000      -0.537624       -14.6295
  46   2.0000      -0.532536       -14.4910
  47   2.0000      -0.508962       -13.8496
  48   2.0000      -0.501466       -13.6456
  49   2.0000      -0.487453       -13.2643
  50   2.0000      -0.486285       -13.2325
  51   2.0000      -0.463550       -12.6138
  52   2.0000      -0.450404       -12.2561
  53   2.0000      -0.446035       -12.1372
  54   2.0000      -0.438350       -11.9281
  55   2.0000      -0.414138       -11.2693
  56   2.0000      -0.408289       -11.1101
  57   2.0000      -0.404504       -11.0071
  58   2.0000      -0.398964       -10.8564
  59   2.0000      -0.388689       -10.5768
  60   2.0000      -0.384812       -10.4713
  61   2.0000      -0.379588       -10.3291
  62   2.0000      -0.366819        -9.9817
  63   2.0000      -0.364851        -9.9281
  64   2.0000      -0.362380        -9.8609
  65   2.0000      -0.360774        -9.8172
  66   2.0000      -0.358460        -9.7542
  67   2.0000      -0.352363        -9.5883
  68   2.0000      -0.343774        -9.3546
  69   2.0000      -0.340466        -9.2646
  70   2.0000      -0.333447        -9.0735
  71   2.0000      -0.324949        -8.8423
  72   2.0000      -0.320249        -8.7144
  73   2.0000      -0.318334        -8.6623
  74   2.0000      -0.316303        -8.6070
  75   2.0000      -0.315592        -8.5877
  76   2.0000      -0.309303        -8.4166
  77   2.0000      -0.302227        -8.2240
  78   2.0000      -0.295391        -8.0380
  79   2.0000      -0.288239        -7.8434
  80   2.0000      -0.271707        -7.3935
  81   2.0000      -0.256988        -6.9930
  82   2.0000      -0.253806        -6.9064
  83   2.0000      -0.247610        -6.7378
  84   2.0000      -0.240631        -6.5479
  85   2.0000      -0.233870        -6.3639
  86   2.0000      -0.207449        -5.6450
  87   2.0000      -0.201308        -5.4779
  88   2.0000      -0.197856        -5.3839
  89   2.0000      -0.190851        -5.1933
  90   2.0000      -0.185064        -5.0358
  91   2.0000      -0.169748        -4.6191
  92   2.0000      -0.092970        -2.5298
  93   0.0000      -0.068046        -1.8516
  94   0.0000      -0.002311        -0.0629
  95   0.0000       0.019976         0.5436
  96   0.0000       0.043374         1.1803
  97   0.0000       0.045913         1.2494

MULLIKEN ATOMIC CHARGES
-----------------------
   0 C :   -0.321335
   1 O :   -0.183591
   2 C :    0.202918
   3 O :   -0.480388
   4 C :    0.057665
   5 N :   -0.257055
   6 C :    0.495493
   7 C :   -0.160253
   8 C :   -0.666465
   9 C :   -0.668501
  10 N :    0.034615
  11 C :    0.086817
  12 O :   -0.485015
  13 C :    0.261056
  14 C :   -0.654299
  15 N :   -0.543823
  16 N :   -0.266013
  17 C :    0.202613
  18 C :   -0.677409
  19 O :   -0.186401
  20 N :   -0.232368
  21 C :   -0.109395
  22 O :   -0.408656
  23 C :    0.037080
  24 O :   -0.369326
  25 H :    0.173476
  26 H :    0.173587
  27 H :    0.173426
  28 H :    0.191531
  29 H :    0.178704
  30 H :    0.172801
  31 H :    0.190701
  32 H :    0.179173
  33 H :    0.173111
  34 H :    0.322874
  35 H :    0.168450
  36 H :    0.166267
  37 H :    0.172603
  38 H :    0.161217
  39 H :    0.178818
  40 H :    0.161159
  41 H :    0.354139
Sum of atomic charges:   -2.0000000

LOEWDIN ATOMIC CHARGES
----------------------
   0 C :   -0.041649
   1 O :   -0.576690
   2 C :    0.410750
   3 O :   -0.485367
   4 C :    0.162993
   5 N :   -0.635385
   6 C :    0.308028
   7 C :    0.103660
   8 C :   -0.360502
   9 C :   -0.359459
  10 N :   -0.625939
  11 C :    0.354081
  12 O :   -0.528536
  13 C :    0.293174
  14 C :   -0.371903
  15 N :   -0.624758
  16 N :   -0.539426
  17 C :    0.265347
  18 C :   -0.353244
  19 O :   -0.532810
  20 N :   -0.580477
  21 C :    0.304507
  22 O :   -0.528337
  23 C :    0.258335
  24 O :   -0.477201
  25 H :    0.180101
  26 H :    0.180161
  27 H :    0.184037
  28 H :    0.171733
  29 H :    0.168524
  30 H :    0.165765
  31 H :    0.171782
  32 H :    0.168148
  33 H :    0.166066
  34 H :    0.314227
  35 H :    0.162658
  36 H :    0.161138
  37 H :    0.166586
  38 H :    0.162232
  39 H :    0.174028
  40 H :    0.162060
  41 H :    0.301562

  Mayer bond orders larger than 0.100000
B(  0-C ,  1-O ) :   0.8376 B(  0-C , 25-H ) :   0.9579 B(  0-C , 26-H ) :   0.9581
B(  0-C , 27-H ) :   0.9632 B(  1-O ,  2-C ) :   1.1527 B(  2-C ,  3-O ) :   1.7225
B(  2-C ,  4-C ) :   1.1052 B(  4-C ,  5-N ) :   1.1019 B(  4-C , 23-C ) :   1.2461
B(  5-N ,  6-C ) :   1.3304 B(  6-C ,  7-C ) :   0.7476 B(  6-C , 10-N ) :  -0.1341
B(  6-C , 20-N ) :   1.3504 B(  7-C ,  8-C ) :   0.9006 B(  7-C ,  9-C ) :   0.9003
B(  7-C , 10-N ) :   0.9600 B(  7-C , 20-N ) :   0.1169 B(  8-C , 28-H ) :   0.9704
B(  8-C , 29-H ) :   0.9701 B(  8-C , 30-H ) :   0.9758 B(  9-C , 31-H ) :   0.9696
B(  9-C , 32-H ) :   0.9705 B(  9-C , 33-H ) :   0.9750 B( 10-N , 11-C ) :   1.2328
B( 10-N , 34-H ) :   0.7882 B( 11-C , 12-O ) :   1.8874 B( 11-C , 13-C ) :   0.9237
B( 13-C , 14-C ) :   0.8897 B( 13-C , 15-N ) :   1.1267 B( 13-C , 19-O ) :   0.8226
B( 14-C , 35-H ) :   0.9842 B( 14-C , 36-H ) :   0.9756 B( 14-C , 37-H ) :   0.9702
B( 15-N , 16-N ) :   1.4716 B( 15-N , 17-C ) :   0.1583 B( 16-N , 17-C ) :   1.8404
B( 17-C , 18-C ) :   0.8195 B( 17-C , 19-O ) :   0.9910 B( 18-C , 38-H ) :   0.9582
B( 18-C , 39-H ) :   1.0046 B( 18-C , 40-H ) :   0.9577 B( 20-N , 21-C ) :   1.2265
B( 21-C , 22-O ) :   2.0825 B( 21-C , 23-C ) :   0.9417 B( 23-C , 24-O ) :   1.1330
B( 24-O , 41-H ) :   0.7891

Dispersion correction           -0.019071226
FINAL SINGLE POINT ENERGY     -1268.880695182354

DIPOLE MOMENT
-------------
                                X             Y             Z
Electronic contribution:     13.44312      -6.59217       8.78197
Nuclear contribution   :     -8.43113      10.49289     -11.56595
                        -----------------------------------------
Total Dipole Moment    :      5.01199       3.90072      -2.78398
                        -----------------------------------------
Magnitude (a.u.)       :      6.93443
Magnitude (Debye)      :     17.62591

Rotational constants in cm-1:     0.014958     0.003591     0.003150
Rotational constants in MHz :   448.423283   107.647681    94.422261

                             ****ORCA TERMINATED NORMALLY****
TOTAL RUN TIME: 0 days 0 hours 2 minutes 30 seconds 980 msec
