   * xtb version 6.5.1 (579679a) compiled by 'ehlert@majestix' on 2022-07-11
          program call               : /lustre/hpc/kemi/ree/PhD/git/ReactivityQM/dep/xtb-6.5.1/bin/xtb --gfn 1 /lustre/hpc/kemi/ree/PhD/git/ReactivityQM/calculations/R02deprot/reac01prodE08/conf06/R02deprot_reac01prodE08_conf06_gfn1.xyz --opt --vfukui --chrg -2 --uhf 0 --alpb DMSO

   ID    Z sym.   atoms
    1    6 C      1, 3, 5, 7-10, 12, 14, 15, 18, 19, 22, 24
    2    8 O      2, 4, 13, 20, 23, 25
    3    7 N      6, 11, 16, 17, 21
    4    1 H      26-42

      * Solvation model:               ALPB
        Solvent                        DMSO
        Solvent mass                       7.8130E+01 g/mol
          :  Hamiltonian                  GFN1-xTB          :
 * total energy  :   -83.6158812 Eh     change       -0.8150778E-09 Eh
 * total energy  :   -83.6294255 Eh     change       -0.1354428E-01 Eh
 * total energy  :   -83.6342278 Eh     change       -0.4802322E-02 Eh
 * total energy  :   -83.6349551 Eh     change       -0.7273434E-03 Eh
 * total energy  :   -83.6356219 Eh     change       -0.6668162E-03 Eh
 * total energy  :   -83.6358778 Eh     change       -0.2558596E-03 Eh
 * total energy  :   -83.6360551 Eh     change       -0.1772603E-03 Eh
 * total energy  :   -83.6361657 Eh     change       -0.1106476E-03 Eh
 * total energy  :   -83.6362367 Eh     change       -0.7094982E-04 Eh
 * total energy  :   -83.6362827 Eh     change       -0.4607653E-04 Eh
 * total energy  :   -83.6368767 Eh     change       -0.9265026E-05 Eh
 * total energy  :   -83.6368868 Eh     change       -0.1008864E-04 Eh
 * total energy  :   -83.6369005 Eh     change       -0.1362321E-04 Eh
 * total energy  :   -83.6369167 Eh     change       -0.1629282E-04 Eh
 * total energy  :   -83.6369296 Eh     change       -0.1281991E-04 Eh
 * total energy  :   -83.6369387 Eh     change       -0.9142051E-05 Eh
 * total energy  :   -83.6369481 Eh     change       -0.9425218E-05 Eh
 * total energy  :   -83.6369571 Eh     change       -0.8992624E-05 Eh
 * total energy  :   -83.6369600 Eh     change       -0.2914785E-05 Eh
   *** GEOMETRY OPTIMIZATION CONVERGED AFTER 44 ITERATIONS ***

 final structure:
================
42
 xtb: 6.5.1 (579679a)
C            6.16701557050652        1.61607388273900       -1.04637183388724
O            4.85654798790922        1.13039353852291       -0.78062694280968
C            4.75903802674271        0.19805709375461        0.18839333395835
O            5.75310233774155       -0.19356360481908        0.79596815223604
C            3.39778986346690       -0.27849916965588        0.42983438789594
N            2.39489725022347        0.24971137092525       -0.33628857059750
C            1.17492520230663       -0.19781971181091       -0.10378358481931
C            0.09123403498950        0.40923083718027       -0.99435630476708
C            0.09996847818495        1.93584779120626       -0.81552280369370
C            0.40698466470509        0.04944662820644       -2.45612668240887
N           -1.19961045487154       -0.13582908330275       -0.61228185908632
C           -2.36973943504120        0.14364120456922       -1.18603634833169
O           -2.52798449001739        0.94435951423241       -2.11047419825255
C           -3.55159683290425       -0.69283032052904       -0.57799877020242
C           -4.16067242648423       -1.51380784918795       -1.73330212682220
N           -3.07800861367377       -1.54170719011455        0.50180258073410
N           -3.75335994812948       -1.13217801519362        1.62107364235124
C           -4.55821954281662       -0.18025709741040        1.32616849738087
C           -5.49182634869541        0.53944165621015        2.23617030148684
O           -4.53253713422084        0.18471644587537       -0.02554088283043
N            0.80961603236038       -1.10094613221444        0.79423008210126
C            1.74502342758795       -1.67980697582503        1.60270586068080
O            1.44093399977785       -2.53143398500361        2.45797108807697
C            3.12555922504129       -1.23101102788072        1.39301220463167
O            4.08282558359598       -1.79104454386392        2.17711249978160
H            6.59121628011509        2.08367149223418       -0.15333820256346
H            6.82147129130735        0.79907546319334       -1.36267483209967
H            6.07801400562079        2.35129371610501       -1.84426094472075
H           -0.61225141659730        2.40549545573616       -1.49276591373986
H            1.09862652446118        2.31309595333098       -1.03238664363368
H           -0.15893276790161        2.19703368822396        0.21066890174588
H           -0.30354386730416        0.52502049026720       -3.13103356257532
H            1.41190349759356        0.39307483862382       -2.69848578064425
H            0.36126619420447       -1.03069776687048       -2.59562004066985
H           -1.22118379985711       -0.84427492071835        0.13616513737656
H           -4.47424568160882       -0.85182455025820       -2.53929006985902
H           -5.02181098993630       -2.06712334995822       -1.36421671235272
H           -3.41825547311281       -2.21657281436530       -2.10725869086046
H           -5.27314901431143        1.60960297095811        2.26200185681082
H           -5.39417025776027        0.13546226863095        3.24261944316504
H           -6.52690498058336        0.42049677171956        1.90826175005531
H            4.96004499738319       -1.42301296346388        1.94859358175594

          :  Hamiltonian                  GFN1-xTB          :
         :: total energy             -83.636960042010 Eh    ::
         :: gradient norm              0.000288755307 Eh/a0 ::
         :: HOMO-LUMO gap              0.158846577365 eV    ::
         :: SCC energy               -84.366813488435 Eh    ::
         :: -> Gsolv                  -0.271905328292 Eh    ::
         :: repulsion energy           0.755840189655 Eh    ::

    * Orbital Energies and Occupations

         #    Occupation            Energy/Eh            Energy/eV
      -------------------------------------------------------------
         1        2.0000           -0.8088989             -22.0113
       ...           ...                  ...                  ...
        56        2.0000           -0.4469436             -12.1620
        57        2.0000           -0.4428601             -12.0508
        58        2.0000           -0.4220029             -11.4833
        59        2.0000           -0.4102015             -11.1621
        60        2.0000           -0.4031630             -10.9706
        61        2.0000           -0.3982900             -10.8380
        62        2.0000           -0.3969812             -10.8024
        63        2.0000           -0.3894813             -10.5983
        64        2.0000           -0.3793250             -10.3220
        65        2.0000           -0.3609505              -9.8220
        66        2.0000           -0.3586615              -9.7597
        67        2.0000           -0.3520921              -9.5809
        68        1.9115           -0.2782053              -7.5704 (HOMO)
        69        0.0885           -0.2723678              -7.4115 (LUMO)
        70                         -0.2160752              -5.8797
        71                         -0.2027600              -5.5174
        72                         -0.1812001              -4.9307
        73                         -0.1654897              -4.5032
        74                         -0.1241555              -3.3784
        75                         -0.1092434              -2.9727
        76                         -0.0997754              -2.7150
        77                         -0.0959902              -2.6120
        78                         -0.0930486              -2.5320
        79                         -0.0895926              -2.4379
       ...                                ...                  ...
       134                          0.7271521              19.7868
      -------------------------------------------------------------
                  HL-Gap            0.0058375 Eh            0.1588 eV

Wiberg/Mayer (AO) data.
largest (>0.10) Wiberg bond orders for each atom

     #   Z sym  total        # sym  WBO       # sym  WBO       # sym  WBO
 ---------------------------------------------------------------------------
     1   6 C    3.890 --    28 H    0.987    27 H    0.980    26 H    0.980
                             2 O    0.916
     2   8 O    2.169 --     3 C    1.074     1 C    0.916     4 O    0.111
     3   6 C    3.794 --     4 O    1.560     2 O    1.074     5 C    1.068
     4   8 O    1.880 --     3 C    1.560     2 O    0.111
     5   6 C    3.950 --    24 C    1.435     6 N    1.203     3 C    1.068
     6   7 N    2.980 --     7 C    1.443     5 C    1.203
     7   6 C    3.957 --     6 N    1.443    21 N    1.388     8 C    0.970
     8   6 C    3.947 --     9 C    0.984    10 C    0.982     7 C    0.970
                            11 N    0.939
     9   6 C    3.995 --    31 H    0.987    30 H    0.986     8 C    0.984
                            29 H    0.984
    10   6 C    3.995 --    34 H    0.987    33 H    0.986    32 H    0.984
                             8 C    0.982
    11   7 N    3.373 --    12 C    1.321     8 C    0.939    35 H    0.860
                            13 O    0.169
    12   6 C    3.868 --    13 O    1.553    11 N    1.321    14 C    0.889
    13   8 O    1.851 --    12 C    1.553    11 N    0.169
    14   6 C    3.896 --    16 N    1.020    15 C    0.965    20 O    0.915
                            12 C    0.889
    15   6 C    3.990 --    38 H    0.988    36 H    0.987    37 H    0.986
                            14 C    0.965
    16   7 N    2.589 --    17 N    1.176    14 C    1.020    18 C    0.183
    17   7 N    3.003 --    18 C    1.667    16 N    1.176
    18   6 C    3.838 --    17 N    1.667    19 C    1.016    20 O    0.943
                            16 N    0.183
    19   6 C    3.996 --    18 C    1.016    40 H    0.987    39 H    0.977
                            41 H    0.977
    20   8 O    2.058 --    18 C    0.943    14 C    0.915
    21   7 N    2.986 --     7 C    1.388    22 C    1.217    23 O    0.121
    22   6 C    3.924 --    23 O    1.487    21 N    1.217    24 C    1.086
    23   8 O    1.771 --    22 C    1.487    21 N    0.121
    24   6 C    3.870 --     5 C    1.435    22 C    1.086    25 O    1.062
    25   8 O    2.032 --    24 C    1.062    42 H    0.809
    26   1 H    1.011 --     1 C    0.980
    27   1 H    1.011 --     1 C    0.980
    28   1 H    1.014 --     1 C    0.987
    29   1 H    1.017 --     9 C    0.984
    30   1 H    1.019 --     9 C    0.986
    31   1 H    1.008 --     9 C    0.987
    32   1 H    1.016 --    10 C    0.984
    33   1 H    1.018 --    10 C    0.986
    34   1 H    1.008 --    10 C    0.987
    35   1 H    1.010 --    11 N    0.860
    36   1 H    1.013 --    15 C    0.987
    37   1 H    1.019 --    15 C    0.986
    38   1 H    1.015 --    15 C    0.988
    39   1 H    1.008 --    19 C    0.977
    40   1 H    1.010 --    19 C    0.987
    41   1 H    1.008 --    19 C    0.977
    42   1 H    0.880 --    25 O    0.809
 ---------------------------------------------------------------------------

           -------------------------------------------------
          | TOTAL ENERGY              -83.636960042010 Eh   |
          | GRADIENT NORM               0.000288755307 Eh/α |
          | HOMO-LUMO GAP               0.158846577365 eV   |
           -------------------------------------------------

 * finished run on 2023/06/20 at 17:52:15.568
