   * xtb version 6.5.1 (579679a) compiled by 'ehlert@majestix' on 2022-07-11
          program call               : /lustre/hpc/kemi/ree/PhD/git/ReactivityQM/dep/xtb-6.5.1/bin/xtb --gfn 1 /lustre/hpc/kemi/ree/PhD/git/ReactivityQM/calculations/RaltegravirCLI/reac01prodN08/conf05/RaltegravirCLI_reac01prodN08_conf05_gfn1.xyz --opt --vfukui --chrg 1 --uhf 0 --alpb DMSO

   ID    Z sym.   atoms
    1    6 C      1, 3, 5, 8, 9
    2   17 Cl     2
    3    8 O      4, 10
    4    7 N      6, 7
    5    1 H      11-16

      * Solvation model:               ALPB
        Solvent                        DMSO
        Solvent mass                       7.8130E+01 g/mol
          :  Hamiltonian                  GFN1-xTB          :
 * total energy  :   -33.3862243 Eh     change       -0.2380318E-11 Eh
 * total energy  :   -33.3921727 Eh     change       -0.5948421E-02 Eh
 * total energy  :   -33.3945507 Eh     change       -0.2377948E-02 Eh
 * total energy  :   -33.3948098 Eh     change       -0.2590842E-03 Eh
 * total energy  :   -33.3949024 Eh     change       -0.9267433E-04 Eh
 * total energy  :   -33.3949423 Eh     change       -0.3985365E-04 Eh
 * total energy  :   -33.3949600 Eh     change       -0.1768338E-04 Eh
 * total energy  :   -33.3949697 Eh     change       -0.9717409E-05 Eh
 * total energy  :   -33.3949759 Eh     change       -0.6258411E-05 Eh
 * total energy  :   -33.3949789 Eh     change       -0.2978238E-05 Eh
   *** GEOMETRY OPTIMIZATION CONVERGED AFTER 10 ITERATIONS ***

 final structure:
================
16
 xtb: 6.5.1 (579679a)
C           -3.92840102624702        0.19541215312314        0.15279629189680
Cl          -2.40403771253460       -0.37394796506030        0.89025698195543
C           -1.14161980138191        0.30321643503136       -0.26824255503222
O           -1.52180911354193        0.94538137971035       -1.18045584993998
C            0.16069144463794       -0.08703902889914        0.17122568849724
N            0.47282424776279       -0.80551504170306        1.22533345851477
N            1.79955249693787       -0.90976436952233        1.24521966091726
C            2.25665381115684       -0.25102049690773        0.19965976346930
C            3.66075824434577       -0.08596800210008       -0.21152181874116
O            1.26626866723213        0.28346049453056       -0.50490623606483
H           -3.70508968871449        1.04784568757119       -0.48676487083750
H           -4.58332124839903        0.48685503708739        0.96841197523269
H           -4.35849462656238       -0.61651523916710       -0.42683925341135
H            4.32118788930100       -0.46987522725771        0.56241436630166
H            3.83450262665686       -0.62961568928235       -1.14179240286325
H            3.87033378935059        0.96709187284520       -0.39885619989367

          :  Hamiltonian                  GFN1-xTB          :
         :: total energy             -33.394978925085 Eh    ::
         :: gradient norm              0.000782289846 Eh/a0 ::
         :: HOMO-LUMO gap              2.763981726085 eV    ::
         :: SCC energy               -33.689727449609 Eh    ::
         :: -> Gsolv                  -0.083567383855 Eh    ::
         :: repulsion energy           0.301462433900 Eh    ::

    * Orbital Energies and Occupations

         #    Occupation            Energy/Eh            Energy/eV
      -------------------------------------------------------------
         1        2.0000           -1.0706958             -29.1351
       ...           ...                  ...                  ...
        15        2.0000           -0.6237749             -16.9738
        16        2.0000           -0.6125893             -16.6694
        17        2.0000           -0.6072033             -16.5228
        18        2.0000           -0.5851606             -15.9230
        19        2.0000           -0.5773003             -15.7091
        20        2.0000           -0.5707306             -15.5304
        21        2.0000           -0.5584796             -15.1970
        22        2.0000           -0.5570017             -15.1568
        23        2.0000           -0.5503075             -14.9746
        24        2.0000           -0.5456945             -14.8491
        25        2.0000           -0.5278604             -14.3638
        26        2.0000           -0.5001406             -13.6095
        27        2.0000           -0.4972391             -13.5306 (HOMO)
        28                         -0.3956647             -10.7666 (LUMO)
        29                         -0.3199440              -8.7061
        30                         -0.3002533              -8.1703
        31                         -0.2993670              -8.1462
        32                         -0.2728063              -7.4234
        33                         -0.1883690              -5.1258
        34                         -0.1836299              -4.9968
        35                         -0.1657717              -4.5109
        36                         -0.1612521              -4.3879
        37                         -0.1585389              -4.3141
        38                         -0.1122217              -3.0537
       ...                                ...                  ...
        57                          0.7637474              20.7826
      -------------------------------------------------------------
                  HL-Gap            0.1015745 Eh            2.7640 eV

Wiberg/Mayer (AO) data.
largest (>0.10) Wiberg bond orders for each atom

     #   Z sym  total        # sym  WBO       # sym  WBO       # sym  WBO
 ---------------------------------------------------------------------------
     1   6 C    3.858 --    13 H    0.980    12 H    0.976    11 H    0.969
                             2 Cl   0.910
     2  17 Cl   1.909 --     1 C    0.910     3 C    0.783     4 O    0.146
     3   6 C    3.874 --     4 O    1.846     5 C    1.110     2 Cl   0.783
     4   8 O    2.167 --     3 C    1.846     2 Cl   0.146
     5   6 C    3.889 --     6 N    1.497     3 C    1.110    10 O    1.048
     6   7 N    3.023 --     5 C    1.497     7 N    1.313
     7   7 N    2.993 --     8 C    1.485     6 N    1.313
     8   6 C    3.848 --     7 N    1.485    10 O    1.125     9 C    1.044
     9   6 C    3.973 --     8 C    1.044    14 H    0.978    16 H    0.955
                            15 H    0.944
    10   8 O    2.362 --     8 C    1.125     5 C    1.048
    11   1 H    0.994 --     1 C    0.969
    12   1 H    0.993 --     1 C    0.976
    13   1 H    0.994 --     1 C    0.980
    14   1 H    0.993 --     9 C    0.978
    15   1 H    0.988 --     9 C    0.944
    16   1 H    0.989 --     9 C    0.955
 ---------------------------------------------------------------------------

           -------------------------------------------------
          | TOTAL ENERGY              -33.394978925085 Eh   |
          | GRADIENT NORM               0.000782289846 Eh/α |
          | HOMO-LUMO GAP               2.763981726085 eV   |
           -------------------------------------------------

 * finished run on 2023/06/20 at 14:55:57.059
