   * xtb version 6.5.1 (579679a) compiled by 'ehlert@majestix' on 2022-07-11
          program call               : /lustre/hpc/kemi/ree/PhD/git/ReactivityQM/dep/xtb-6.5.1/bin/xtb --gfn 1 /lustre/hpc/kemi/ree/PhD/git/ReactivityQM/calculations/R03/reac01prodN05/conf07/R03_reac01prodN05_conf07_gfn1.xyz --opt --vfukui --chrg 1 --uhf 0 --alpb DMSO

   ID    Z sym.   atoms
    1    6 C      1, 2, 4-7, 9, 10
    2    9 F      3
    3    7 N      8
    4    1 H      11-21

      * Solvation model:               ALPB
        Solvent                        DMSO
        Solvent mass                       7.8130E+01 g/mol
          :  Hamiltonian                  GFN1-xTB          :
 * total energy  :   -30.7505939 Eh     change       -0.1177725E-10 Eh
 * total energy  :   -30.7544528 Eh     change       -0.3858912E-02 Eh
 * total energy  :   -30.7562861 Eh     change       -0.1833324E-02 Eh
 * total energy  :   -30.7572327 Eh     change       -0.9465688E-03 Eh
 * total energy  :   -30.7582719 Eh     change       -0.1039184E-02 Eh
 * total energy  :   -30.7592868 Eh     change       -0.1014939E-02 Eh
 * total energy  :   -30.7601345 Eh     change       -0.8476664E-03 Eh
 * total energy  :   -30.7608056 Eh     change       -0.6711453E-03 Eh
 * total energy  :   -30.7613197 Eh     change       -0.5141144E-03 Eh
 * total energy  :   -30.7615976 Eh     change       -0.2778619E-03 Eh
 * total energy  :   -30.7626689 Eh     change       -0.3845762E-04 Eh
 * total energy  :   -30.7627055 Eh     change       -0.3661095E-04 Eh
 * total energy  :   -30.7627437 Eh     change       -0.3812649E-04 Eh
 * total energy  :   -30.7627571 Eh     change       -0.1343916E-04 Eh
 * total energy  :   -30.7627871 Eh     change       -0.3000179E-04 Eh
 * total energy  :   -30.7628027 Eh     change       -0.1558843E-04 Eh
 * total energy  :   -30.7628155 Eh     change       -0.1284214E-04 Eh
 * total energy  :   -30.7628221 Eh     change       -0.6530037E-05 Eh
 * total energy  :   -30.7628237 Eh     change       -0.1663918E-05 Eh
   *** GEOMETRY OPTIMIZATION CONVERGED AFTER 29 ITERATIONS ***

 final structure:
================
21
 xtb: 6.5.1 (579679a)
C           -2.61323015862507        0.48131495024941       -0.20530873998285
C           -1.75787986920052       -0.70386205412330        0.33954118022118
F           -2.64424544631209       -1.56896415033499        0.92086863751161
C           -0.82933898285548       -0.13133985389970        1.33925567636540
C            0.43565100315578        0.20457163057721        0.98287260245424
C            0.96191395356883       -0.17049535830630       -0.27962057302837
C            2.32686366157770        0.21432296123129       -0.68328096297332
N            3.00081669658061        1.08143415246477        0.24270129881734
C            0.18194748139808       -0.98115489032526       -1.15017007378001
C           -1.09330460118383       -1.31435483328780       -0.83619561430386
H           -1.97824698856747        1.22164628143291       -0.68265101060483
H           -3.32672682618245        0.08324369390308       -0.92315173805163
H           -3.14409650737131        0.92872386370938        0.63198433191265
H           -1.22380917196340        0.07842713615602        2.32653881046224
H            1.09609812605119        0.70043734463956        1.68477465326130
H            2.92209752183693       -0.69461771177473       -0.83777493076528
H            2.25401817049256        0.68314740470995       -1.67871334069438
H            3.95301320206731        1.23051831316716       -0.05431612003239
H            2.53141822219185        1.97034300180882        0.32371783040417
H            0.64049969105834       -1.35840490966917       -2.05696126684326
H           -1.69346117771741       -1.95493597232793       -1.47127165034902

          :  Hamiltonian                  GFN1-xTB          :
         :: total energy             -30.762823734786 Eh    ::
         :: gradient norm              0.000177289350 Eh/a0 ::
         :: HOMO-LUMO gap              0.776929004379 eV    ::
         :: SCC energy               -31.154959288066 Eh    ::
         :: -> Gsolv                  -0.086440142423 Eh    ::
         :: repulsion energy           0.402197435966 Eh    ::

    * Orbital Energies and Occupations

         #    Occupation            Energy/Eh            Energy/eV
      -------------------------------------------------------------
         1        2.0000           -0.8927819             -24.2938
       ...           ...                  ...                  ...
        15        2.0000           -0.5961711             -16.2226
        16        2.0000           -0.5918987             -16.1064
        17        2.0000           -0.5787534             -15.7487
        18        2.0000           -0.5709801             -15.5372
        19        2.0000           -0.5674984             -15.4424
        20        2.0000           -0.5583240             -15.1928
        21        2.0000           -0.5533133             -15.0564
        22        2.0000           -0.5462512             -14.8643
        23        2.0000           -0.5379785             -14.6391
        24        2.0000           -0.5203206             -14.1586
        25        2.0000           -0.5175385             -14.0829
        26        2.0000           -0.5082972             -13.8315
        27        2.0000           -0.4475903             -12.1796 (HOMO)
        28        0.0000           -0.4190387             -11.4026 (LUMO)
        29                         -0.3239697              -8.8157
        30                         -0.2513977              -6.8409
        31                         -0.1597521              -4.3471
        32                         -0.1546968              -4.2095
        33                         -0.1415315              -3.8513
        34                         -0.1351271              -3.6770
        35                         -0.1300664              -3.5393
        36                         -0.1159146              -3.1542
        37                         -0.1085203              -2.9530
        38                         -0.1010298              -2.7492
       ...                                ...                  ...
        62                          0.5479110              14.9094
      -------------------------------------------------------------
                  HL-Gap            0.0285516 Eh            0.7769 eV

Wiberg/Mayer (AO) data.
largest (>0.10) Wiberg bond orders for each atom

     #   Z sym  total        # sym  WBO       # sym  WBO       # sym  WBO
 ---------------------------------------------------------------------------
     1   6 C    3.948 --    11 H    0.982    13 H    0.975    12 H    0.975
                             2 C    0.865
     2   6 C    3.886 --     4 C    1.038    10 C    1.031     3 F    0.897
                             1 C    0.865
     3   9 F    1.005 --     2 C    0.897
     4   6 C    3.954 --     5 C    1.655     2 C    1.038    14 H    0.961
     5   6 C    3.986 --     4 C    1.655     6 C    1.267    15 H    0.957
     6   6 C    3.928 --     5 C    1.267     9 C    1.255     7 C    1.083
     7   6 C    3.981 --     6 C    1.083     8 N    1.025    16 H    0.910
                            17 H    0.889
     8   7 N    3.055 --     7 C    1.025    19 H    0.923    18 H    0.919
     9   6 C    3.987 --    10 C    1.670     6 C    1.255    20 H    0.961
    10   6 C    3.957 --     9 C    1.670     2 C    1.031    21 H    0.961
    11   1 H    0.995 --     1 C    0.982
    12   1 H    0.993 --     1 C    0.975
    13   1 H    0.993 --     1 C    0.975
    14   1 H    0.989 --     4 C    0.961
    15   1 H    0.999 --     5 C    0.957
    16   1 H    0.988 --     7 C    0.910
    17   1 H    0.986 --     7 C    0.889
    18   1 H    0.935 --     8 N    0.919
    19   1 H    0.941 --     8 N    0.923
    20   1 H    0.989 --     9 C    0.961
    21   1 H    0.989 --    10 C    0.961
 ---------------------------------------------------------------------------

           -------------------------------------------------
          | TOTAL ENERGY              -30.762823734786 Eh   |
          | GRADIENT NORM               0.000177289350 Eh/α |
          | HOMO-LUMO GAP               0.776929004379 eV   |
           -------------------------------------------------

 * finished run on 2023/06/20 at 15:14:34.454
