   * xtb version 6.5.1 (579679a) compiled by 'ehlert@majestix' on 2022-07-11
          program call               : /lustre/hpc/kemi/ree/PhD/git/ReactivityQM/dep/xtb-6.5.1/bin/xtb --gfn 1 /lustre/hpc/kemi/ree/PhD/git/ReactivityQM/calculations/R02deprot/reac01prodE14/conf16/R02deprot_reac01prodE14_conf16_gfn1.xyz --opt --vfukui --chrg -2 --uhf 0 --alpb DMSO

   ID    Z sym.   atoms
    1    6 C      1, 3, 5, 7-10, 12, 14, 17, 18, 21, 23, 24
    2    8 O      2, 4, 13, 19, 22, 25
    3    7 N      6, 11, 15, 16, 20
    4    1 H      26-42

      * Solvation model:               ALPB
        Solvent                        DMSO
        Solvent mass                       7.8130E+01 g/mol
          :  Hamiltonian                  GFN1-xTB          :
 * total energy  :   -83.5954094 Eh     change       -0.5641709E-11 Eh
 * total energy  :   -83.6177137 Eh     change       -0.2230432E-01 Eh
 * total energy  :   -83.6279757 Eh     change       -0.1026200E-01 Eh
 * total energy  :   -83.6303942 Eh     change       -0.2418467E-02 Eh
 * total energy  :   -83.6321017 Eh     change       -0.1707503E-02 Eh
 * total energy  :   -83.6328542 Eh     change       -0.7524803E-03 Eh
 * total energy  :   -83.6333463 Eh     change       -0.4921139E-03 Eh
 * total energy  :   -83.6337053 Eh     change       -0.3590564E-03 Eh
 * total energy  :   -83.6339613 Eh     change       -0.2560104E-03 Eh
 * total energy  :   -83.6341906 Eh     change       -0.2292643E-03 Eh
 * total energy  :   -83.6352429 Eh     change       -0.2189372E-04 Eh
 * total energy  :   -83.6352643 Eh     change       -0.2139766E-04 Eh
 * total energy  :   -83.6352793 Eh     change       -0.1506292E-04 Eh
 * total energy  :   -83.6352935 Eh     change       -0.1415985E-04 Eh
 * total energy  :   -83.6353069 Eh     change       -0.1335388E-04 Eh
 * total energy  :   -83.6353208 Eh     change       -0.1390007E-04 Eh
 * total energy  :   -83.6353346 Eh     change       -0.1379668E-04 Eh
 * total energy  :   -83.6353465 Eh     change       -0.1194305E-04 Eh
 * total energy  :   -83.6353504 Eh     change       -0.3853345E-05 Eh
   *** GEOMETRY OPTIMIZATION CONVERGED AFTER 44 ITERATIONS ***

 final structure:
================
42
 xtb: 6.5.1 (579679a)
C           -1.77976376443626        3.79652730347319       -0.10694104142536
O           -1.53244535043579        2.42645146800840       -0.32170580941443
C           -2.69495837830631        1.60712111883598       -0.28638636640168
O           -3.79279277454041        2.16764194830707       -0.06605012528130
C           -2.43572427467825        0.25703262342296       -0.50601135609855
N           -1.12199561229116       -0.17355372367244       -0.61105539505295
C           -0.86768314398790       -1.42971772822176       -0.78660819677911
C            0.59474308664851       -1.86831065655583       -0.84576410248984
C            0.83047220866982       -3.00267242790020        0.16245255674470
C            0.93153879490770       -2.34336265109147       -2.26783310761931
N            1.40498357397887       -0.70297896318294       -0.49699513025086
C            2.73709532273693       -0.68787079174470       -0.38853769057232
O            3.48840742668233       -1.63776590820317       -0.61012977231814
C            3.23233564315870        0.64042232916789        0.05080411185644
N            2.50524209728368        1.69126217144077        0.31015640418039
N            3.36435413246526        2.67652824303073        0.70864605428991
C            4.55447068956460        2.16866163185616        0.66972336296787
C            5.83038572574056        2.83293320471582        1.02024087571581
O            4.54736930979289        0.88753293833250        0.26220962663220
N           -1.75603300093274       -2.45325964657252       -0.99116809498612
C           -3.05094313054721       -2.17823990805883       -0.94903589127825
O           -3.94439495760181       -3.01171838525546       -1.23448627178950
C           -3.55390619710375       -0.76236703088680       -0.52636134209521
C           -4.22123620816748       -0.89827168651111        0.86346068359617
O           -4.57168059786968       -0.39940701883136       -1.47964105305379
H           -2.21354622746421        3.98019639544946        0.88573404879795
H           -0.82426885028363        4.32119611741212       -0.17776870643375
H           -2.46621030238916        4.20825681268765       -0.85992635585778
H            0.10576412813727       -3.79446262383269       -0.03025609341812
H            1.83641556859690       -3.40931262898812        0.06989554066035
H            0.68917772365194       -2.63610512329165        1.17920573065858
H            0.23327636910857       -3.13313561551582       -2.54611019797041
H            1.94802157954254       -2.73131715942307       -2.32020977942537
H            0.83109301886329       -1.51806426577996       -2.97309873768671
H            0.86705495569939        0.14493262251868       -0.29896555343293
H            6.51465437384473        2.80464422431061        0.17303617543635
H            5.63967965673489        3.86598568752062        1.29918342275339
H            6.30503756072660        2.31513003380510        1.85338293033071
H           -4.71495678116997        0.03704777642466        1.12885191801438
H           -3.46940248287681       -1.13378683752246        1.61675315785725
H           -4.96389279953957       -1.69647781553384        0.84114611165191
H           -5.01573811191413       -1.22734605414280       -1.72660454101615

          :  Hamiltonian                  GFN1-xTB          :
         :: total energy             -83.635350356626 Eh    ::
         :: gradient norm              0.000318366971 Eh/a0 ::
         :: HOMO-LUMO gap              0.151355577005 eV    ::
         :: SCC energy               -84.368539313368 Eh    ::
         :: -> Gsolv                  -0.280499092547 Eh    ::
         :: repulsion energy           0.759065573577 Eh    ::

    * Orbital Energies and Occupations

         #    Occupation            Energy/Eh            Energy/eV
      -------------------------------------------------------------
         1        2.0000           -0.8419546             -22.9108
       ...           ...                  ...                  ...
        56        2.0000           -0.4383665             -11.9286
        57        2.0000           -0.4358718             -11.8607
        58        2.0000           -0.4288041             -11.6684
        59        2.0000           -0.4241857             -11.5427
        60        2.0000           -0.4229198             -11.5082
        61        2.0000           -0.4140755             -11.2676
        62        2.0000           -0.4104706             -11.1695
        63        2.0000           -0.3949039             -10.7459
        64        2.0000           -0.3835667             -10.4374
        65        2.0000           -0.3610915              -9.8258
        66        2.0000           -0.3561890              -9.6924
        67        2.0000           -0.3293123              -8.9610
        68        1.8984           -0.2901842              -7.8963 (HOMO)
        69        0.1016           -0.2846220              -7.7450 (LUMO)
        70                         -0.2392494              -6.5103
        71                         -0.2030649              -5.5257
        72                         -0.1705063              -4.6397
        73                         -0.1361158              -3.7039
        74                         -0.1354119              -3.6847
        75                         -0.1137346              -3.0949
        76                         -0.1052025              -2.8627
        77                         -0.0949232              -2.5830
        78                         -0.0925968              -2.5197
        79                         -0.0744183              -2.0250
       ...                                ...                  ...
       134                          0.7236937              19.6927
      -------------------------------------------------------------
                  HL-Gap            0.0055622 Eh            0.1514 eV

Wiberg/Mayer (AO) data.
largest (>0.10) Wiberg bond orders for each atom

     #   Z sym  total        # sym  WBO       # sym  WBO       # sym  WBO
 ---------------------------------------------------------------------------
     1   6 C    3.926 --    27 H    0.987    26 H    0.980    28 H    0.980
                             2 O    0.960
     2   8 O    2.046 --     1 C    0.960     3 C    0.909
     3   6 C    3.847 --     4 O    1.427     5 C    1.379     2 O    0.909
     4   8 O    1.736 --     3 C    1.427     5 C    0.120
     5   6 C    3.812 --     3 C    1.379     6 N    1.142    23 C    0.982
                             4 O    0.120
     6   7 N    3.039 --     7 C    1.570     5 C    1.142
     7   6 C    3.931 --     6 N    1.570    20 N    1.176     8 C    0.963
     8   6 C    3.920 --     9 C    0.986    10 C    0.983     7 C    0.963
                            11 N    0.918
     9   6 C    3.992 --    31 H    0.987     8 C    0.986    30 H    0.985
                            29 H    0.983
    10   6 C    3.991 --    34 H    0.987    32 H    0.985    33 H    0.985
                             8 C    0.983
    11   7 N    3.367 --    12 C    1.295     8 C    0.918    35 H    0.875
                            13 O    0.181
    12   6 C    3.898 --    13 O    1.527    11 N    1.295    14 C    0.999
    13   8 O    1.833 --    12 C    1.527    11 N    0.181
    14   6 C    3.821 --    15 N    1.583    19 O    1.042    12 C    0.999
    15   7 N    2.956 --    14 C    1.583    16 N    1.186
    16   7 N    2.980 --    17 C    1.622    15 N    1.186
    17   6 C    3.864 --    16 N    1.622    19 O    1.074    18 C    1.028
    18   6 C    3.990 --    17 C    1.028    37 H    0.984    36 H    0.967
                            38 H    0.966
    19   8 O    2.292 --    17 C    1.074    14 C    1.042
    20   7 N    2.925 --    21 C    1.391     7 C    1.176    22 O    0.133
    21   6 C    3.902 --    22 O    1.463    20 N    1.391    23 C    0.909
    22   8 O    1.769 --    21 C    1.463    20 N    0.133
    23   6 C    3.898 --     5 C    0.982    24 C    0.968    25 O    0.919
                            21 C    0.909
    24   6 C    3.990 --    40 H    0.989    41 H    0.987    39 H    0.985
                            23 C    0.968
    25   8 O    1.872 --    23 C    0.919    42 H    0.865
    26   1 H    1.023 --     1 C    0.980
    27   1 H    1.022 --     1 C    0.987
    28   1 H    1.024 --     1 C    0.980
    29   1 H    1.025 --     9 C    0.983
    30   1 H    1.014 --     9 C    0.985
    31   1 H    1.009 --     9 C    0.987
    32   1 H    1.020 --    10 C    0.985
    33   1 H    1.014 --    10 C    0.985
    34   1 H    1.009 --    10 C    0.987
    35   1 H    0.996 --    11 N    0.875
    36   1 H    0.999 --    18 C    0.967
    37   1 H    1.001 --    18 C    0.984
    38   1 H    0.999 --    18 C    0.966
    39   1 H    1.025 --    24 C    0.985
    40   1 H    1.014 --    24 C    0.989
    41   1 H    1.017 --    24 C    0.987
    42   1 H    0.914 --    25 O    0.865
 ---------------------------------------------------------------------------

           -------------------------------------------------
          | TOTAL ENERGY              -83.635350356626 Eh   |
          | GRADIENT NORM               0.000318366971 Eh/α |
          | HOMO-LUMO GAP               0.151355577005 eV   |
           -------------------------------------------------

 * finished run on 2023/06/20 at 18:04:24.751
