   * xtb version 6.5.1 (579679a) compiled by 'ehlert@majestix' on 2022-07-11
          program call               : /lustre/hpc/kemi/ree/PhD/git/ReactivityQM/dep/xtb-6.5.1/bin/xtb --gfn 1 /lustre/hpc/kemi/ree/PhD/git/ReactivityQM/calculations/R01/reac02prodE03/conf09/R01_reac02prodE03_conf09_gfn1.xyz --opt --vfukui --chrg -1 --uhf 0 --alpb DMSO

   ID    Z sym.   atoms
    1    6 C      1, 3, 5, 6, 8-11, 14, 16
    2    8 O      2, 4, 15, 17
    3    7 N      7, 12, 13
    4    1 H      18-33

      * Solvation model:               ALPB
        Solvent                        DMSO
        Solvent mass                       7.8130E+01 g/mol
          :  Hamiltonian                  GFN1-xTB          :
 * total energy  :   -58.5331077 Eh     change       -0.4021672E-11 Eh
 * total energy  :   -58.5465642 Eh     change       -0.1345651E-01 Eh
 * total energy  :   -58.5502689 Eh     change       -0.3704639E-02 Eh
 * total energy  :   -58.5509266 Eh     change       -0.6576899E-03 Eh
 * total energy  :   -58.5514308 Eh     change       -0.5042484E-03 Eh
 * total energy  :   -58.5515845 Eh     change       -0.1536963E-03 Eh
 * total energy  :   -58.5517071 Eh     change       -0.1225563E-03 Eh
 * total energy  :   -58.5518232 Eh     change       -0.1161861E-03 Eh
 * total energy  :   -58.5519417 Eh     change       -0.1184231E-03 Eh
 * total energy  :   -58.5520793 Eh     change       -0.1376477E-03 Eh
 * total energy  :   -58.5544989 Eh     change       -0.7524513E-05 Eh
 * total energy  :   -58.5545124 Eh     change       -0.1347764E-04 Eh
 * total energy  :   -58.5545270 Eh     change       -0.1460974E-04 Eh
 * total energy  :   -58.5545367 Eh     change       -0.9685836E-05 Eh
 * total energy  :   -58.5545434 Eh     change       -0.6642192E-05 Eh
 * total energy  :   -58.5545503 Eh     change       -0.6919581E-05 Eh
 * total energy  :   -58.5545456 Eh     change        0.4684257E-05 Eh
 * total energy  :   -58.5545567 Eh     change       -0.1111392E-04 Eh
 * total energy  :   -58.5545605 Eh     change       -0.3779212E-05 Eh
   *** GEOMETRY OPTIMIZATION CONVERGED AFTER 44 ITERATIONS ***

 final structure:
================
33
 xtb: 6.5.1 (579679a)
C            4.16582923513530        1.47199296592033       -0.31288877203692
O            3.27297515147055        0.38141215373958       -0.51659005335843
C            1.96560375916128        0.62037906709078       -0.26110828999036
O            1.57552622110617        1.72016781035006        0.09007487695828
C            1.11688970330454       -0.65486891309650       -0.30282202432926
C            1.59265418314371       -1.62683387079329       -1.38879179890711
N           -0.27637130275685       -0.29892718740263       -0.56503914217179
C           -1.02058585772202        0.00724352078084        0.43479517886459
C           -2.46494750597528        0.40119585493070        0.14393028835405
C           -3.21733866550093       -0.86671125675451       -0.27995071161067
C           -2.49639834218291        1.43919837610897       -0.98776749826531
N           -3.08843477435554        0.93015849583920        1.35605952343768
N           -0.63582579775005       -0.02907197451349        1.73431240211709
C            0.48223058480147       -0.86375214560608        2.12960210270983
O            0.54429032741944       -1.22853498851203        3.33923761225543
C            1.30475379261623       -1.18806656333652        1.09405829394963
O            2.43854478188985       -2.01679907816712        1.30129665809851
H            4.13698843940360        1.80641504939851        0.72859235402373
H            5.16485327999619        1.11701132744266       -0.56069633769670
H            3.89964806210173        2.31161010452180       -0.96169918626041
H            0.95415766135447       -2.50987388561279       -1.38466537521784
H            1.52933493440607       -1.15323084016255       -2.36807910730097
H            2.62135365637000       -1.93331176542102       -1.20568024075902
H           -4.23753671552647       -0.62196433362687       -0.57314610409446
H           -3.25076017024983       -1.57668888317258        0.54663925127164
H           -2.70856309151933       -1.33095125817288       -1.12513246496009
H           -1.99831808675869        1.03513625523797       -1.86980370405415
H           -3.52540583093220        1.68946800310469       -1.24028711309164
H           -1.97989950798981        2.34804119989458       -0.67889547768969
H           -4.09195826622965        0.88456239945699        1.26295536453786
H           -2.84626991895577        1.90618865897524        1.46777178328410
H           -1.36420649501762        0.07980782933036        2.42662391993004
H            2.43718555574444       -2.25040012777322        2.24033279200094

          :  Hamiltonian                  GFN1-xTB          :
         :: total energy             -58.554560487126 Eh    ::
         :: gradient norm              0.000410709665 Eh/a0 ::
         :: HOMO-LUMO gap              2.077248551629 eV    ::
         :: SCC energy               -59.097377785227 Eh    ::
         :: -> Gsolv                  -0.113307268044 Eh    ::
         :: repulsion energy           0.562343345791 Eh    ::

    * Orbital Energies and Occupations

         #    Occupation            Energy/Eh            Energy/eV
      -------------------------------------------------------------
         1        2.0000           -0.8070748             -21.9616
       ...           ...                  ...                  ...
        36        2.0000           -0.4829612             -13.1420
        37        2.0000           -0.4778561             -13.0031
        38        2.0000           -0.4729664             -12.8701
        39        2.0000           -0.4686883             -12.7537
        40        2.0000           -0.4601413             -12.5211
        41        2.0000           -0.4518757             -12.2962
        42        2.0000           -0.4455981             -12.1253
        43        2.0000           -0.4320686             -11.7572
        44        2.0000           -0.4004734             -10.8974
        45        2.0000           -0.3867082             -10.5229
        46        2.0000           -0.3814728             -10.3804
        47        2.0000           -0.3700438             -10.0694
        48        2.0000           -0.3066346              -8.3440 (HOMO)
        49                         -0.2302971              -6.2667 (LUMO)
        50                         -0.2092316              -5.6935
        51                         -0.1279974              -3.4830
        52                         -0.1248960              -3.3986
        53                         -0.1099430              -2.9917
        54                         -0.1066852              -2.9031
        55                         -0.0967103              -2.6316
        56                         -0.0862283              -2.3464
        57                         -0.0641741              -1.7463
        58                         -0.0638254              -1.7368
        59                         -0.0634083              -1.7254
       ...                                ...                  ...
       100                          0.7066584              19.2292
      -------------------------------------------------------------
                  HL-Gap            0.0763375 Eh            2.0772 eV

Wiberg/Mayer (AO) data.
largest (>0.10) Wiberg bond orders for each atom

     #   Z sym  total        # sym  WBO       # sym  WBO       # sym  WBO
 ---------------------------------------------------------------------------
     1   6 C    3.893 --    19 H    0.987    20 H    0.981    18 H    0.981
                             2 O    0.915
     2   8 O    2.167 --     3 C    1.060     1 C    0.915     4 O    0.113
     3   6 C    3.812 --     4 O    1.625     2 O    1.060     5 C    0.922
     4   8 O    1.887 --     3 C    1.625     2 O    0.113
     5   6 C    3.968 --     6 C    0.989     7 N    0.974    16 C    0.952
                             3 C    0.922
     6   6 C    3.997 --     5 C    0.989    22 H    0.988    21 H    0.987
                            23 H    0.985
     7   7 N    2.963 --     8 C    1.661     5 C    0.974    13 N    0.158
     8   6 C    3.946 --     7 N    1.661    13 N    1.198     9 C    0.968
     9   6 C    3.965 --    10 C    0.988    11 C    0.986    12 N    0.983
                             8 C    0.968
    10   6 C    3.996 --     9 C    0.988    25 H    0.986    26 H    0.986
                            24 H    0.986
    11   6 C    3.996 --    28 H    0.987     9 C    0.986    29 H    0.985
                            27 H    0.983
    12   7 N    2.976 --     9 C    0.983    31 H    0.947    30 H    0.946
    13   7 N    3.317 --     8 C    1.198    14 C    0.918    32 H    0.904
                             7 N    0.158
    14   6 C    3.921 --    16 C    1.506    15 O    1.359    13 N    0.918
    15   8 O    1.700 --    14 C    1.359    16 C    0.166
    16   6 C    3.791 --    14 C    1.506     5 C    0.952    17 O    0.941
                            15 O    0.166
    17   8 O    1.914 --    16 C    0.941    33 H    0.859
    18   1 H    1.011 --     1 C    0.981
    19   1 H    1.014 --     1 C    0.987
    20   1 H    1.013 --     1 C    0.981
    21   1 H    1.013 --     6 C    0.987
    22   1 H    1.011 --     6 C    0.988
    23   1 H    1.018 --     6 C    0.985
    24   1 H    1.003 --    10 C    0.986
    25   1 H    1.006 --    10 C    0.986
    26   1 H    1.014 --    10 C    0.986
    27   1 H    1.019 --    11 C    0.983
    28   1 H    1.006 --    11 C    0.987
    29   1 H    1.007 --    11 C    0.985
    30   1 H    0.962 --    12 N    0.946
    31   1 H    0.963 --    12 N    0.947
    32   1 H    0.979 --    13 N    0.904
    33   1 H    0.893 --    17 O    0.859
 ---------------------------------------------------------------------------

           -------------------------------------------------
          | TOTAL ENERGY              -58.554560487126 Eh   |
          | GRADIENT NORM               0.000410709665 Eh/α |
          | HOMO-LUMO GAP               2.077248551629 eV   |
           -------------------------------------------------

 * finished run on 2023/06/20 at 14:58:56.712
