   * xtb version 6.5.1 (579679a) compiled by 'ehlert@majestix' on 2022-07-11
          program call               : /lustre/hpc/kemi/ree/PhD/git/ReactivityQM/dep/xtb-6.5.1/bin/xtb --gfn 1 /lustre/hpc/kemi/ree/PhD/git/ReactivityQM/calculations/R02deprot/reac01prodN13/conf19/R02deprot_reac01prodN13_conf19_gfn1.xyz --opt --vfukui --chrg 0 --uhf 0 --alpb DMSO

   ID    Z sym.   atoms
    1    6 C      1, 3, 5, 7-10, 12, 14, 15, 18, 19, 22, 24
    2    8 O      2, 4, 13, 20, 23, 25
    3    7 N      6, 11, 16, 17, 21
    4    1 H      26-42

      * Solvation model:               ALPB
        Solvent                        DMSO
        Solvent mass                       7.8130E+01 g/mol
          :  Hamiltonian                  GFN1-xTB          :
 * total energy  :   -82.9188393 Eh     change       -0.6969287E-09 Eh
 * total energy  :   -82.9311543 Eh     change       -0.1231507E-01 Eh
 * total energy  :   -82.9357510 Eh     change       -0.4596626E-02 Eh
 * total energy  :   -82.9364715 Eh     change       -0.7205925E-03 Eh
 * total energy  :   -82.9369199 Eh     change       -0.4483983E-03 Eh
 * total energy  :   -82.9371184 Eh     change       -0.1984737E-03 Eh
 * total energy  :   -82.9372981 Eh     change       -0.1796469E-03 Eh
 * total energy  :   -82.9374738 Eh     change       -0.1757415E-03 Eh
 * total energy  :   -82.9376447 Eh     change       -0.1708999E-03 Eh
 * total energy  :   -82.9377985 Eh     change       -0.1537725E-03 Eh
 * total energy  :   -82.9859983 Eh     change       -0.2023782E-04 Eh
 * total energy  :   -82.9860087 Eh     change       -0.1042116E-04 Eh
 * total energy  :   -82.9860304 Eh     change       -0.2163991E-04 Eh
 * total energy  :   -82.9860492 Eh     change       -0.1878691E-04 Eh
 * total energy  :   -82.9860305 Eh     change        0.1863964E-04 Eh
 * total energy  :   -82.9860617 Eh     change       -0.3114232E-04 Eh
 * total energy  :   -82.9860701 Eh     change       -0.8452472E-05 Eh
 * total energy  :   -82.9860776 Eh     change       -0.7493990E-05 Eh
 * total energy  :   -82.9860802 Eh     change       -0.2563878E-05 Eh
   *** GEOMETRY OPTIMIZATION CONVERGED AFTER 185 ITERATIONS ***

 final structure:
================
42
 xtb: 6.5.1 (579679a)
C            6.78631952229069       -0.08360938603507       -0.18097687897598
O            5.46429047962652        0.41908439569835       -0.42999041627977
C            4.45499687533631       -0.35200997266316       -0.00608130327219
O            4.62602120249653       -1.40485144731105        0.55820356577269
C            3.11038141608773        0.22099296152018       -0.30882620373616
N            2.08526158287623       -0.57765911618528        0.04871105145962
C            0.85252081581604       -0.18343278801386       -0.17518045227218
C           -0.24255882083914       -1.14515897301612        0.23687408383101
C           -0.09525078989509       -1.45227711891168        1.73418840407917
C           -0.10049307025880       -2.42347714864453       -0.60432885124865
N           -1.53635620476571       -0.51383664660156       -0.02281493462796
C           -2.70178184594900       -1.12630800139782        0.19249271918044
O           -2.84575845172337       -2.24632767317829        0.65550006943977
C           -3.94862715951370       -0.30730558262673       -0.22553327955511
C           -4.66758149721675       -1.03114360559897       -1.36456088077248
N           -4.84009202883993       -0.19845908791085        0.92741801026816
N           -5.04233214305708        0.99470247650054        1.19526738936478
C           -4.33921473603746        1.81438439856563        0.29691117803685
C           -4.37370117664846        3.14428726665978        0.29724167057526
O           -3.63886453229391        1.02669223758384       -0.56369675780007
N            0.52112005904951        0.98251641406056       -0.75025243208085
C            1.49732446258059        1.78849813626841       -1.11121062014175
O            1.20200587992313        2.95090509634075       -1.69343325430989
C            2.86329603456123        1.45130998381568       -0.90475548931449
O            3.78582848823983        2.34079919257912       -1.29956557185101
H            6.90153036206883       -1.06653700132245       -0.64281239689379
H            6.95518815711195       -0.16301774719977        0.89507952117958
H            7.47869409946654        0.62799869813129       -0.62317602362732
H            0.90744661238033       -1.83446290494625        1.92075559915951
H           -0.24181311404012       -0.54247232677132        2.31476914087092
H           -0.82595976236691       -2.19770962236421        2.04331208846602
H            0.91222521017400       -2.80876569358800       -0.49509708019010
H           -0.80944536897080       -3.17961223111897       -0.27208867087162
H           -0.28419696663224       -2.19682029833026       -1.65342021324760
H           -1.51663648245492        0.40042958391757       -0.45586562505858
H           -5.59637014072902       -0.51427798032263       -1.59510297846492
H           -4.03032937606789       -1.03710475796849       -2.24558224303939
H           -4.87945404643632       -2.05358742089215       -1.05796674938028
H           -3.82687336864072        3.72444962264754       -0.42633452644464
H            0.24739027151614        3.04896688418917       -1.80313592969932
H           -4.96162271926451        3.67005826632335        1.03083859026843
H            4.69347327103006        2.03414691810922       -1.13143431880772

          :  Hamiltonian                  GFN1-xTB          :
         :: total energy             -82.986080170522 Eh    ::
         :: gradient norm              0.000269267609 Eh/a0 ::
         :: HOMO-LUMO gap              2.484990851487 eV    ::
         :: SCC energy               -83.766914187070 Eh    ::
         :: -> Gsolv                  -0.054080068447 Eh    ::
         :: repulsion energy           0.807055526413 Eh    ::

    * Orbital Energies and Occupations

         #    Occupation            Energy/Eh            Energy/eV
      -------------------------------------------------------------
         1        2.0000           -0.8460454             -23.0221
       ...           ...                  ...                  ...
        55        2.0000           -0.5006985             -13.6247
        56        2.0000           -0.4998750             -13.6023
        57        2.0000           -0.4974238             -13.5356
        58        2.0000           -0.4965452             -13.5117
        59        2.0000           -0.4831668             -13.1476
        60        2.0000           -0.4789291             -13.0323
        61        2.0000           -0.4715382             -12.8312
        62        2.0000           -0.4607338             -12.5372
        63        2.0000           -0.4496542             -12.2357
        64        2.0000           -0.4405082             -11.9868
        65        2.0000           -0.4346965             -11.8287
        66        2.0000           -0.4320889             -11.7577
        67        2.0000           -0.4223102             -11.4916 (HOMO)
        68                         -0.3309885              -9.0067 (LUMO)
        69                         -0.3243849              -8.8270
        70                         -0.2826427              -7.6911
        71                         -0.2531950              -6.8898
        72                         -0.2402600              -6.5378
        73                         -0.2110736              -5.7436
        74                         -0.1559312              -4.2431
        75                         -0.1377050              -3.7471
        76                         -0.1264904              -3.4420
        77                         -0.1186621              -3.2290
        78                         -0.1167120              -3.1759
       ...                                ...                  ...
       134                          0.7263736              19.7656
      -------------------------------------------------------------
                  HL-Gap            0.0913217 Eh            2.4850 eV

Wiberg/Mayer (AO) data.
largest (>0.10) Wiberg bond orders for each atom

     #   Z sym  total        # sym  WBO       # sym  WBO       # sym  WBO
 ---------------------------------------------------------------------------
     1   6 C    3.860 --    28 H    0.986    26 H    0.980    27 H    0.980
                             2 O    0.883
     2   8 O    2.206 --     3 C    1.093     1 C    0.883     4 O    0.132
     3   6 C    3.845 --     4 O    1.677     2 O    1.093     5 C    0.996
     4   8 O    1.939 --     3 C    1.677     2 O    0.132
     5   6 C    3.968 --    24 C    1.394     6 N    1.295     3 C    0.996
     6   7 N    3.032 --     7 C    1.464     5 C    1.295
     7   6 C    3.944 --     6 N    1.464    21 N    1.311     8 C    0.985
     8   6 C    3.935 --     7 C    0.985     9 C    0.981    10 C    0.978
                            11 N    0.926
     9   6 C    3.991 --    30 H    0.986    29 H    0.984    31 H    0.982
                             8 C    0.981
    10   6 C    3.990 --    34 H    0.986    32 H    0.984    33 H    0.981
                             8 C    0.978
    11   7 N    3.368 --    12 C    1.313     8 C    0.926    35 H    0.878
                            13 O    0.176
    12   6 C    3.907 --    13 O    1.591    11 N    1.313    14 C    0.894
    13   8 O    1.905 --    12 C    1.591    11 N    0.176
    14   6 C    3.883 --    16 N    0.976    15 C    0.958    20 O    0.924
                            12 C    0.894
    15   6 C    3.986 --    36 H    0.983    37 H    0.983    38 H    0.983
                            14 C    0.958
    16   7 N    3.012 --    17 N    1.821    14 C    0.976    19 C    0.119
    17   7 N    3.021 --    16 N    1.821    18 C    1.068
    18   6 C    3.884 --    19 C    1.756    17 N    1.068    20 O    1.006
    19   6 C    3.976 --    18 C    1.756    41 H    0.978    39 H    0.976
                            16 N    0.119
    20   8 O    2.144 --    18 C    1.006    14 C    0.924
    21   7 N    3.043 --    22 C    1.412     7 C    1.311
    22   6 C    3.907 --    21 N    1.412    24 C    1.210    23 O    1.102
    23   8 O    2.082 --    22 C    1.102    40 H    0.817
    24   6 C    3.924 --     5 C    1.394    22 C    1.210    25 O    1.094
    25   8 O    2.069 --    24 C    1.094    42 H    0.803
    26   1 H    1.006 --     1 C    0.980
    27   1 H    1.006 --     1 C    0.980
    28   1 H    1.009 --     1 C    0.986
    29   1 H    1.010 --     9 C    0.984
    30   1 H    1.004 --     9 C    0.986
    31   1 H    1.010 --     9 C    0.982
    32   1 H    1.009 --    10 C    0.984
    33   1 H    1.010 --    10 C    0.981
    34   1 H    1.003 --    10 C    0.986
    35   1 H    0.960 --    11 N    0.878
    36   1 H    1.001 --    15 C    0.983
    37   1 H    1.001 --    15 C    0.983
    38   1 H    1.004 --    15 C    0.983
    39   1 H    0.997 --    19 C    0.976
    40   1 H    0.845 --    23 O    0.817
    41   1 H    1.000 --    19 C    0.978
    42   1 H    0.854 --    25 O    0.803
 ---------------------------------------------------------------------------

           -------------------------------------------------
          | TOTAL ENERGY              -82.986080170522 Eh   |
          | GRADIENT NORM               0.000269267609 Eh/α |
          | HOMO-LUMO GAP               2.484990851487 eV   |
           -------------------------------------------------

 * finished run on 2023/06/20 at 18:21:42.767
