   * xtb version 6.5.1 (579679a) compiled by 'ehlert@majestix' on 2022-07-11
          program call               : /lustre/hpc/kemi/ree/PhD/git/ReactivityQM/dep/xtb-6.5.1/bin/xtb --gfn 1 /lustre/hpc/kemi/ree/PhD/git/ReactivityQM/calculations/R02oxygendeprot/reac01prodN17/conf03/R02oxygendeprot_reac01prodN17_conf03_gfn1.xyz --opt --vfukui --chrg 0 --uhf 0 --alpb DMSO

   ID    Z sym.   atoms
    1    6 C      1, 3, 5, 7-10, 12, 13, 15, 18, 19, 22, 24
    2    8 O      2, 4, 14, 20, 23, 25
    3    7 N      6, 11, 16, 17, 21
    4    1 H      26-42

      * Solvation model:               ALPB
        Solvent                        DMSO
        Solvent mass                       7.8130E+01 g/mol
          :  Hamiltonian                  GFN1-xTB          :
 * total energy  :   -82.9300386 Eh     change       -0.1517279E-08 Eh
 * total energy  :   -82.9439250 Eh     change       -0.1388647E-01 Eh
 * total energy  :   -82.9487814 Eh     change       -0.4856395E-02 Eh
 * total energy  :   -82.9496695 Eh     change       -0.8880394E-03 Eh
 * total energy  :   -82.9502336 Eh     change       -0.5641024E-03 Eh
 * total energy  :   -82.9505736 Eh     change       -0.3400383E-03 Eh
 * total energy  :   -82.9508444 Eh     change       -0.2708303E-03 Eh
 * total energy  :   -82.9510679 Eh     change       -0.2235071E-03 Eh
 * total energy  :   -82.9512377 Eh     change       -0.1697305E-03 Eh
 * total energy  :   -82.9513760 Eh     change       -0.1383806E-03 Eh
 * total energy  :   -82.9802638 Eh     change       -0.4179987E-03 Eh
 * total energy  :   -82.9805868 Eh     change       -0.3230202E-03 Eh
 * total energy  :   -82.9808730 Eh     change       -0.2862070E-03 Eh
 * total energy  :   -82.9810885 Eh     change       -0.2154912E-03 Eh
 * total energy  :   -82.9812871 Eh     change       -0.1985564E-03 Eh
 * total energy  :   -82.9814807 Eh     change       -0.1936085E-03 Eh
 * total energy  :   -82.9816437 Eh     change       -0.1630576E-03 Eh
 * total energy  :   -82.9817872 Eh     change       -0.1434418E-03 Eh
 * total energy  :   -82.9819320 Eh     change       -0.1448262E-03 Eh
 * total energy  :   -82.9820522 Eh     change       -0.1202100E-03 Eh

 final structure:
================
42
 xtb: 6.5.1 (579679a)
C           -2.62487493914756        3.71572427427003       -2.27204955887887
O           -2.71583818899359        2.30211100980098       -2.08046475956507
C           -1.77862017219235        1.76455240560159       -1.28851343443395
O           -0.88236447812456        2.43332658890861       -0.80256081291116
C           -1.97155846256724        0.34066903925545       -1.01440058475639
N           -0.90420257049959       -0.34283174664494       -0.42982149526944
C           -1.05355564096203       -1.50695106866941        0.13429581222194
C            0.20840918774024       -2.19587865088039        0.57317825707685
C            0.49149098519609       -3.39365796364992       -0.33427379657809
C            0.16414960781057       -2.59732626845209        2.04740266970136
N            1.19862735761796       -1.10704616956953        0.38770589788567
C            2.59106519338082       -1.50315986996998        0.13510306248262
C            0.63806785691723       -0.21056193711775       -0.91966701304946
O            0.81078144475925       -0.77019067365675       -1.99665498244154
C            1.27344373054123        1.13351132049660       -0.67123137731449
N            1.78099235315587        1.90111170051621       -1.57839051989887
N            2.44567775768657        2.89884314900828       -0.91674885547171
C            2.32772243941213        2.65286495652373        0.34671428651611
C            2.92165667210517        3.39499103573721        1.47706608895493
O            1.60289051142826        1.53359137105479        0.57660244031236
N           -2.26448887811993       -2.08249120835759        0.24481593588283
C           -3.41275223976356       -1.59922975450513       -0.37938262903970
O           -4.44928820206149       -2.22141454034597       -0.28395483374874
C           -3.25258156422001       -0.28021877574977       -1.10719316522433
O           -4.23647808846020        0.19195609903583       -1.67909515944735
H           -3.47047388530369        4.00540447960936       -2.89264468637428
H           -1.68431785090086        3.97108990702154       -2.76697965426141
H           -2.66775963658396        4.22964976294589       -1.30645934637073
H            0.63249195213329       -3.06560279470927       -1.36344383666586
H            1.37759183749857       -3.92485975814285        0.00753197841939
H           -0.35755170569367       -4.07275312027800       -0.29022896442732
H            1.14441480283778       -2.94926670014705        2.36183555556062
H           -0.12803494046199       -1.75183174458469        2.66731028368309
H           -0.55644846712797       -3.40130653903319        2.18419574048537
H            1.17065686610357       -0.50399977869963        1.20851645703922
H            3.20828208930251       -0.61346854289128        0.23484863449312
H            2.89254777882052       -2.24619420638550        0.86511235674447
H            2.67034023209695       -1.90508917434677       -0.87351669337845
H            2.14697065816705        3.70299431037520        2.17906802292383
H            3.61961741356554        2.75242007518501        2.00868673423119
H            3.44330240706714        4.27237574478811        1.10075529771461
H           -2.35000022412784       -2.95185624339885        0.74440664715045

          :  Hamiltonian                  GFN1-xTB          :
         :: total energy             -82.982188845947 Eh    ::
         :: gradient norm              0.006857664992 Eh/a0 ::
         :: HOMO-LUMO gap              2.492974245197 eV    ::
         :: SCC energy               -83.745262280303 Eh    ::
         :: -> Gsolv                  -0.090762623760 Eh    ::
         :: repulsion energy           0.792615987664 Eh    ::

    * Orbital Energies and Occupations

         #    Occupation            Energy/Eh            Energy/eV
      -------------------------------------------------------------
         1        2.0000           -0.8637189             -23.5030
       ...           ...                  ...                  ...
        55        2.0000           -0.5094756             -13.8635
        56        2.0000           -0.5018834             -13.6569
        57        2.0000           -0.4992481             -13.5852
        58        2.0000           -0.4927472             -13.4083
        59        2.0000           -0.4880706             -13.2811
        60        2.0000           -0.4765461             -12.9675
        61        2.0000           -0.4752407             -12.9320
        62        2.0000           -0.4748173             -12.9204
        63        2.0000           -0.4619869             -12.5713
        64        2.0000           -0.4497761             -12.2390
        65        2.0000           -0.4472248             -12.1696
        66        2.0000           -0.4230220             -11.5110
        67        2.0000           -0.4108573             -11.1800 (HOMO)
        68                         -0.3192422              -8.6870 (LUMO)
        69                         -0.3020091              -8.2181
        70                         -0.2798929              -7.6163
        71                         -0.2514333              -6.8418
        72                         -0.2350476              -6.3960
        73                         -0.1756092              -4.7786
        74                         -0.1651101              -4.4929
        75                         -0.1542256              -4.1967
        76                         -0.1481030              -4.0301
        77                         -0.1432208              -3.8972
        78                         -0.1411819              -3.8418
       ...                                ...                  ...
       134                          0.7498974              20.4057
      -------------------------------------------------------------
                  HL-Gap            0.0916151 Eh            2.4930 eV

Wiberg/Mayer (AO) data.
largest (>0.10) Wiberg bond orders for each atom

     #   Z sym  total        # sym  WBO       # sym  WBO       # sym  WBO
 ---------------------------------------------------------------------------
     1   6 C    3.881 --    26 H    0.986    27 H    0.981    28 H    0.980
                             2 O    0.906
     2   8 O    2.192 --     3 C    1.094     1 C    0.906     4 O    0.120
     3   6 C    3.865 --     4 O    1.588     2 O    1.094     5 C    1.085
     4   8 O    1.887 --     3 C    1.588     2 O    0.120
     5   6 C    3.854 --    24 C    1.251     3 C    1.085     6 N    1.063
                            25 O    0.138
     6   7 N    3.515 --     7 C    1.456     5 C    1.063    13 C    0.680
     7   6 C    3.929 --     6 N    1.456    21 N    1.210     8 C    0.983
     8   6 C    3.925 --    10 C    0.987     7 C    0.983     9 C    0.982
                            11 N    0.915
     9   6 C    3.980 --     8 C    0.982    31 H    0.980    30 H    0.980
                            29 H    0.976
    10   6 C    3.983 --     8 C    0.987    33 H    0.981    32 H    0.979
                            34 H    0.979
    11   7 N    3.552 --    12 C    0.932     8 C    0.915    35 H    0.894
                            13 C    0.636    14 O    0.111
    12   6 C    3.912 --    36 H    0.982    37 H    0.981    38 H    0.979
                            11 N    0.932
    13   6 C    3.885 --    14 O    1.498    15 C    0.951     6 N    0.680
                            11 N    0.636
    14   8 O    1.834 --    13 C    1.498    11 N    0.111
    15   6 C    3.878 --    16 N    1.653    20 O    1.049    13 C    0.951
    16   7 N    2.996 --    15 C    1.653    17 N    1.173
    17   7 N    2.984 --    18 C    1.642    16 N    1.173
    18   6 C    3.866 --    17 N    1.642    20 O    1.046    19 C    1.032
    19   6 C    3.987 --    18 C    1.032    41 H    0.982    39 H    0.965
                            40 H    0.963
    20   8 O    2.304 --    15 C    1.049    18 C    1.046
    21   7 N    3.451 --     7 C    1.210    22 C    1.081    42 H    0.880
                            23 O    0.117
    22   6 C    3.864 --    23 O    1.664    21 N    1.081    24 C    0.952
    23   8 O    1.933 --    22 C    1.664    21 N    0.117
    24   6 C    3.942 --    25 O    1.572     5 C    1.251    22 C    0.952
    25   8 O    1.882 --    24 C    1.572     5 C    0.138
    26   1 H    1.012 --     1 C    0.986
    27   1 H    1.010 --     1 C    0.981
    28   1 H    1.009 --     1 C    0.980
    29   1 H    1.010 --     9 C    0.976
    30   1 H    0.995 --     9 C    0.980
    31   1 H    0.998 --     9 C    0.980
    32   1 H    0.994 --    10 C    0.979
    33   1 H    0.995 --    10 C    0.981
    34   1 H    0.995 --    10 C    0.979
    35   1 H    0.943 --    11 N    0.894
    36   1 H    0.997 --    12 C    0.982
    37   1 H    0.995 --    12 C    0.981
    38   1 H    1.002 --    12 C    0.979
    39   1 H    0.997 --    19 C    0.965
    40   1 H    0.998 --    19 C    0.963
    41   1 H    0.999 --    19 C    0.982
    42   1 H    0.924 --    21 N    0.880
 ---------------------------------------------------------------------------

           -------------------------------------------------
          | TOTAL ENERGY              -82.982188845947 Eh   |
          | GRADIENT NORM               0.006857664992 Eh/α |
          | HOMO-LUMO GAP               2.492974245197 eV   |
           -------------------------------------------------

 * finished run on 2023/06/21 at 17:37:41.783
