   * xtb version 6.5.1 (579679a) compiled by 'ehlert@majestix' on 2022-07-11
          program call               : /lustre/hpc/kemi/ree/PhD/git/ReactivityQM/dep/xtb-6.5.1/bin/xtb --gfn 1 /lustre/hpc/kemi/ree/PhD/git/ReactivityQM/calculations/R02/reac01prodN19/conf17/R02_reac01prodN19_conf17_gfn1.xyz --opt --vfukui --chrg 1 --uhf 0 --alpb DMSO

   ID    Z sym.   atoms
    1    6 C      1, 3, 5, 7-10, 12, 14, 17, 18, 21, 23, 24
    2    8 O      2, 4, 13, 19, 22, 25
    3    7 N      6, 11, 15, 16, 20
    4    1 H      26-43

      * Solvation model:               ALPB
        Solvent                        DMSO
        Solvent mass                       7.8130E+01 g/mol
          :  Hamiltonian                  GFN1-xTB          :
 * total energy  :   -83.1451054 Eh     change       -0.1675460E-10 Eh
 * total energy  :   -83.1656643 Eh     change       -0.2055881E-01 Eh
 * total energy  :   -83.1729632 Eh     change       -0.7298962E-02 Eh
 * total energy  :   -83.1747064 Eh     change       -0.1743212E-02 Eh
 * total energy  :   -83.1759081 Eh     change       -0.1201620E-02 Eh
 * total energy  :   -83.1764790 Eh     change       -0.5709942E-03 Eh
 * total energy  :   -83.1769313 Eh     change       -0.4522698E-03 Eh
 * total energy  :   -83.1772577 Eh     change       -0.3263749E-03 Eh
 * total energy  :   -83.1774875 Eh     change       -0.2298125E-03 Eh
 * total energy  :   -83.1776343 Eh     change       -0.1467942E-03 Eh
 * total energy  :   -83.1791151 Eh     change       -0.1830480E-04 Eh
 * total energy  :   -83.1791248 Eh     change       -0.9755621E-05 Eh
 * total energy  :   -83.1791360 Eh     change       -0.1113161E-04 Eh
 * total energy  :   -83.1791421 Eh     change       -0.6142603E-05 Eh
 * total energy  :   -83.1791656 Eh     change       -0.2349901E-04 Eh
 * total energy  :   -83.1791760 Eh     change       -0.1040237E-04 Eh
 * total energy  :   -83.1791867 Eh     change       -0.1066066E-04 Eh
 * total energy  :   -83.1791939 Eh     change       -0.7223226E-05 Eh
 * total energy  :   -83.1791977 Eh     change       -0.3785537E-05 Eh
   *** GEOMETRY OPTIMIZATION CONVERGED AFTER 49 ITERATIONS ***

 final structure:
================
43
 xtb: 6.5.1 (579679a)
C           -5.13546629231858        2.60268524908107       -1.16290242879813
O           -3.93426063362030        1.83821794761992       -0.95983235680364
C           -3.98614200033384        0.87658190986175       -0.07171778500543
O           -4.97232382759187        0.58650020880855        0.57603458328825
C           -2.69353338457233        0.13832957414523        0.09628709561543
N           -1.64565746239327        0.51461080829848       -0.66077829611181
C           -0.50552878870779       -0.09525726479407       -0.53191144191019
C            0.66651820573846        0.25959959194538       -1.41187859591411
C            0.67800676139995       -0.75167170727908       -2.57142148939853
C            0.53580539056138        1.69742665247372       -1.92360892304497
N            1.87624324907289        0.11974096414613       -0.59876070126954
C            3.12527718219083        0.27697153663284       -1.12039645083073
O            3.38707349726780        0.37065375093197       -2.30311884936522
C            4.16621032864383        0.29277000571206       -0.06798469174138
N            5.45092363479280        0.37279373866912       -0.21837501999408
N            5.99449533819719        0.36524123150646        1.02921751495706
C            5.00869222934957        0.28300052562876        1.86763892299007
C            5.06922065091746        0.26316877450928        3.34485281332889
O            3.82257874000566        0.23290625415230        1.23786058498039
N           -0.36521301790138       -1.12493006796814        0.35191207591406
C           -1.35696238233018       -1.55729233668554        1.14611891559321
O           -1.02535194670711       -2.54278609099431        1.93232187856736
C           -1.92666857068133       -3.14703532973944        2.87867308638730
C           -2.61089705614976       -0.89809654078984        1.02297597947093
O           -3.62466576090661       -1.29142194146196        1.77889149646277
H           -5.94029936578162        1.94124159760059       -1.48819452766701
H           -5.41818280196760        3.09292140517661       -0.22963786490847
H           -4.90372794740066        3.33731863572052       -1.93062891485250
H           -0.28534985470187       -0.72725146797626       -3.07776093589974
H            1.46126673098439       -0.49567359592056       -3.28226401762732
H            0.85460798265733       -1.75373861509161       -2.18608894962437
H           -0.40144920629506        1.80652440999865       -2.46624311721975
H            0.54386415035131        2.39152423378821       -1.08545004182720
H            1.36765873585686        1.92411592285068       -2.58838936099731
H            1.77981106598043        0.25176324529160        0.39394093262085
H            4.41100725113816       -0.51170018577533        3.73300552640412
H            6.09146924433909        0.08395344542201        3.67135409626423
H            4.72863294080227        1.22178661010915        3.73906546931910
H            0.52837631475630       -1.59526504555665        0.44341499635613
H           -2.27857563426338       -2.40014719522615        3.59056836245422
H           -1.33597824884104       -3.90888975861208        3.38537429948338
H           -2.76972759791566       -3.60022166835743        2.35622545667087
H           -4.43177984362413       -0.74096841787135        1.58866667368968

          :  Hamiltonian                  GFN1-xTB          :
         :: total energy             -83.179197695016 Eh    ::
         :: gradient norm              0.000722860511 Eh/a0 ::
         :: HOMO-LUMO gap              2.121042493718 eV    ::
         :: SCC energy               -83.972628441063 Eh    ::
         :: -> Gsolv                  -0.116582458357 Eh    ::
         :: repulsion energy           0.818828399268 Eh    ::

    * Orbital Energies and Occupations

         #    Occupation            Energy/Eh            Energy/eV
      -------------------------------------------------------------
         1        2.0000           -0.8983739             -24.4460
       ...           ...                  ...                  ...
        55        2.0000           -0.5311071             -14.4522
        56        2.0000           -0.5262462             -14.3199
        57        2.0000           -0.5183090             -14.1039
        58        2.0000           -0.5172869             -14.0761
        59        2.0000           -0.5122117             -13.9380
        60        2.0000           -0.5113162             -13.9136
        61        2.0000           -0.4878663             -13.2755
        62        2.0000           -0.4874953             -13.2654
        63        2.0000           -0.4821299             -13.1194
        64        2.0000           -0.4769194             -12.9776
        65        2.0000           -0.4714047             -12.8276
        66        2.0000           -0.4598611             -12.5135
        67        2.0000           -0.4587540             -12.4833 (HOMO)
        68                         -0.3808071             -10.3623 (LUMO)
        69                         -0.3350445              -9.1170
        70                         -0.3222218              -8.7681
        71                         -0.2882080              -7.8425
        72                         -0.2629424              -7.1550
        73                         -0.2096665              -5.7053
        74                         -0.2057301              -5.5982
        75                         -0.1607526              -4.3743
        76                         -0.1495134              -4.0685
        77                         -0.1482378              -4.0338
        78                         -0.1454156              -3.9570
       ...                                ...                  ...
       136                          0.7263995              19.7663
      -------------------------------------------------------------
                  HL-Gap            0.0779469 Eh            2.1210 eV

Wiberg/Mayer (AO) data.
largest (>0.10) Wiberg bond orders for each atom

     #   Z sym  total        # sym  WBO       # sym  WBO       # sym  WBO
 ---------------------------------------------------------------------------
     1   6 C    3.846 --    28 H    0.985    26 H    0.977    27 H    0.977
                             2 O    0.873
     2   8 O    2.246 --     3 C    1.178     1 C    0.873     4 O    0.143
     3   6 C    3.858 --     4 O    1.622     2 O    1.178     5 C    0.984
     4   8 O    1.975 --     3 C    1.622     2 O    0.143
     5   6 C    3.968 --    24 C    1.382     6 N    1.287     3 C    0.984
     6   7 N    3.046 --     7 C    1.519     5 C    1.287
     7   6 C    3.907 --     6 N    1.519    20 N    1.180     8 C    0.987
     8   6 C    3.932 --     7 C    0.987    10 C    0.985     9 C    0.964
                            11 N    0.932
     9   6 C    3.981 --    29 H    0.985    31 H    0.985    30 H    0.973
                             8 C    0.964
    10   6 C    3.984 --     8 C    0.985    33 H    0.984    32 H    0.983
                            34 H    0.981
    11   7 N    3.304 --    12 C    1.210     8 C    0.932    35 H    0.892
                            13 O    0.165
    12   6 C    3.910 --    13 O    1.615    11 N    1.210    14 C    0.999
    13   8 O    1.926 --    12 C    1.615    11 N    0.165
    14   6 C    3.874 --    15 N    1.619    19 O    1.044    12 C    0.999
    15   7 N    3.004 --    14 C    1.619    16 N    1.203
    16   7 N    2.983 --    17 C    1.606    15 N    1.203
    17   6 C    3.866 --    16 N    1.606    19 O    1.071    18 C    1.033
    18   6 C    3.985 --    17 C    1.033    37 H    0.981    36 H    0.968
                            38 H    0.957
    19   8 O    2.315 --    17 C    1.071    14 C    1.044
    20   7 N    3.538 --    21 C    1.267     7 C    1.180    39 H    0.860
    21   6 C    3.892 --    20 N    1.267    24 C    1.196    22 O    1.190
    22   8 O    2.265 --    21 C    1.190    23 C    0.855
    23   6 C    3.822 --    41 H    0.981    40 H    0.976    42 H    0.975
                            22 O    0.855
    24   6 C    3.934 --     5 C    1.382    21 C    1.196    25 O    1.145
    25   8 O    2.102 --    24 C    1.145    43 H    0.738
    26   1 H    1.002 --     1 C    0.977
    27   1 H    1.002 --     1 C    0.977
    28   1 H    1.007 --     1 C    0.985
    29   1 H    0.999 --     9 C    0.985
    30   1 H    1.007 --     9 C    0.973
    31   1 H    0.999 --     9 C    0.985
    32   1 H    1.006 --    10 C    0.983
    33   1 H    1.000 --    10 C    0.984
    34   1 H    1.003 --    10 C    0.981
    35   1 H    0.934 --    11 N    0.892
    36   1 H    0.996 --    18 C    0.968
    37   1 H    0.997 --    18 C    0.981
    38   1 H    0.996 --    18 C    0.957
    39   1 H    0.908 --    20 N    0.860
    40   1 H    1.004 --    23 C    0.976
    41   1 H    1.003 --    23 C    0.981
    42   1 H    1.004 --    23 C    0.975
    43   1 H    0.825 --    25 O    0.738
 ---------------------------------------------------------------------------

           -------------------------------------------------
          | TOTAL ENERGY              -83.179197695016 Eh   |
          | GRADIENT NORM               0.000722860511 Eh/α |
          | HOMO-LUMO GAP               2.121042493718 eV   |
           -------------------------------------------------

 * finished run on 2023/06/20 at 15:46:27.531
