   * xtb version 6.5.1 (579679a) compiled by 'ehlert@majestix' on 2022-07-11
          program call               : /lustre/hpc/kemi/ree/PhD/git/ReactivityQM/dep/xtb-6.5.1/bin/xtb --gfn 1 /lustre/hpc/kemi/ree/PhD/git/ReactivityQM/calculations/R02deprot/reac01prodE07/conf15/R02deprot_reac01prodE07_conf15_gfn1.xyz --opt --vfukui --chrg -2 --uhf 0 --alpb DMSO

   ID    Z sym.   atoms
    1    6 C      1, 3, 5, 7-10, 12, 14, 15, 18, 19, 22, 24
    2    8 O      2, 4, 13, 20, 23, 25
    3    7 N      6, 11, 16, 17, 21
    4    1 H      26-42

      * Solvation model:               ALPB
        Solvent                        DMSO
        Solvent mass                       7.8130E+01 g/mol
          :  Hamiltonian                  GFN1-xTB          :
 * total energy  :   -83.5683416 Eh     change       -0.2664535E-10 Eh
 * total energy  :   -83.5817902 Eh     change       -0.1344856E-01 Eh
 * total energy  :   -83.5873704 Eh     change       -0.5580185E-02 Eh
 * total energy  :   -83.5888838 Eh     change       -0.1513467E-02 Eh
 * total energy  :   -83.5905534 Eh     change       -0.1669599E-02 Eh
 * total energy  :   -83.5914790 Eh     change       -0.9256292E-03 Eh
 * total energy  :   -83.5925117 Eh     change       -0.1032652E-02 Eh
 * total energy  :   -83.5930032 Eh     change       -0.4914836E-03 Eh
 * total energy  :   -83.5934139 Eh     change       -0.4106974E-03 Eh
 * total energy  :   -83.5936537 Eh     change       -0.2397969E-03 Eh
 * total energy  :   -83.6031886 Eh     change       -0.1983748E-04 Eh
 * total energy  :   -83.6032054 Eh     change       -0.1673122E-04 Eh
 * total energy  :   -83.6032182 Eh     change       -0.1286812E-04 Eh
 * total energy  :   -83.6032314 Eh     change       -0.1316985E-04 Eh
 * total energy  :   -83.6032452 Eh     change       -0.1378567E-04 Eh
 * total energy  :   -83.6032631 Eh     change       -0.1791151E-04 Eh
 * total energy  :   -83.6032709 Eh     change       -0.7839088E-05 Eh
 * total energy  :   -83.6032785 Eh     change       -0.7517595E-05 Eh
 * total energy  :   -83.6032832 Eh     change       -0.4748114E-05 Eh
   *** GEOMETRY OPTIMIZATION CONVERGED AFTER 70 ITERATIONS ***

 final structure:
================
42
 xtb: 6.5.1 (579679a)
C            5.03284089294822        2.79577256898889        1.94877816330644
O            4.68462608136441        1.58058530263498        1.29686642742714
C            3.37730715418529        1.41901026270384        1.00128318018380
O            2.55845597724520        2.27715018948442        1.27468732001961
C            3.06907704060796        0.13440817399867        0.33892681936498
N            1.75104688945035       -0.04270510112578        0.01887616652825
C            1.40279192315658       -1.17002135128427       -0.56892757272932
C           -0.06965436832502       -1.30636815300770       -0.94125394055587
C           -0.33613070042363       -0.35750076508607       -2.12950428453937
C           -0.40262129547095       -2.75002401405500       -1.33088907438029
N           -0.87155188343869       -0.92824551037019        0.24179816014044
C           -2.28209759201741       -0.73309103542710       -0.03184711427797
O           -3.10586240643214       -1.84369981012662        0.24729483888629
C           -3.35212828155169       -2.08502131123175        1.62511419695884
C           -2.76978316579785        0.54887039904905       -0.06764087065797
N           -2.02279336226732        1.66691253675905       -0.24006615323760
N           -2.92060257863923        2.71096520935790       -0.34674376906509
C           -4.10632150806168        2.22698083379486       -0.24961038041291
C           -5.39490570928371        2.96838431817510       -0.31777847714087
O           -4.12260352669324        0.86206304061137       -0.07007958765852
N            2.21093670696960       -2.18394972707601       -0.89617622876411
C            3.52631783560836       -2.08318861436092       -0.61222388126087
O            4.37497934001771       -2.96914067896837       -0.86869798514825
C            3.97488923124761       -0.85136884628058        0.03641489455205
O            5.30701152930041       -0.79792144934303        0.29466527881433
H            4.55974327401933        2.85215355577906        2.93351041724994
H            4.71697273539770        3.65765924805969        1.35373988631692
H            6.11550942514706        2.79839099662834        2.05896983261605
H           -0.19162732997251        0.67810040982447       -1.81588353442746
H           -1.36008330976413       -0.47716205965473       -2.48518711200507
H            0.34873136745197       -0.58149099448833       -2.94769617354473
H           -1.46010326557337       -2.83831725957399       -1.58122550746418
H           -0.18406463590716       -3.41832875006794       -0.49709033150801
H            0.19243574434692       -3.05921183896037       -2.18998534619293
H           -0.48190461330151       -0.04561906556258        0.59363391456013
H           -3.89801513630856       -1.25155517887823        2.08854991515441
H           -3.95992695927090       -2.99007528067449        1.69950806456329
H           -2.41369473839988       -2.24034618915932        2.17816818266882
H           -6.00542799053887        2.60921577860434       -1.14775462219432
H           -5.96885336433891        2.83721507484076        0.60104764760672
H           -5.19199923614512        4.02814443266378       -0.45972660247922
H            5.66908280946468       -1.64763034720416       -0.03583975728190

          :  Hamiltonian                  GFN1-xTB          :
         :: total energy             -83.603283205667 Eh    ::
         :: gradient norm              0.000911368623 Eh/a0 ::
         :: HOMO-LUMO gap              0.253634718267 eV    ::
         :: SCC energy               -84.327618634172 Eh    ::
         :: -> Gsolv                  -0.269580229325 Eh    ::
         :: repulsion energy           0.749970104413 Eh    ::

    * Orbital Energies and Occupations

         #    Occupation            Energy/Eh            Energy/eV
      -------------------------------------------------------------
         1        2.0000           -0.8078341             -21.9823
       ...           ...                  ...                  ...
        56        2.0000           -0.4379977             -11.9185
        57        2.0000           -0.4210433             -11.4572
        58        2.0000           -0.4125879             -11.2271
        59        2.0000           -0.4091310             -11.1330
        60        2.0000           -0.4041333             -10.9970
        61        2.0000           -0.3891586             -10.5895
        62        2.0000           -0.3885608             -10.5733
        63        2.0000           -0.3788728             -10.3097
        64        2.0000           -0.3629395              -9.8761
        65        2.0000           -0.3584789              -9.7547
        66        2.0000           -0.3581398              -9.7455
        67        2.0000           -0.3556497              -9.6777
        68        1.9853           -0.2763629              -7.5202 (HOMO)
        69        0.0147           -0.2670419              -7.2666 (LUMO)
        70                         -0.2116313              -5.7588
        71                         -0.1789307              -4.8690
        72                         -0.1788509              -4.8668
        73                         -0.1339825              -3.6458
        74                         -0.1255283              -3.4158
        75                         -0.1128143              -3.0698
        76                         -0.1026813              -2.7941
        77                         -0.0918760              -2.5001
        78                         -0.0868088              -2.3622
        79                         -0.0833814              -2.2689
       ...                                ...                  ...
       134                          0.7443639              20.2552
      -------------------------------------------------------------
                  HL-Gap            0.0093209 Eh            0.2536 eV

Wiberg/Mayer (AO) data.
largest (>0.10) Wiberg bond orders for each atom

     #   Z sym  total        # sym  WBO       # sym  WBO       # sym  WBO
 ---------------------------------------------------------------------------
     1   6 C    3.893 --    28 H    0.987    26 H    0.980    27 H    0.980
                             2 O    0.918
     2   8 O    2.172 --     3 C    1.068     1 C    0.918     4 O    0.120
     3   6 C    3.826 --     4 O    1.627     2 O    1.068     5 C    1.035
     4   8 O    1.887 --     3 C    1.627     2 O    0.120
     5   6 C    3.962 --    24 C    1.467     6 N    1.210     3 C    1.035
     6   7 N    2.999 --     7 C    1.459     5 C    1.210
     7   6 C    3.948 --     6 N    1.459    21 N    1.351     8 C    0.975
     8   6 C    3.970 --    10 C    1.000     7 C    0.975     9 C    0.975
                            11 N    0.957
     9   6 C    3.996 --    31 H    0.988    30 H    0.984    29 H    0.983
                             8 C    0.975
    10   6 C    3.997 --     8 C    1.000    34 H    0.987    33 H    0.986
                            32 H    0.985
    11   7 N    3.015 --    12 C    0.963     8 C    0.957    35 H    0.939
    12   6 C    3.684 --    15 C    1.469    11 N    0.963    13 O    0.919
                            16 N    0.145
    13   8 O    1.996 --    14 C    0.950    12 C    0.919
    14   6 C    3.939 --    37 H    0.986    36 H    0.982    38 H    0.981
                            13 O    0.950
    15   6 C    3.865 --    12 C    1.469    16 N    1.287    20 O    0.961
    16   7 N    2.824 --    15 C    1.287    17 N    1.150    12 C    0.145
                            18 C    0.117
    17   7 N    2.987 --    18 C    1.675    16 N    1.150
    18   6 C    3.883 --    17 N    1.675    19 C    1.017    20 O    0.996
                            16 N    0.117
    19   6 C    3.996 --    18 C    1.017    41 H    0.987    40 H    0.976
                            39 H    0.976
    20   8 O    2.175 --    18 C    0.996    15 C    0.961
    21   7 N    2.977 --     7 C    1.351    22 C    1.268    23 O    0.125
    22   6 C    3.932 --    23 O    1.443    21 N    1.268    24 C    1.084
    23   8 O    1.780 --    22 C    1.443    21 N    0.125
    24   6 C    3.897 --     5 C    1.467    22 C    1.084    25 O    1.057
    25   8 O    2.033 --    24 C    1.057    42 H    0.819
    26   1 H    1.012 --     1 C    0.980
    27   1 H    1.013 --     1 C    0.980
    28   1 H    1.015 --     1 C    0.987
    29   1 H    1.032 --     9 C    0.983
    30   1 H    1.019 --     9 C    0.984
    31   1 H    1.009 --     9 C    0.988
    32   1 H    1.017 --    10 C    0.985
    33   1 H    1.019 --    10 C    0.986
    34   1 H    1.021 --    10 C    0.987
    35   1 H    1.008 --    11 N    0.939
    36   1 H    1.021 --    14 C    0.982
    37   1 H    1.022 --    14 C    0.986
    38   1 H    1.024 --    14 C    0.981
    39   1 H    1.007 --    19 C    0.976
    40   1 H    1.007 --    19 C    0.976
    41   1 H    1.008 --    19 C    0.987
    42   1 H    0.883 --    25 O    0.819
 ---------------------------------------------------------------------------

           -------------------------------------------------
          | TOTAL ENERGY              -83.603283205667 Eh   |
          | GRADIENT NORM               0.000911368623 Eh/α |
          | HOMO-LUMO GAP               0.253634718267 eV   |
           -------------------------------------------------

 * finished run on 2023/06/20 at 17:49:19.408
