   * xtb version 6.5.1 (579679a) compiled by 'ehlert@majestix' on 2022-07-11
          program call               : /lustre/hpc/kemi/ree/PhD/git/ReactivityQM/dep/xtb-6.5.1/bin/xtb --gfn 1 /lustre/hpc/kemi/ree/PhD/git/ReactivityQM/calculations/R01/reac02prodE04/conf01/R01_reac02prodE04_conf01_gfn1.xyz --opt --vfukui --chrg -1 --uhf 0 --alpb DMSO

   ID    Z sym.   atoms
    1    6 C      1, 3, 5, 6, 8, 11-14, 17
    2    8 O      2, 4, 7, 9
    3    7 N      10, 15, 16
    4    1 H      18-33

      * Solvation model:               ALPB
        Solvent                        DMSO
        Solvent mass                       7.8130E+01 g/mol
          :  Hamiltonian                  GFN1-xTB          :
 * total energy  :   -58.4704717 Eh     change       -0.8994760E-10 Eh
 * total energy  :   -58.4853482 Eh     change       -0.1487644E-01 Eh
 * total energy  :   -58.4941554 Eh     change       -0.8807215E-02 Eh
 * total energy  :   -58.4964327 Eh     change       -0.2277292E-02 Eh
 * total energy  :   -58.4992127 Eh     change       -0.2780018E-02 Eh
 * total energy  :   -58.5006030 Eh     change       -0.1390242E-02 Eh
 * total energy  :   -58.5020977 Eh     change       -0.1494746E-02 Eh
 * total energy  :   -58.5033850 Eh     change       -0.1287260E-02 Eh
 * total energy  :   -58.5043518 Eh     change       -0.9668495E-03 Eh
 * total energy  :   -58.5051231 Eh     change       -0.7713048E-03 Eh
 * total energy  :   -58.5074569 Eh     change       -0.1774580E-04 Eh
 * total energy  :   -58.5074763 Eh     change       -0.1943530E-04 Eh
 * total energy  :   -58.5075034 Eh     change       -0.2711077E-04 Eh
 * total energy  :   -58.5075158 Eh     change       -0.1240417E-04 Eh
 * total energy  :   -58.5075349 Eh     change       -0.1904497E-04 Eh
 * total energy  :   -58.5075534 Eh     change       -0.1849160E-04 Eh
 * total energy  :   -58.5075620 Eh     change       -0.8651262E-05 Eh
 * total energy  :   -58.5075677 Eh     change       -0.5647046E-05 Eh
 * total energy  :   -58.5075715 Eh     change       -0.3880649E-05 Eh
   *** GEOMETRY OPTIMIZATION CONVERGED AFTER 34 ITERATIONS ***

 final structure:
================
33
 xtb: 6.5.1 (579679a)
C            4.77415334333593        0.62549907936591        0.88596905834792
O            3.64086133979141        0.77095703036121        0.05404160248738
C            2.50246612480163        0.03854096534294        0.48262124132056
O            2.59651792777091       -0.64062650853934        1.53702303083379
C            1.43659620900357        0.16084652413570       -0.38596693566493
C            1.36998676485113        1.05637561104690       -1.56227262016518
O            2.42854988982991        1.00985141020331       -2.50301538476220
C            0.24568272984424        1.76418542109272       -1.81284681770691
O           -0.15169353148165        2.53778282196926       -2.72573936902345
N           -0.78869266626236        1.50215924686157       -0.73102135010985
C           -0.93500335730659        0.26234928008690       -0.24333551040701
C           -2.35949275637104       -0.15003342143446        0.14399265602702
C           -2.75189331177644       -1.57887944487965       -0.26371922761579
C           -2.52413324245053        0.05107310503890        1.65739623359654
N           -3.27699535841396        0.77959748672586       -0.52575349981247
N            0.16452771294439       -0.42920841779144       -0.02755889906303
C            0.17648471895836       -1.81091919009204        0.44115339130385
H            5.55954289412489        1.26941349684183        0.48630553594851
H            4.55453203338576        0.92723783480117        1.91842619807032
H            5.13131441312961       -0.41230626400182        0.89812651381105
H            3.26549461393950        1.01458295947913       -2.01437431618215
H           -1.66871685202170        1.96840165361843       -0.93286916509688
H           -2.38150804490390       -2.32242467505735        0.43766627210090
H           -2.38778520753329       -1.81138540864971       -1.26349928299706
H           -3.83895631880106       -1.64742896644938       -0.26970182475155
H           -3.53065570608889       -0.23491924690639        1.95826081991989
H           -1.81174708529719       -0.55747979242022        2.21181439324046
H           -2.36543600324994        1.09895493301334        1.91156748232528
H           -4.13796050144290        0.82536961116212       -0.00275044250071
H           -3.50892568843179        0.42102378744156       -1.44307732445009
H           -0.19671541364004       -2.47493000309549       -0.33885378003104
H            1.19879117445822       -2.09586529214763        0.68353113391232
H           -0.42918984469707       -1.91779462712347        1.33845818709170

          :  Hamiltonian                  GFN1-xTB          :
         :: total energy             -58.507571531580 Eh    ::
         :: gradient norm              0.000390010692 Eh/a0 ::
         :: HOMO-LUMO gap              1.050425515941 eV    ::
         :: SCC energy               -59.050698510317 Eh    ::
         :: -> Gsolv                  -0.126540943832 Eh    ::
         :: repulsion energy           0.562745364443 Eh    ::

    * Orbital Energies and Occupations

         #    Occupation            Energy/Eh            Energy/eV
      -------------------------------------------------------------
         1        2.0000           -0.7827297             -21.2992
       ...           ...                  ...                  ...
        36        2.0000           -0.4842785             -13.1779
        37        2.0000           -0.4740364             -12.8992
        38        2.0000           -0.4721815             -12.8487
        39        2.0000           -0.4633949             -12.6096
        40        2.0000           -0.4579112             -12.4604
        41        2.0000           -0.4343531             -11.8194
        42        2.0000           -0.4310835             -11.7304
        43        2.0000           -0.4134563             -11.2507
        44        2.0000           -0.4074831             -11.0882
        45        2.0000           -0.3959058             -10.7731
        46        2.0000           -0.3748389             -10.1999
        47        2.0000           -0.3506449              -9.5415
        48        2.0000           -0.2878505              -7.8328 (HOMO)
        49                         -0.2492481              -6.7824 (LUMO)
        50                         -0.1555159              -4.2318
        51                         -0.1327742              -3.6130
        52                         -0.1217251              -3.3123
        53                         -0.1121444              -3.0516
        54                         -0.1084652              -2.9515
        55                         -0.1050979              -2.8599
        56                         -0.0885304              -2.4090
        57                         -0.0793506              -2.1592
        58                         -0.0679135              -1.8480
        59                         -0.0499354              -1.3588
       ...                                ...                  ...
       100                          0.7753305              21.0978
      -------------------------------------------------------------
                  HL-Gap            0.0386024 Eh            1.0504 eV

Wiberg/Mayer (AO) data.
largest (>0.10) Wiberg bond orders for each atom

     #   Z sym  total        # sym  WBO       # sym  WBO       # sym  WBO
 ---------------------------------------------------------------------------
     1   6 C    3.917 --    18 H    0.987    20 H    0.981    19 H    0.981
                             2 O    0.948
     2   8 O    2.066 --     1 C    0.948     3 C    0.909
     3   6 C    3.879 --     5 C    1.440     4 O    1.388     2 O    0.909
     4   8 O    1.743 --     3 C    1.388     5 C    0.149
     5   6 C    3.749 --     3 C    1.440     6 C    1.024    16 N    0.927
                             4 O    0.149
     6   6 C    3.814 --     8 C    1.577     5 C    1.024     7 O    0.938
                             9 O    0.189
     7   8 O    1.903 --     6 C    0.938    21 H    0.864
     8   6 C    3.894 --     6 C    1.577     9 O    1.371    10 N    0.794
     9   8 O    1.709 --     8 C    1.371     6 C    0.189
    10   7 N    3.317 --    11 C    1.299    22 H    0.897     8 C    0.794
                            16 N    0.140
    11   6 C    3.934 --    16 N    1.430    10 N    1.299    12 C    0.968
    12   6 C    3.967 --    13 C    0.989    14 C    0.986    15 N    0.985
                            11 C    0.968
    13   6 C    3.993 --    12 C    0.989    24 H    0.985    25 H    0.983
                            23 H    0.981
    14   6 C    3.995 --    12 C    0.986    28 H    0.985    26 H    0.984
                            27 H    0.981
    15   7 N    2.989 --    12 C    0.985    30 H    0.944    29 H    0.943
    16   7 N    3.532 --    11 C    1.430    17 C    0.945     5 C    0.927
                            10 N    0.140
    17   6 C    3.949 --    31 H    0.979    33 H    0.978    32 H    0.973
                            16 N    0.945
    18   1 H    1.019 --     1 C    0.987
    19   1 H    1.023 --     1 C    0.981
    20   1 H    1.021 --     1 C    0.981
    21   1 H    0.914 --     7 O    0.864
    22   1 H    0.983 --    10 N    0.897
    23   1 H    1.006 --    13 C    0.981
    24   1 H    1.003 --    13 C    0.985
    25   1 H    1.004 --    13 C    0.983
    26   1 H    1.001 --    14 C    0.984
    27   1 H    1.005 --    14 C    0.981
    28   1 H    1.004 --    14 C    0.985
    29   1 H    0.958 --    15 N    0.943
    30   1 H    0.958 --    15 N    0.944
    31   1 H    1.008 --    17 C    0.979
    32   1 H    1.026 --    17 C    0.973
    33   1 H    1.011 --    17 C    0.978
 ---------------------------------------------------------------------------

           -------------------------------------------------
          | TOTAL ENERGY              -58.507571531580 Eh   |
          | GRADIENT NORM               0.000390010692 Eh/α |
          | HOMO-LUMO GAP               1.050425515941 eV   |
           -------------------------------------------------

 * finished run on 2023/06/20 at 14:59:04.320
