   * xtb version 6.5.1 (579679a) compiled by 'ehlert@majestix' on 2022-07-11
          program call               : /lustre/hpc/kemi/ree/PhD/git/ReactivityQM/dep/xtb-6.5.1/bin/xtb --gfn 1 /lustre/hpc/kemi/ree/PhD/git/ReactivityQM/calculations/R02methylcation/reac01prodE02/conf07/R02methylcation_reac01prodE02_conf07_gfn1.xyz --opt --vfukui --chrg -2 --uhf 0 --alpb DMSO

   ID    Z sym.   atoms
    1    6 C      1, 3, 4, 6, 8-11, 13, 15, 18, 19, 22, 24
    2    8 O      2, 5, 14, 20, 23, 25
    3    7 N      7, 12, 16, 17, 21
    4    1 H      26-42

      * Solvation model:               ALPB
        Solvent                        DMSO
        Solvent mass                       7.8130E+01 g/mol
          :  Hamiltonian                  GFN1-xTB          :
 * total energy  :   -83.5961428 Eh     change       -0.1771383E-09 Eh
 * total energy  :   -83.6097384 Eh     change       -0.1359556E-01 Eh
 * total energy  :   -83.6158402 Eh     change       -0.6101888E-02 Eh
 * total energy  :   -83.6173723 Eh     change       -0.1532014E-02 Eh
 * total energy  :   -83.6184082 Eh     change       -0.1035985E-02 Eh
 * total energy  :   -83.6190124 Eh     change       -0.6041828E-03 Eh
 * total energy  :   -83.6195173 Eh     change       -0.5048908E-03 Eh
 * total energy  :   -83.6199278 Eh     change       -0.4104865E-03 Eh
 * total energy  :   -83.6202424 Eh     change       -0.3145568E-03 Eh
 * total energy  :   -83.6205387 Eh     change       -0.2963400E-03 Eh
 * total energy  :   -83.6245018 Eh     change       -0.9693805E-05 Eh
 * total energy  :   -83.6245107 Eh     change       -0.8837798E-05 Eh
 * total energy  :   -83.6245193 Eh     change       -0.8671070E-05 Eh
 * total energy  :   -83.6245294 Eh     change       -0.1010462E-04 Eh
 * total energy  :   -83.6245383 Eh     change       -0.8838400E-05 Eh
 * total energy  :   -83.6245172 Eh     change        0.2107215E-04 Eh
 * total energy  :   -83.6245464 Eh     change       -0.2923326E-04 Eh
 * total energy  :   -83.6245520 Eh     change       -0.5585932E-05 Eh
 * total energy  :   -83.6245569 Eh     change       -0.4829495E-05 Eh
   *** GEOMETRY OPTIMIZATION CONVERGED AFTER 80 ITERATIONS ***

 final structure:
================
42
 xtb: 6.5.1 (579679a)
C           -1.32532809608396        2.42878909473925       -0.66016015926487
O           -1.97001085689517        1.85270231022992        0.43870930755378
C           -3.21963315498095        1.01314263174551        0.05204564158311
C           -4.08275227339028        1.19136254617282        1.35428304795205
O           -3.77893887112458        1.42817827080464       -1.03775591737722
C           -2.69825833646121       -0.47754637585680        0.00916360058349
N           -1.34978843359973       -0.64403452772526       -0.08834209036157
C           -0.82222989761952       -1.82002137505228       -0.19155538009374
C            0.68461369205449       -1.99118318385554       -0.27013486154673
C            1.09661621504676       -2.54554768687106       -1.64236860858750
C            1.19001660203466       -2.90720753541940        0.85471262444673
N            1.23785249341352       -0.65021382992904       -0.09055639762491
C            2.53640529953087       -0.34553657794247       -0.08449585168165
O            3.46333971401834       -1.12825771168942       -0.25371359814231
C            2.75072444200603        1.10972071435044        0.16971960703920
N            1.83249333925070        2.00241905131713        0.37353254495567
N            2.47317566731964        3.18922755833013        0.58076411344656
C            3.74168709795508        2.94308669679399        0.49131898402219
C            4.85875515330019        3.90101767670365        0.64395535115422
O            3.98510593856347        1.64874026357636        0.23334035488277
N           -1.60698961801363       -2.94870154164575       -0.23369103297307
C           -2.98153599041226       -2.91845186903203       -0.14137706857433
O           -3.59883303422559       -3.99808416569302       -0.18569795774445
C           -3.59523900134750       -1.56575478075519        0.00509614361985
O           -4.85630127442013       -1.48638432210378        0.12668226002443
H           -0.56684129374910        3.12854859687651       -0.28917851523495
H           -0.81130309254361        1.67802172401121       -1.28822928022623
H           -2.01867940728762        2.99195852951537       -1.30951266178371
H           -5.00965364504168        0.62956136537455        1.25119314255465
H           -4.32016641454864        2.24926166775959        1.46778720894305
H           -3.53911521459907        0.84747341317563        2.23427916856985
H            2.17610808830480       -2.67613050423672       -1.69058718515094
H            0.62105608608083       -3.51121984245446       -1.80269614402831
H            0.78490383656750       -1.86158838033173       -2.43101789599039
H            0.75924243606398       -3.90015647619127        0.74391966748343
H            2.27400713964108       -2.99436919401871        0.81214252513701
H            0.90301854030756       -2.50239112535664        1.82468422180738
H            0.53799993746291        0.08346413005405        0.05711126387482
H            4.46483026910186        4.88920661240907        0.86700536670479
H            5.44570545989209        3.94205691850007       -0.27289416500586
H            5.51745928262200        3.58082211025658        1.45042275220327
H           -1.18352282421481       -3.85598387652156       -0.31751112715948

          :  Hamiltonian                  GFN1-xTB          :
         :: total energy             -83.624556860306 Eh    ::
         :: gradient norm              0.000443463245 Eh/a0 ::
         :: HOMO-LUMO gap              0.437586149750 eV    ::
         :: SCC energy               -84.361607390931 Eh    ::
         :: -> Gsolv                  -0.308443647414 Eh    ::
         :: repulsion energy           0.764098392667 Eh    ::

    * Orbital Energies and Occupations

         #    Occupation            Energy/Eh            Energy/eV
      -------------------------------------------------------------
         1        2.0000           -0.8527770             -23.2052
       ...           ...                  ...                  ...
        56        2.0000           -0.4420119             -12.0278
        57        2.0000           -0.4374826             -11.9045
        58        2.0000           -0.4328412             -11.7782
        59        2.0000           -0.4266350             -11.6093
        60        2.0000           -0.4167028             -11.3391
        61        2.0000           -0.4115030             -11.1976
        62        2.0000           -0.4027584             -10.9596
        63        2.0000           -0.3847897             -10.4707
        64        2.0000           -0.3807013             -10.3594
        65        2.0000           -0.3474422              -9.4544
        66        2.0000           -0.3344716              -9.1014
        67        2.0000           -0.3151947              -8.5769
        68        1.9996           -0.3100970              -8.4382 (HOMO)
        69        0.0004           -0.2940160              -8.0006 (LUMO)
        70                         -0.2468064              -6.7159
        71                         -0.2178142              -5.9270
        72                         -0.2026552              -5.5145
        73                         -0.1823534              -4.9621
        74                         -0.1386829              -3.7738
        75                         -0.1156599              -3.1473
        76                         -0.1078090              -2.9336
        77                         -0.0884031              -2.4056
        78                         -0.0835004              -2.2722
        79                         -0.0819878              -2.2310
       ...                                ...                  ...
       134                          0.7434472              20.2302
      -------------------------------------------------------------
                  HL-Gap            0.0160810 Eh            0.4376 eV

Wiberg/Mayer (AO) data.
largest (>0.10) Wiberg bond orders for each atom

     #   Z sym  total        # sym  WBO       # sym  WBO       # sym  WBO
 ---------------------------------------------------------------------------
     1   6 C    3.945 --     2 O    0.992    26 H    0.982    27 H    0.975
                            28 H    0.973
     2   8 O    1.919 --     1 C    0.992     3 C    0.741
     3   6 C    3.887 --     5 O    1.254     4 C    0.932     6 C    0.906
                             2 O    0.741
     4   6 C    3.987 --    31 H    0.991    30 H    0.988    29 H    0.983
                             3 C    0.932
     5   8 O    1.531 --     3 C    1.254
     6   6 C    3.922 --    24 C    1.334     7 N    1.248     3 C    0.906
                            25 O    0.136
     7   7 N    3.074 --     8 C    1.537     6 C    1.248
     8   6 C    3.924 --     7 N    1.537    21 N    1.107     9 C    0.976
     9   6 C    3.932 --    11 C    0.984    10 C    0.983     8 C    0.976
                            12 N    0.925
    10   6 C    3.992 --    34 H    0.986    33 H    0.985     9 C    0.983
                            32 H    0.982
    11   6 C    3.992 --    37 H    0.986     9 C    0.984    35 H    0.984
                            36 H    0.982
    12   7 N    3.391 --    13 C    1.306     9 C    0.925    38 H    0.869
                            14 O    0.188
    13   6 C    3.925 --    14 O    1.557    12 N    1.306    15 C    0.980
    14   8 O    1.880 --    13 C    1.557    12 N    0.188
    15   6 C    3.869 --    16 N    1.621    20 O    1.058    13 C    0.980
    16   7 N    3.020 --    15 C    1.621    17 N    1.190
    17   7 N    2.982 --    18 C    1.617    16 N    1.190
    18   6 C    3.875 --    17 N    1.617    20 O    1.080    19 C    1.030
    19   6 C    3.988 --    18 C    1.030    39 H    0.983    41 H    0.965
                            40 H    0.965
    20   8 O    2.321 --    18 C    1.080    15 C    1.058
    21   7 N    3.418 --    22 C    1.139     8 C    1.107    42 H    0.907
                            23 O    0.126
    22   6 C    3.879 --    23 O    1.499    21 N    1.139    24 C    1.027
    23   8 O    1.793 --    22 C    1.499    21 N    0.126
    24   6 C    3.956 --    25 O    1.404     6 C    1.334    22 C    1.027
    25   8 O    1.737 --    24 C    1.404     6 C    0.136
    26   1 H    1.035 --     1 C    0.982
    27   1 H    1.036 --     1 C    0.975
    28   1 H    1.041 --     1 C    0.973
    29   1 H    1.038 --     4 C    0.983
    30   1 H    1.024 --     4 C    0.988
    31   1 H    1.017 --     4 C    0.991
    32   1 H    1.011 --    10 C    0.982
    33   1 H    1.004 --    10 C    0.985
    34   1 H    1.007 --    10 C    0.986
    35   1 H    1.004 --    11 C    0.984
    36   1 H    1.011 --    11 C    0.982
    37   1 H    1.006 --    11 C    0.986
    38   1 H    0.984 --    12 N    0.869
    39   1 H    1.000 --    19 C    0.983
    40   1 H    0.998 --    19 C    0.965
    41   1 H    0.998 --    19 C    0.965
    42   1 H    0.960 --    21 N    0.907
 ---------------------------------------------------------------------------

           -------------------------------------------------
          | TOTAL ENERGY              -83.624556860306 Eh   |
          | GRADIENT NORM               0.000443463245 Eh/α |
          | HOMO-LUMO GAP               0.437586149750 eV   |
           -------------------------------------------------

 * finished run on 2023/06/21 at 17:07:05.351
