   * xtb version 6.5.1 (579679a) compiled by 'ehlert@majestix' on 2022-07-11
          program call               : /lustre/hpc/kemi/ree/PhD/git/ReactivityQM/dep/xtb-6.5.1/bin/xtb --gfn 1 /lustre/hpc/kemi/ree/PhD/git/ReactivityQM/calculations/R02oxygendeprot/reac01prodN19/conf10/R02oxygendeprot_reac01prodN19_conf10_gfn1.xyz --opt --vfukui --chrg 0 --uhf 0 --alpb DMSO

   ID    Z sym.   atoms
    1    6 C      1, 3, 5, 7-10, 12, 14, 17, 18, 21, 23, 24
    2    8 O      2, 4, 13, 19, 22, 25
    3    7 N      6, 11, 15, 16, 20
    4    1 H      26-42

      * Solvation model:               ALPB
        Solvent                        DMSO
        Solvent mass                       7.8130E+01 g/mol
          :  Hamiltonian                  GFN1-xTB          :
 * total energy  :   -82.9755371 Eh     change       -0.2813749E-10 Eh
 * total energy  :   -82.9898773 Eh     change       -0.1434019E-01 Eh
 * total energy  :   -82.9957205 Eh     change       -0.5843242E-02 Eh
 * total energy  :   -82.9973459 Eh     change       -0.1625440E-02 Eh
 * total energy  :   -82.9982773 Eh     change       -0.9313270E-03 Eh
 * total energy  :   -82.9986620 Eh     change       -0.3847227E-03 Eh
 * total energy  :   -82.9989090 Eh     change       -0.2470449E-03 Eh
 * total energy  :   -82.9991171 Eh     change       -0.2080131E-03 Eh
 * total energy  :   -82.9992911 Eh     change       -0.1740929E-03 Eh
 * total energy  :   -82.9994391 Eh     change       -0.1479371E-03 Eh
 * total energy  :   -83.0006624 Eh     change       -0.1419362E-04 Eh
 * total energy  :   -83.0006771 Eh     change       -0.1473394E-04 Eh
 * total energy  :   -83.0006876 Eh     change       -0.1043180E-04 Eh
 * total energy  :   -83.0006983 Eh     change       -0.1078277E-04 Eh
 * total energy  :   -83.0007093 Eh     change       -0.1100049E-04 Eh
 * total energy  :   -83.0007218 Eh     change       -0.1245285E-04 Eh
 * total energy  :   -83.0007315 Eh     change       -0.9657151E-05 Eh
 * total energy  :   -83.0007399 Eh     change       -0.8483396E-05 Eh
 * total energy  :   -83.0007426 Eh     change       -0.2709592E-05 Eh
   *** GEOMETRY OPTIMIZATION CONVERGED AFTER 44 ITERATIONS ***

 final structure:
================
42
 xtb: 6.5.1 (579679a)
C           -2.50211286562882        4.24342457029536       -1.19108816322272
O           -2.64992120361911        2.84658838685368       -0.93380873233816
C           -1.53848959484058        2.18590998974701       -0.60335326628181
O           -0.45209767607705        2.72532099032192       -0.53299984867159
C           -1.74797272117267        0.74443621225368       -0.32372828304896
N           -0.59955748079908        0.09954712031396       -0.01833951628334
C           -0.58249412985226       -1.15804796623747        0.28117089245125
C            0.70766200419050       -1.86275898540960        0.64043700190483
C            0.69972522263776       -2.21547758863989        2.13608017880505
C            0.89890345595118       -3.11783562526508       -0.22266712916475
N            1.77437976491548       -0.90821373396559        0.35715076536229
C            3.07943807929993       -1.15985362427667        0.55765760247118
O            3.53956837415348       -2.18743508564332        1.03220355625419
C            3.95129663990277       -0.03592666296537        0.12730392898762
N            5.24289096009176        0.04161819681986        0.21752006227473
N            5.60358584282090        1.24204897570305       -0.31796148359750
C            4.50967243394860        1.82277368678662       -0.70345464893363
C            4.36835004884885        3.14320701657176       -1.35480088998765
O            3.42855890845519        1.06772246154960       -0.44967498512549
N           -1.75582623004430       -1.86985720741367        0.30536957725119
C           -2.93282424596328       -1.32429735702247        0.00662192872367
O           -3.93708280145368       -2.18054375433689        0.08110496958539
C           -5.29146932401288       -1.80717996666809       -0.20871420622036
C           -3.02327444037061        0.09674128018298       -0.35077512814887
O           -4.11184042615535        0.61966106344702       -0.63111494139526
H           -2.17363003803627        4.76015817196734       -0.28557247634246
H           -3.47894791024210        4.61080417519188       -1.50014193163282
H           -1.76740584927514        4.40690990517912       -1.98354181138355
H           -0.14598624793874       -2.86444998111782        2.35289005185858
H            1.61982700379931       -2.73411729553284        2.39998626237534
H            0.61409285327025       -1.30773044773254        2.73139930604859
H            1.84915166932338       -3.59013152467511        0.02088331775778
H            0.09815221270498       -3.82828898908385       -0.03018460133525
H            0.89156365896922       -2.84867817253533       -1.27755140485510
H            1.48327748061124       -0.01824412584008       -0.03286357371321
H            3.91928439108694        3.02490505993753       -2.34077478854893
H            3.71637613934930        3.78442937549596       -0.76203605444968
H            5.34617485894954        3.60782260539910       -1.45431716283305
H           -1.76133823525311       -2.85068492389430        0.54835580381775
H           -5.87658039622882       -2.71554008734011       -0.06654994834014
H           -5.63148881743998       -1.02951966929507        0.47727805120160
H           -5.38159036888427       -1.45921646912432       -1.23914028124954

          :  Hamiltonian                  GFN1-xTB          :
         :: total energy             -83.000742648755 Eh    ::
         :: gradient norm              0.000244602441 Eh/a0 ::
         :: HOMO-LUMO gap              2.198038960768 eV    ::
         :: SCC energy               -83.778656496621 Eh    ::
         :: -> Gsolv                  -0.058527448587 Eh    ::
         :: repulsion energy           0.802956139687 Eh    ::

    * Orbital Energies and Occupations

         #    Occupation            Energy/Eh            Energy/eV
      -------------------------------------------------------------
         1        2.0000           -0.8641991             -23.5161
       ...           ...                  ...                  ...
        55        2.0000           -0.5039277             -13.7126
        56        2.0000           -0.5031692             -13.6919
        57        2.0000           -0.4938100             -13.4373
        58        2.0000           -0.4869732             -13.2512
        59        2.0000           -0.4790872             -13.0366
        60        2.0000           -0.4710324             -12.8174
        61        2.0000           -0.4680039             -12.7350
        62        2.0000           -0.4637001             -12.6179
        63        2.0000           -0.4594560             -12.5024
        64        2.0000           -0.4509851             -12.2719
        65        2.0000           -0.4473299             -12.1725
        66        2.0000           -0.4247028             -11.5568
        67        2.0000           -0.4135755             -11.2540 (HOMO)
        68                         -0.3327991              -9.0559 (LUMO)
        69                         -0.3088863              -8.4052
        70                         -0.2834540              -7.7132
        71                         -0.2560572              -6.9677
        72                         -0.2413381              -6.5671
        73                         -0.1969931              -5.3605
        74                         -0.1544757              -4.2035
        75                         -0.1502794              -4.0893
        76                         -0.1420859              -3.8664
        77                         -0.1367106              -3.7201
        78                         -0.1313986              -3.5755
       ...                                ...                  ...
       134                          0.7252142              19.7341
      -------------------------------------------------------------
                  HL-Gap            0.0807764 Eh            2.1980 eV

Wiberg/Mayer (AO) data.
largest (>0.10) Wiberg bond orders for each atom

     #   Z sym  total        # sym  WBO       # sym  WBO       # sym  WBO
 ---------------------------------------------------------------------------
     1   6 C    3.878 --    27 H    0.986    26 H    0.980    28 H    0.980
                             2 O    0.904
     2   8 O    2.202 --     3 C    1.106     1 C    0.904     4 O    0.129
     3   6 C    3.854 --     4 O    1.630     2 O    1.106     5 C    1.029
     4   8 O    1.900 --     3 C    1.630     2 O    0.129
     5   6 C    3.947 --     6 N    1.276    24 C    1.218     3 C    1.029
                            25 O    0.130
     6   7 N    3.068 --     7 C    1.540     5 C    1.276
     7   6 C    3.914 --     6 N    1.540    20 N    1.124     8 C    0.984
     8   6 C    3.940 --     7 C    0.984    10 C    0.982     9 C    0.976
                            11 N    0.937
     9   6 C    3.985 --    31 H    0.985    29 H    0.985    30 H    0.978
                             8 C    0.976
    10   6 C    3.986 --    34 H    0.985    33 H    0.982     8 C    0.982
                            32 H    0.978
    11   7 N    3.361 --    12 C    1.271     8 C    0.937    35 H    0.875
                            13 O    0.179
    12   6 C    3.919 --    13 O    1.575    11 N    1.271    14 C    0.991
    13   8 O    1.895 --    12 C    1.575    11 N    0.179
    14   6 C    3.872 --    15 N    1.623    19 O    1.049    12 C    0.991
    15   7 N    2.998 --    14 C    1.623    16 N    1.198
    16   7 N    2.981 --    17 C    1.610    15 N    1.198
    17   6 C    3.869 --    16 N    1.610    19 O    1.074    18 C    1.031
    18   6 C    3.987 --    17 C    1.031    38 H    0.983    37 H    0.964
                            36 H    0.963
    19   8 O    2.319 --    17 C    1.074    14 C    1.049
    20   7 N    3.529 --    21 C    1.318     7 C    1.124    39 H    0.876
    21   6 C    3.857 --    20 N    1.318    22 O    1.144    24 C    1.070
    22   8 O    2.228 --    21 C    1.144    23 C    0.876
    23   6 C    3.846 --    40 H    0.984    42 H    0.977    41 H    0.977
                            22 O    0.876
    24   6 C    3.951 --    25 O    1.507     5 C    1.218    21 C    1.070
    25   8 O    1.857 --    24 C    1.507     5 C    0.130
    26   1 H    1.008 --     1 C    0.980
    27   1 H    1.012 --     1 C    0.986
    28   1 H    1.009 --     1 C    0.980
    29   1 H    1.000 --     9 C    0.985
    30   1 H    1.008 --     9 C    0.978
    31   1 H    1.002 --     9 C    0.985
    32   1 H    1.007 --    10 C    0.978
    33   1 H    0.999 --    10 C    0.982
    34   1 H    1.001 --    10 C    0.985
    35   1 H    0.956 --    11 N    0.875
    36   1 H    0.997 --    18 C    0.963
    37   1 H    0.997 --    18 C    0.964
    38   1 H    0.999 --    18 C    0.983
    39   1 H    0.926 --    20 N    0.876
    40   1 H    1.009 --    23 C    0.984
    41   1 H    1.015 --    23 C    0.977
    42   1 H    1.015 --    23 C    0.977
 ---------------------------------------------------------------------------

           -------------------------------------------------
          | TOTAL ENERGY              -83.000742648755 Eh   |
          | GRADIENT NORM               0.000244602441 Eh/α |
          | HOMO-LUMO GAP               2.198038960768 eV   |
           -------------------------------------------------

 * finished run on 2023/06/21 at 17:40:04.847
