   * xtb version 6.5.1 (579679a) compiled by 'ehlert@majestix' on 2022-07-11
          program call               : /lustre/hpc/kemi/ree/PhD/git/ReactivityQM/dep/xtb-6.5.1/bin/xtb --gfn 1 /lustre/hpc/kemi/ree/PhD/git/ReactivityQM/calculations/R02deprot/reac01prodN04/conf15/R02deprot_reac01prodN04_conf15_gfn1.xyz --opt --vfukui --chrg 0 --uhf 0 --alpb DMSO

   ID    Z sym.   atoms
    1    6 C      1, 3, 5, 6, 8-11, 13, 15, 18, 19, 22, 24
    2    8 O      2, 4, 14, 20, 23, 25
    3    7 N      7, 12, 16, 17, 21
    4    1 H      26-42

      * Solvation model:               ALPB
        Solvent                        DMSO
        Solvent mass                       7.8130E+01 g/mol
          :  Hamiltonian                  GFN1-xTB          :
 * total energy  :   -82.9333490 Eh     change       -0.2623324E-10 Eh
 * total energy  :   -82.9530337 Eh     change       -0.1968467E-01 Eh
 * total energy  :   -82.9600034 Eh     change       -0.6969790E-02 Eh
 * total energy  :   -82.9617258 Eh     change       -0.1722375E-02 Eh
 * total energy  :   -82.9629506 Eh     change       -0.1224788E-02 Eh
 * total energy  :   -82.9636636 Eh     change       -0.7130299E-03 Eh
 * total energy  :   -82.9643811 Eh     change       -0.7174112E-03 Eh
 * total energy  :   -82.9650741 Eh     change       -0.6930875E-03 Eh
 * total energy  :   -82.9656732 Eh     change       -0.5990312E-03 Eh
 * total energy  :   -82.9662367 Eh     change       -0.5635363E-03 Eh
 * total energy  :   -82.9684098 Eh     change       -0.9758353E-05 Eh
 * total energy  :   -82.9684188 Eh     change       -0.8930893E-05 Eh
 * total energy  :   -82.9684313 Eh     change       -0.1256557E-04 Eh
 * total energy  :   -82.9684480 Eh     change       -0.1670260E-04 Eh
 * total energy  :   -82.9684628 Eh     change       -0.1476057E-04 Eh
 * total energy  :   -82.9684716 Eh     change       -0.8833251E-05 Eh
 * total energy  :   -82.9684780 Eh     change       -0.6394241E-05 Eh
 * total energy  :   -82.9684835 Eh     change       -0.5451746E-05 Eh
 * total energy  :   -82.9684865 Eh     change       -0.3005392E-05 Eh
   *** GEOMETRY OPTIMIZATION CONVERGED AFTER 44 ITERATIONS ***

 final structure:
================
42
 xtb: 6.5.1 (579679a)
C           -5.12868012592024        2.17207955006840        0.43115441989609
O           -5.06434794163739        0.81625227991483       -0.02787388494415
C           -4.00119252851731        0.07844287824612       -0.10726939738654
O           -4.13338373338276       -1.01484246555044       -0.79286409117604
C           -5.38228172423305       -1.31583687535882       -1.43004917764840
C           -2.69396094225800        0.32719796750355        0.44357696666985
N           -1.69003123430160       -0.35476354869805       -0.20467283255654
C           -0.45772495600021       -0.19346103657796        0.22146564141908
C            0.60547864074031       -0.96355310797218       -0.54910804891887
C            0.40567875101906       -0.75460823855856       -2.05515466418857
C            0.49314198457301       -2.45176273434925       -0.18362269489434
N            1.90550787682207       -0.44542533251593       -0.13590931407980
C            3.08203302837734       -0.86871961252624       -0.61650511373101
O            3.24139467316959       -1.74250906127955       -1.45604324307995
C            4.21218811719301       -0.12224048581014        0.00504433871720
N            4.11827318197042        0.79434090227648        0.92016109674179
N            5.38796489543645        1.21623146412211        1.18653935389424
C            6.17412442341228        0.53029465098655        0.41520509572455
C            7.64795474194410        0.62043424281121        0.31819102710366
O            5.49293654726049       -0.33286660941334       -0.35357154681678
N           -0.04680230601007        0.54100976519303        1.25638901785677
C           -0.96630441687300        1.19931109826958        1.98622322333517
O           -0.73896635547026        1.89055317451794        2.98876620337168
C           -2.37417957338007        1.08321077351398        1.55219383481318
O           -3.23971392314571        1.69468749288937        2.35981870362394
H           -4.18747501115243        2.68885699447166        0.24591691586903
H           -5.93632395535017        2.63517657096820       -0.13475744984549
H           -5.36641897560673        2.18205702136132        1.49474623192625
H           -5.63912552512577       -0.52029313425542       -2.13073439319427
H           -5.23364100649062       -2.25790903292638       -1.95295123086321
H           -6.16690336615356       -1.41113881518160       -0.67849439984145
H           -0.61035432575465       -1.04324822248653       -2.31987358121110
H            1.11010351226862       -1.36018810976924       -2.62280886337694
H            0.55021834319312        0.29518630577671       -2.30717921035922
H            1.22004836637500       -3.03565625370998       -0.74620506980913
H            0.67252811031823       -2.58803056417194        0.88220777796064
H           -0.50980938730207       -2.80221204490054       -0.42222196522375
H            1.88376751335434        0.27306730712919        0.58348172302478
H            7.93655459707511        0.92855802306025       -0.68669653748195
H            8.01780178526438        1.34443715903693        1.03992520349875
H            8.09571894121738       -0.35341711321929        0.51375867370369
H           -2.68579471691296        2.10784177711104        3.06980326146931

          :  Hamiltonian                  GFN1-xTB          :
         :: total energy             -82.968486479473 Eh    ::
         :: gradient norm              0.000228539109 Eh/a0 ::
         :: HOMO-LUMO gap              1.612651841661 eV    ::
         :: SCC energy               -83.737217351398 Eh    ::
         :: -> Gsolv                  -0.060324419696 Eh    ::
         :: repulsion energy           0.793824081565 Eh    ::

    * Orbital Energies and Occupations

         #    Occupation            Energy/Eh            Energy/eV
      -------------------------------------------------------------
         1        2.0000           -0.8893475             -24.2004
       ...           ...                  ...                  ...
        55        2.0000           -0.5007851             -13.6271
        56        2.0000           -0.4917323             -13.3807
        57        2.0000           -0.4892973             -13.3145
        58        2.0000           -0.4773829             -12.9903
        59        2.0000           -0.4696251             -12.7791
        60        2.0000           -0.4596197             -12.5069
        61        2.0000           -0.4574628             -12.4482
        62        2.0000           -0.4535063             -12.3405
        63        2.0000           -0.4458395             -12.1319
        64        2.0000           -0.4360612             -11.8658
        65        2.0000           -0.4328852             -11.7794
        66        2.0000           -0.4069849             -11.0746
        67        2.0000           -0.4052558             -11.0276 (HOMO)
        68                         -0.3459920              -9.4149 (LUMO)
        69                         -0.3023602              -8.2276
        70                         -0.2602811              -7.0826
        71                         -0.2529679              -6.8836
        72                         -0.2441665              -6.6441
        73                         -0.1907337              -5.1901
        74                         -0.1577344              -4.2922
        75                         -0.1485120              -4.0412
        76                         -0.1461165              -3.9760
        77                         -0.1411332              -3.8404
        78                         -0.1157595              -3.1500
       ...                                ...                  ...
       134                          0.7266013              19.7718
      -------------------------------------------------------------
                  HL-Gap            0.0592639 Eh            1.6127 eV

Wiberg/Mayer (AO) data.
largest (>0.10) Wiberg bond orders for each atom

     #   Z sym  total        # sym  WBO       # sym  WBO       # sym  WBO
 ---------------------------------------------------------------------------
     1   6 C    3.827 --    26 H    0.980    27 H    0.978    28 H    0.968
                             2 O    0.860
     2   8 O    2.283 --     3 C    1.219     1 C    0.860
     3   6 C    3.801 --     4 O    1.230     2 O    1.219     6 C    1.141
     4   8 O    2.291 --     3 C    1.230     5 C    0.870
     5   6 C    3.842 --    30 H    0.983    31 H    0.975    29 H    0.975
                             4 O    0.870
     6   6 C    3.953 --    24 C    1.399     7 N    1.170     3 C    1.141
     7   7 N    2.988 --     8 C    1.475     6 C    1.170
     8   6 C    3.951 --     7 N    1.475    21 N    1.346     9 C    0.976
     9   6 C    3.935 --    10 C    0.986    11 C    0.977     8 C    0.976
                            12 N    0.928
    10   6 C    3.992 --     9 C    0.986    34 H    0.986    32 H    0.984
                            33 H    0.982
    11   6 C    3.992 --    36 H    0.986    37 H    0.986    35 H    0.982
                             9 C    0.977
    12   7 N    3.374 --    13 C    1.287     9 C    0.928    38 H    0.875
                            14 O    0.185
    13   6 C    3.922 --    14 O    1.572    12 N    1.287    15 C    0.983
    14   8 O    1.891 --    13 C    1.572    12 N    0.185
    15   6 C    3.871 --    16 N    1.617    20 O    1.062    13 C    0.983
    16   7 N    3.011 --    15 C    1.617    17 N    1.194
    17   7 N    2.980 --    18 C    1.611    16 N    1.194
    18   6 C    3.873 --    17 N    1.611    20 O    1.081    19 C    1.030
    19   6 C    3.987 --    18 C    1.030    40 H    0.983    41 H    0.965
                            39 H    0.963
    20   8 O    2.326 --    18 C    1.081    15 C    1.062
    21   7 N    3.019 --     8 C    1.346    22 C    1.264    23 O    0.133
    22   6 C    3.930 --    23 O    1.499    21 N    1.264    24 C    1.035
    23   8 O    1.851 --    22 C    1.499    21 N    0.133
    24   6 C    3.894 --     6 C    1.399    25 O    1.124    22 C    1.035
    25   8 O    2.108 --    24 C    1.124    42 H    0.777
    26   1 H    1.003 --     1 C    0.980
    27   1 H    1.005 --     1 C    0.978
    28   1 H    1.013 --     1 C    0.968
    29   1 H    1.000 --     5 C    0.975
    30   1 H    1.005 --     5 C    0.983
    31   1 H    1.002 --     5 C    0.975
    32   1 H    1.016 --    10 C    0.984
    33   1 H    1.011 --    10 C    0.982
    34   1 H    1.004 --    10 C    0.986
    35   1 H    1.010 --    11 C    0.982
    36   1 H    1.004 --    11 C    0.986
    37   1 H    1.008 --    11 C    0.986
    38   1 H    0.975 --    12 N    0.875
    39   1 H    0.997 --    19 C    0.963
    40   1 H    0.999 --    19 C    0.983
    41   1 H    0.997 --    19 C    0.965
    42   1 H    0.847 --    25 O    0.777
 ---------------------------------------------------------------------------

           -------------------------------------------------
          | TOTAL ENERGY              -82.968486479473 Eh   |
          | GRADIENT NORM               0.000228539109 Eh/α |
          | HOMO-LUMO GAP               1.612651841661 eV   |
           -------------------------------------------------

 * finished run on 2023/06/20 at 18:09:40.692
