   * xtb version 6.5.1 (579679a) compiled by 'ehlert@majestix' on 2022-07-11
          program call               : /lustre/hpc/kemi/ree/PhD/git/ReactivityQM/dep/xtb-6.5.1/bin/xtb --gfn 1 /lustre/hpc/kemi/ree/PhD/git/ReactivityQM/calculations/R03/reac02prodN18/conf05/R03_reac02prodN18_conf05_gfn1.xyz --opt --vfukui --chrg 1 --uhf 0 --alpb DMSO

   ID    Z sym.   atoms
    1    6 C      1, 3, 5, 6, 8, 11-16, 18, 20, 23, 24
    2    8 O      2, 4, 7, 9, 19, 25
    3    7 N      10, 17, 21, 22, 26
    4    1 H      27-46

      * Solvation model:               ALPB
        Solvent                        DMSO
        Solvent mass                       7.8130E+01 g/mol
          :  Hamiltonian                  GFN1-xTB          :
 * total energy  :   -86.2783941 Eh     change       -0.5391598E-10 Eh
 * total energy  :   -86.2947786 Eh     change       -0.1638458E-01 Eh
 * total energy  :   -86.3015811 Eh     change       -0.6802435E-02 Eh
 * total energy  :   -86.3032509 Eh     change       -0.1669798E-02 Eh
 * total energy  :   -86.3042631 Eh     change       -0.1012210E-02 Eh
 * total energy  :   -86.3048997 Eh     change       -0.6365794E-03 Eh
 * total energy  :   -86.3053668 Eh     change       -0.4671548E-03 Eh
 * total energy  :   -86.3057951 Eh     change       -0.4282388E-03 Eh
 * total energy  :   -86.3060955 Eh     change       -0.3004037E-03 Eh
 * total energy  :   -86.3062639 Eh     change       -0.1684809E-03 Eh
 * total energy  :   -86.3073584 Eh     change       -0.1439635E-04 Eh
 * total energy  :   -86.3073735 Eh     change       -0.1509035E-04 Eh
 * total energy  :   -86.3073870 Eh     change       -0.1348288E-04 Eh
 * total energy  :   -86.3073970 Eh     change       -0.1006041E-04 Eh
 * total energy  :   -86.3074051 Eh     change       -0.8084456E-05 Eh
 * total energy  :   -86.3074129 Eh     change       -0.7762732E-05 Eh
 * total energy  :   -86.3074200 Eh     change       -0.7152656E-05 Eh
 * total energy  :   -86.3074256 Eh     change       -0.5520302E-05 Eh
 * total energy  :   -86.3074305 Eh     change       -0.4911250E-05 Eh
   *** GEOMETRY OPTIMIZATION CONVERGED AFTER 60 ITERATIONS ***

 final structure:
================
46
 xtb: 6.5.1 (579679a)
C           -6.38285281662902       -0.76681995499062       -1.57943057235698
O           -5.25671463804191       -0.11480521963182       -0.95930949141630
C           -4.10596454891012       -0.78361663935595       -0.97734214550266
O           -3.95738020754322       -1.86684589724433       -1.47692822030274
C           -3.00376531831014       -0.03063963501042       -0.29611104854318
C           -3.11725591183139        1.18016664346189        0.31784759551018
O           -4.21302281640629        1.91171129227104        0.45132956029523
C           -1.95579015800213        1.75492365182210        1.01188124955339
O           -1.95278872719497        2.64954446295788        1.79225242199221
N           -0.62078251094495        1.16501679250892        0.58921159615929
C            0.36775923655829        1.46196798752494        1.65947381206142
C           -0.29181908898110        1.97847532110104       -0.63661863854713
C           -0.71657240063956       -0.27954630179917        0.18315413355876
C            0.44266642096867       -1.25211584898066        0.29646014582252
C            0.18766457053362       -2.42847135125973       -0.66202873864938
C            0.50714540705041       -1.79274456937113        1.73383872146191
N            1.73011688801844       -0.64117156578601       -0.01382891985714
C            2.02222723116159       -0.19079725871891       -1.26303178009716
O            1.19105427796512       -0.02782324377185       -2.14077703139079
C            3.44927398609908        0.14499435768815       -1.42853646515455
N            4.05907816416057        0.55180652465031       -2.49829644687686
N            5.36420411504574        0.72891678937826       -2.16278040056696
C            5.47515131356615        0.42208150861402       -0.90633339038477
C            6.69039953834763        0.45765289680794       -0.06559091189765
O            4.29832285980196        0.04117447951513       -0.38296705037981
N           -1.81561966019260       -0.73230324605928       -0.23692883788077
H           -7.23040131312802       -0.09804659482775       -1.45422800301130
H           -6.17224092338062       -0.93127354400514       -2.63779108693096
H           -6.56813375530148       -1.72242118959886       -1.08553814741987
H           -4.99394944809282        1.50219339526215        0.02955590597704
H            0.41371144333422        2.54170426448493        1.77889909152630
H            1.33461881309999        1.07835747300520        1.35582394777679
H            0.02845736351175        0.99883301797632        2.58104504132740
H           -0.84249223014901        1.57671449241645       -1.48307583324330
H            0.77556684537355        1.90106598306682       -0.80884000594947
H           -0.56311465385928        3.01361116751052       -0.44405601757119
H           -0.70142414672359       -2.97034641968221       -0.34518791147680
H            0.03941775452573       -2.07013834299479       -1.67890622508476
H            1.04546535552070       -3.09733194598491       -0.63465493217477
H            1.21067842585440       -2.62314768462621        1.76652693408056
H           -0.47538574610715       -2.14952275043123        2.03794284872632
H            0.84089412705302       -1.03057051877327        2.43199146640978
H            2.49604510852447       -0.85407256274281        0.60532725532398
H            6.53629401711979        1.13373700146396        0.77541425286961
H            6.89297976081347       -0.53534759783382        0.33596283619122
H            7.53827999636926        0.79527237998609       -0.65757756397300

          :  Hamiltonian                  GFN1-xTB          :
         :: total energy             -86.307430471844 Eh    ::
         :: gradient norm              0.000400512758 Eh/a0 ::
         :: HOMO-LUMO gap              1.719022426782 eV    ::
         :: SCC energy               -87.142444917785 Eh    ::
         :: -> Gsolv                  -0.116851103136 Eh    ::
         :: repulsion energy           0.866462208238 Eh    ::

    * Orbital Energies and Occupations

         #    Occupation            Energy/Eh            Energy/eV
      -------------------------------------------------------------
         1        2.0000           -0.8990318             -24.4639
       ...           ...                  ...                  ...
        58        2.0000           -0.5301544             -14.4262
        59        2.0000           -0.5251418             -14.2898
        60        2.0000           -0.5193117             -14.1312
        61        2.0000           -0.5159580             -14.0399
        62        2.0000           -0.5147028             -14.0058
        63        2.0000           -0.5061180             -13.7722
        64        2.0000           -0.4927655             -13.4088
        65        2.0000           -0.4898414             -13.3293
        66        2.0000           -0.4846252             -13.1873
        67        2.0000           -0.4825884             -13.1319
        68        2.0000           -0.4735332             -12.8855
        69        2.0000           -0.4624161             -12.5830
        70        2.0000           -0.4609841             -12.5440 (HOMO)
        71                         -0.3978112             -10.8250 (LUMO)
        72                         -0.3287204              -8.9449
        73                         -0.3272571              -8.9051
        74                         -0.2974015              -8.0927
        75                         -0.2647612              -7.2045
        76                         -0.2146448              -5.8408
        77                         -0.2131324              -5.7996
        78                         -0.1667127              -4.5365
        79                         -0.1618417              -4.4039
        80                         -0.1474053              -4.0111
        81                         -0.1469924              -3.9999
       ...                                ...                  ...
       144                          0.7370091              20.0550
      -------------------------------------------------------------
                  HL-Gap            0.0631729 Eh            1.7190 eV

Wiberg/Mayer (AO) data.
largest (>0.10) Wiberg bond orders for each atom

     #   Z sym  total        # sym  WBO       # sym  WBO       # sym  WBO
 ---------------------------------------------------------------------------
     1   6 C    3.844 --    27 H    0.985    29 H    0.979    28 H    0.978
                             2 O    0.869
     2   8 O    2.218 --     3 C    1.112     1 C    0.869     4 O    0.139
     3   6 C    3.860 --     4 O    1.691     2 O    1.112     5 C    0.984
     4   8 O    1.956 --     3 C    1.691     2 O    0.139
     5   6 C    3.958 --     6 C    1.534    26 N    1.106     3 C    0.984
                             7 O    0.112
     6   6 C    3.928 --     5 C    1.534     7 O    1.144     8 C    1.026
     7   8 O    2.122 --     6 C    1.144    30 H    0.776     5 C    0.112
     8   6 C    3.858 --     9 O    1.823     6 C    1.026    10 N    0.847
     9   8 O    2.081 --     8 C    1.823
    10   7 N    3.613 --    11 C    0.894    13 C    0.863    12 C    0.859
                             8 C    0.847
    11   6 C    3.880 --    33 H    0.978    31 H    0.976    32 H    0.974
                            10 N    0.894
    12   6 C    3.873 --    34 H    0.978    36 H    0.978    35 H    0.972
                            10 N    0.859
    13   6 C    3.895 --    26 N    1.793    14 C    0.984    10 N    0.863
    14   6 C    3.933 --    13 C    0.984    15 C    0.979    16 C    0.968
                            17 N    0.937
    15   6 C    3.982 --    39 H    0.983    37 H    0.983    38 H    0.979
                            14 C    0.979
    16   6 C    3.982 --    41 H    0.983    42 H    0.979    40 H    0.976
                            14 C    0.968
    17   7 N    3.323 --    18 C    1.219    14 C    0.937    43 H    0.885
                            19 O    0.163
    18   6 C    3.910 --    19 O    1.587    17 N    1.219    20 C    1.007
    19   8 O    1.910 --    18 C    1.587    17 N    0.163
    20   6 C    3.877 --    21 N    1.612    25 O    1.046    18 C    1.007
    21   7 N    3.006 --    20 C    1.612    22 N    1.209
    22   7 N    2.983 --    23 C    1.599    21 N    1.209
    23   6 C    3.864 --    22 N    1.599    25 O    1.074    24 C    1.034
    24   6 C    3.984 --    23 C    1.034    46 H    0.982    44 H    0.961
                            45 H    0.961
    25   8 O    2.318 --    23 C    1.074    20 C    1.046
    26   7 N    3.092 --    13 C    1.793     5 C    1.106
    27   1 H    1.006 --     1 C    0.985
    28   1 H    1.003 --     1 C    0.978
    29   1 H    1.003 --     1 C    0.979
    30   1 H    0.829 --     7 O    0.776
    31   1 H    0.995 --    11 C    0.976
    32   1 H    1.003 --    11 C    0.974
    33   1 H    0.996 --    11 C    0.978
    34   1 H    1.001 --    12 C    0.978
    35   1 H    1.000 --    12 C    0.972
    36   1 H    0.991 --    12 C    0.978
    37   1 H    1.006 --    15 C    0.983
    38   1 H    1.009 --    15 C    0.979
    39   1 H    0.998 --    15 C    0.983
    40   1 H    0.993 --    16 C    0.976
    41   1 H    0.998 --    16 C    0.983
    42   1 H    0.998 --    16 C    0.979
    43   1 H    0.928 --    17 N    0.885
    44   1 H    0.995 --    24 C    0.961
    45   1 H    0.995 --    24 C    0.961
    46   1 H    0.997 --    24 C    0.982
 ---------------------------------------------------------------------------

           -------------------------------------------------
          | TOTAL ENERGY              -86.307430471844 Eh   |
          | GRADIENT NORM               0.000400512758 Eh/α |
          | HOMO-LUMO GAP               1.719022426782 eV   |
           -------------------------------------------------

 * finished run on 2023/06/20 at 15:54:48.761
