                         Program Version 5.0.1 -  RELEASE  -
|  1> # ORCA input file
|  2> ! SP r2SCAN-3c CPCM
|  3>
|  4> %maxcore 1875.0
|  5> %pal nprocs 4 end
|  6> %cpcm smd true SMDsolvent "DMSO" end
|  7>
|  8> *xyz 1 1
|  9> C      -5.822293    2.993224    0.980021
| 10> O      -4.960718    2.094583    0.272272
| 11> C      -3.893052    1.656022    0.930374
| 12> O      -3.634923    1.969869    2.069624
| 13> C      -3.036876    0.736268    0.121913
| 14> N      -1.929984    0.289680    0.789725
| 15> C      -1.075148   -0.509187    0.243576
| 16> C       0.062809   -0.966570    1.144427
| 17> C      -0.067726   -2.462436    1.449795
| 18> C       0.048125   -0.156656    2.445763
| 19> N       1.341034   -0.666662    0.446352
| 20> C       2.506727   -1.070134    0.915036
| 21> C       4.255723   -1.877571   -0.680220
| 22> O       2.763321   -1.763502    1.858885
| 23> C       3.737482   -0.602085   -0.015376
| 24> N       4.656350    0.067415    0.807971
| 25> N       4.779255    1.271216    0.429941
| 26> C       3.980289    1.448783   -0.662689
| 27> C       3.833781    2.694310   -1.407378
| 28> O       3.345984    0.366076   -0.956139
| 29> N      -1.223547   -0.960071   -1.043513
| 30> C      -0.315116   -1.860493   -1.754842
| 31> C      -2.314407   -0.577138   -1.807436
| 32> O      -2.472501   -0.973326   -2.955032
| 33> C      -3.260329    0.325304   -1.163084
| 34> O      -4.303842    0.687097   -1.910560
| 35> H      -6.217078    2.506904    1.875332
| 36> H      -5.269227    3.889952    1.269237
| 37> H      -6.631226    3.249637    0.298974
| 38> H      -1.079528   -2.658210    1.803046
| 39> H       0.636383   -2.752518    2.227306
| 40> H       0.119653   -3.066873    0.566764
| 41> H       0.128518    0.905617    2.223368
| 42> H      -0.884032   -0.337008    2.978747
| 43> H       0.884714   -0.458594    3.072898
| 44> H       1.312922   -0.024585   -0.326650
| 45> H       3.469675   -2.296600   -1.303934
| 46> H       5.118397   -1.627523   -1.294382
| 47> H       4.534562   -2.586685    0.097165
| 48> H       3.267693    2.536417   -2.321957
| 49> H       3.318522    3.425819   -0.778690
| 50> H       4.821274    3.105734   -1.624106
| 51> H      -0.800417   -2.829616   -1.872541
| 52> H      -0.129172   -1.434330   -2.740365
| 53> H       0.620181   -1.970078   -1.222796
| 54> H      -4.222233    0.268525   -2.788540
| 55> **                         ****END OF INPUT****

CARTESIAN COORDINATES (ANGSTROEM)
---------------------------------
  C     -5.822293    2.993224    0.980021
  O     -4.960718    2.094583    0.272272
  C     -3.893052    1.656022    0.930374
  O     -3.634923    1.969869    2.069624
  C     -3.036876    0.736268    0.121913
  N     -1.929984    0.289680    0.789725
  C     -1.075148   -0.509187    0.243576
  C      0.062809   -0.966570    1.144427
  C     -0.067726   -2.462436    1.449795
  C      0.048125   -0.156656    2.445763
  N      1.341034   -0.666662    0.446352
  C      2.506727   -1.070134    0.915036
  C      4.255723   -1.877571   -0.680220
  O      2.763321   -1.763502    1.858885
  C      3.737482   -0.602085   -0.015376
  N      4.656350    0.067415    0.807971
  N      4.779255    1.271216    0.429941
  C      3.980289    1.448783   -0.662689
  C      3.833781    2.694310   -1.407378
  O      3.345984    0.366076   -0.956139
  N     -1.223547   -0.960071   -1.043513
  C     -0.315116   -1.860493   -1.754842
  C     -2.314407   -0.577138   -1.807436
  O     -2.472501   -0.973326   -2.955032
  C     -3.260329    0.325304   -1.163084
  O     -4.303842    0.687097   -1.910560
  H     -6.217078    2.506904    1.875332
  H     -5.269227    3.889952    1.269237
  H     -6.631226    3.249637    0.298974
  H     -1.079528   -2.658210    1.803046
  H      0.636383   -2.752518    2.227306
  H      0.119653   -3.066873    0.566764
  H      0.128518    0.905617    2.223368
  H     -0.884032   -0.337008    2.978747
  H      0.884714   -0.458594    3.072898
  H      1.312922   -0.024585   -0.326650
  H      3.469675   -2.296600   -1.303934
  H      5.118397   -1.627523   -1.294382
  H      4.534562   -2.586685    0.097165
  H      3.267693    2.536417   -2.321957
  H      3.318522    3.425819   -0.778690
  H      4.821274    3.105734   -1.624106
  H     -0.800417   -2.829616   -1.872541
  H     -0.129172   -1.434330   -2.740365
  H      0.620181   -1.970078   -1.222796
  H     -4.222233    0.268525   -2.788540

 Total Charge           Charge          ....    1
 Multiplicity           Mult            ....    1
 Number of Electrons    NEL             ....  192
 Basis Dimension        Dim             ....  649

ORBITAL ENERGIES
----------------

  NO   OCC          E(Eh)            E(eV)
   0   2.0000     -19.116128      -520.1763
   1   2.0000     -19.006276      -517.1871
   2   2.0000     -19.003715      -517.1174
   3   2.0000     -18.979094      -516.4474
   4   2.0000     -18.944997      -515.5196
   5   2.0000     -18.939225      -515.3625
   6   2.0000     -14.284677      -388.7058
   7   2.0000     -14.270020      -388.3070
   8   2.0000     -14.249842      -387.7579
   9   2.0000     -14.234524      -387.3411
  10   2.0000     -14.170702      -385.6044
  11   2.0000     -10.229505      -278.3590
  12   2.0000     -10.197442      -277.4865
  13   2.0000     -10.193021      -277.3662
  14   2.0000     -10.163907      -276.5740
  15   2.0000     -10.153951      -276.3030
  16   2.0000     -10.134823      -275.7826
  17   2.0000     -10.127792      -275.5912
  18   2.0000     -10.120351      -275.3887
  19   2.0000     -10.095992      -274.7259
  20   2.0000     -10.078227      -274.2425
  21   2.0000     -10.074149      -274.1315
  22   2.0000     -10.069965      -274.0177
  23   2.0000     -10.068611      -273.9808
  24   2.0000     -10.030371      -272.9403
  25   2.0000     -10.024923      -272.7920
  26   2.0000      -1.213602       -33.0238
  27   2.0000      -1.080694       -29.4072
  28   2.0000      -1.070723       -29.1358
  29   2.0000      -1.065562       -28.9954
  30   2.0000      -1.058408       -28.8008
  31   2.0000      -1.029171       -28.0052
  32   2.0000      -0.987744       -26.8779
  33   2.0000      -0.978289       -26.6206
  34   2.0000      -0.946784       -25.7633
  35   2.0000      -0.896603       -24.3978
  36   2.0000      -0.879095       -23.9214
  37   2.0000      -0.802144       -21.8274
  38   2.0000      -0.770875       -20.9766
  39   2.0000      -0.752509       -20.4768
  40   2.0000      -0.724376       -19.7113
  41   2.0000      -0.721230       -19.6257
  42   2.0000      -0.695337       -18.9211
  43   2.0000      -0.677458       -18.4346
  44   2.0000      -0.670552       -18.2466
  45   2.0000      -0.660287       -17.9673
  46   2.0000      -0.656685       -17.8693
  47   2.0000      -0.630976       -17.1697
  48   2.0000      -0.623654       -16.9705
  49   2.0000      -0.586182       -15.9508
  50   2.0000      -0.569899       -15.5077
  51   2.0000      -0.562443       -15.3049
  52   2.0000      -0.544314       -14.8115
  53   2.0000      -0.530613       -14.4387
  54   2.0000      -0.516659       -14.0590
  55   2.0000      -0.511008       -13.9052
  56   2.0000      -0.495015       -13.4700
  57   2.0000      -0.479871       -13.0579
  58   2.0000      -0.470995       -12.8164
  59   2.0000      -0.460165       -12.5217
  60   2.0000      -0.453587       -12.3427
  61   2.0000      -0.451750       -12.2927
  62   2.0000      -0.448706       -12.2099
  63   2.0000      -0.444595       -12.0981
  64   2.0000      -0.439545       -11.9606
  65   2.0000      -0.433298       -11.7906
  66   2.0000      -0.424775       -11.5587
  67   2.0000      -0.419797       -11.4233
  68   2.0000      -0.417674       -11.3655
  69   2.0000      -0.412736       -11.2311
  70   2.0000      -0.406722       -11.0675
  71   2.0000      -0.401438       -10.9237
  72   2.0000      -0.396529       -10.7901
  73   2.0000      -0.392766       -10.6877
  74   2.0000      -0.390195       -10.6177
  75   2.0000      -0.386527       -10.5179
  76   2.0000      -0.381410       -10.3787
  77   2.0000      -0.376045       -10.2327
  78   2.0000      -0.373886       -10.1740
  79   2.0000      -0.363883        -9.9018
  80   2.0000      -0.359140        -9.7727
  81   2.0000      -0.357277        -9.7220
  82   2.0000      -0.353937        -9.6311
  83   2.0000      -0.350126        -9.5274
  84   2.0000      -0.342034        -9.3072
  85   2.0000      -0.330733        -8.9997
  86   2.0000      -0.319421        -8.6919
  87   2.0000      -0.304111        -8.2753
  88   2.0000      -0.281393        -7.6571
  89   2.0000      -0.279074        -7.5940
  90   2.0000      -0.277134        -7.5412
  91   2.0000      -0.274417        -7.4673
  92   2.0000      -0.266556        -7.2534
  93   2.0000      -0.256568        -6.9816
  94   2.0000      -0.246920        -6.7190
  95   2.0000      -0.218925        -5.9573
  96   0.0000      -0.199464        -5.4277
  97   0.0000      -0.095488        -2.5984
  98   0.0000      -0.078481        -2.1356
  99   0.0000      -0.049452        -1.3457
 100   0.0000      -0.042872        -1.1666

MULLIKEN ATOMIC CHARGES
-----------------------
   0 C :   -0.311390
   1 O :   -0.161466
   2 C :    0.119837
   3 O :   -0.401446
   4 C :    0.160503
   5 N :   -0.114709
   6 C :    0.119772
   7 C :   -0.053552
   8 C :   -0.523084
   9 C :   -0.634776
  10 N :   -0.074438
  11 C :    0.305732
  12 C :   -0.462196
  13 O :   -0.390205
  14 C :    0.054916
  15 N :    0.011776
  16 N :   -0.078800
  17 C :    0.417728
  18 C :   -0.584177
  19 O :   -0.036737
  20 N :    0.245923
  21 C :   -0.443431
  22 C :    0.200815
  23 O :   -0.483080
  24 C :    0.043983
  25 O :   -0.344383
  26 H :    0.176204
  27 H :    0.176179
  28 H :    0.177487
  29 H :    0.200364
  30 H :    0.203960
  31 H :    0.195389
  32 H :    0.200883
  33 H :    0.199353
  34 H :    0.189015
  35 H :    0.349624
  36 H :    0.221456
  37 H :    0.207855
  38 H :    0.230851
  39 H :    0.222481
  40 H :    0.251327
  41 H :    0.238743
  42 H :    0.207357
  43 H :    0.199706
  44 H :    0.207785
  45 H :    0.360866
Sum of atomic charges:    1.0000000

LOEWDIN ATOMIC CHARGES
----------------------
   0 C :   -0.036239
   1 O :   -0.572373
   2 C :    0.399445
   3 O :   -0.410341
   4 C :    0.210544
   5 N :   -0.561353
   6 C :    0.368772
   7 C :    0.121523
   8 C :   -0.335962
   9 C :   -0.327430
  10 N :   -0.557784
  11 C :    0.404572
  12 C :   -0.256227
  13 O :   -0.374731
  14 C :    0.326489
  15 N :   -0.203193
  16 N :   -0.211001
  17 C :    0.490726
  18 C :   -0.283149
  19 O :   -0.372335
  20 N :   -0.627727
  21 C :   -0.073541
  22 C :    0.380823
  23 O :   -0.479368
  24 C :    0.286107
  25 O :   -0.429527
  26 H :    0.182755
  27 H :    0.182883
  28 H :    0.186058
  29 H :    0.181277
  30 H :    0.186381
  31 H :    0.177736
  32 H :    0.179259
  33 H :    0.182311
  34 H :    0.173757
  35 H :    0.308937
  36 H :    0.197742
  37 H :    0.193159
  38 H :    0.204417
  39 H :    0.203582
  40 H :    0.230216
  41 H :    0.222858
  42 H :    0.201815
  43 H :    0.208324
  44 H :    0.207271
  45 H :    0.312542

  Mayer bond orders larger than 0.100000
B(  0-C ,  1-O ) :   0.8305 B(  0-C , 26-H ) :   0.9546 B(  0-C , 27-H ) :   0.9545
B(  0-C , 28-H ) :   0.9638 B(  1-O ,  2-C ) :   1.1794 B(  2-C ,  3-O ) :   1.9064
B(  2-C ,  4-C ) :   1.0047 B(  4-C ,  5-N ) :   0.9701 B(  4-C , 24-C ) :   1.3372
B(  5-N ,  6-C ) :   1.7396 B(  5-N ,  7-C ) :  -0.1259 B(  5-N , 20-N ) :   0.1017
B(  6-C ,  7-C ) :   0.9156 B(  6-C , 20-N ) :   1.2166 B(  6-C , 24-C ) :   0.1015
B(  7-C ,  8-C ) :   0.9511 B(  7-C ,  9-C ) :   0.9022 B(  7-C , 10-N ) :   0.8024
B(  8-C , 29-H ) :   0.9568 B(  8-C , 30-H ) :   0.9538 B(  8-C , 31-H ) :   0.9343
B(  9-C , 32-H ) :   0.9658 B(  9-C , 33-H ) :   0.9585 B(  9-C , 34-H ) :   0.9555
B( 10-N , 11-C ) :   1.2535 B( 10-N , 35-H ) :   0.8624 B( 11-C , 13-O ) :   1.7938
B( 11-C , 14-C ) :   0.8407 B( 12-C , 14-C ) :   1.0063 B( 12-C , 36-H ) :   0.9283
B( 12-C , 37-H ) :   0.9228 B( 12-C , 38-H ) :   0.9264 B( 14-C , 15-N ) :   0.9614
B( 14-C , 19-O ) :   0.7610 B( 15-N , 16-N ) :   1.6525 B( 16-N , 17-C ) :   1.1187
B( 17-C , 18-C ) :   0.9695 B( 17-C , 19-O ) :   1.3128 B( 18-C , 39-H ) :   0.9666
B( 18-C , 40-H ) :   0.8826 B( 18-C , 41-H ) :   0.9072 B( 20-N , 21-C ) :   0.8367
B( 20-N , 22-C ) :   1.1242 B( 21-C , 42-H ) :   0.9332 B( 21-C , 43-H ) :   0.9336
B( 21-C , 44-H ) :   0.9262 B( 22-C , 23-O ) :   1.7939 B( 22-C , 24-C ) :   0.9677
B( 24-C , 25-O ) :   1.1162 B( 25-O , 45-H ) :   0.8173

Dispersion correction           -0.021026135
FINAL SINGLE POINT ENERGY     -1308.328019437060

DIPOLE MOMENT
-------------
                                X             Y             Z
Electronic contribution:      0.21236       4.13348      -3.18778
Nuclear contribution   :      5.53951      -3.69648      -0.04710
                        -----------------------------------------
Total Dipole Moment    :      5.75187       0.43700      -3.23488
                        -----------------------------------------
Magnitude (a.u.)       :      6.61357
Magnitude (Debye)      :     16.81037

Rotational constants in cm-1:     0.011740     0.003552     0.003465
Rotational constants in MHz :   351.958234   106.477681   103.883791

                             ****ORCA TERMINATED NORMALLY****
TOTAL RUN TIME: 0 days 0 hours 1 minutes 55 seconds 203 msec
