   * xtb version 6.5.1 (579679a) compiled by 'ehlert@majestix' on 2022-07-11
          program call               : /lustre/hpc/kemi/ree/PhD/git/ReactivityQM/dep/xtb-6.5.1/bin/xtb --gfn 1 /lustre/hpc/kemi/ree/PhD/git/ReactivityQM/calculations/R03/reac02prodN11/conf14/R03_reac02prodN11_conf14_gfn1.xyz --opt --vfukui --chrg 1 --uhf 0 --alpb DMSO

   ID    Z sym.   atoms
    1    6 C      1, 3, 5, 7-10, 12, 13, 15, 18, 19, 22, 23, 25
    2    8 O      2, 4, 14, 20, 24, 26
    3    7 N      6, 11, 16, 17, 21
    4    1 H      27-46

      * Solvation model:               ALPB
        Solvent                        DMSO
        Solvent mass                       7.8130E+01 g/mol
          :  Hamiltonian                  GFN1-xTB          :
 * total energy  :   -86.1970370 Eh     change       -0.1337526E-09 Eh
 * total energy  :   -86.2157074 Eh     change       -0.1867035E-01 Eh
 * total energy  :   -86.2241648 Eh     change       -0.8457434E-02 Eh
 * total energy  :   -86.2263499 Eh     change       -0.2185140E-02 Eh
 * total energy  :   -86.2278788 Eh     change       -0.1528889E-02 Eh
 * total energy  :   -86.2286513 Eh     change       -0.7725230E-03 Eh
 * total energy  :   -86.2292303 Eh     change       -0.5789878E-03 Eh
 * total energy  :   -86.2297082 Eh     change       -0.4778730E-03 Eh
 * total energy  :   -86.2300898 Eh     change       -0.3815597E-03 Eh
 * total energy  :   -86.2303755 Eh     change       -0.2856940E-03 Eh
 * total energy  :   -86.3179020 Eh     change       -0.7539792E-05 Eh
 * total energy  :   -86.3179100 Eh     change       -0.7954342E-05 Eh
 * total energy  :   -86.3179192 Eh     change       -0.9179470E-05 Eh
 * total energy  :   -86.3179266 Eh     change       -0.7468481E-05 Eh
 * total energy  :   -86.3179341 Eh     change       -0.7503922E-05 Eh
 * total energy  :   -86.3179415 Eh     change       -0.7324456E-05 Eh
 * total energy  :   -86.3179483 Eh     change       -0.6799467E-05 Eh
 * total energy  :   -86.3179530 Eh     change       -0.4719484E-05 Eh
 * total energy  :   -86.3179580 Eh     change       -0.4994321E-05 Eh
   *** GEOMETRY OPTIMIZATION CONVERGED AFTER 80 ITERATIONS ***

 final structure:
================
46
 xtb: 6.5.1 (579679a)
C           -5.82229268363802        2.99322393288400        0.98002082955024
O           -4.96071776535942        2.09458341637591        0.27227238121800
C           -3.89305229462874        1.65602195198482        0.93037350931474
O           -3.63492289114557        1.96986942156157        2.06962446494420
C           -3.03687632198535        0.73626765163105        0.12191341224802
N           -1.92998418946015        0.28967971265224        0.78972467642515
C           -1.07514762195536       -0.50918687719099        0.24357623820353
C            0.06280861769606       -0.96657023732422        1.14442732445286
C           -0.06772617925420       -2.46243608612438        1.44979502852282
C            0.04812533609362       -0.15665599122570        2.44576272424990
N            1.34103439733596       -0.66666227091968        0.44635198468214
C            2.50672715722257       -1.07013393146391        0.91503584635918
C            4.25572329054276       -1.87757118014391       -0.68021983244076
O            2.76332050008198       -1.76350162033236        1.85888461612213
C            3.73748164693944       -0.60208456108655       -0.01537623636168
N            4.65634971704919        0.06741475501804        0.80797127447530
N            4.77925547137824        1.27121635187646        0.42994126177913
C            3.98028926122148        1.44878281641871       -0.66268857662184
C            3.83378111562585        2.69430969407105       -1.40737830018358
O            3.34598406399656        0.36607641949507       -0.95613878998839
N           -1.22354685576529       -0.96007058161392       -1.04351320632141
C           -0.31511588338147       -1.86049290102549       -1.75484209493136
C           -2.31440700984942       -0.57713846650846       -1.80743625432016
O           -2.47250091910987       -0.97332579397056       -2.95503213473781
C           -3.26032912907576        0.32530352630346       -1.16308365306038
O           -4.30384209386563        0.68709743761115       -1.91055954821424
H           -6.21707759464497        2.50690364738059        1.87533163105412
H           -5.26922673726036        3.88995153249954        1.26923678959853
H           -6.63122577293184        3.24963744453888        0.29897358684829
H           -1.07952763745128       -2.65821018712737        1.80304552576414
H            0.63638282916713       -2.75251844791496        2.22730607590304
H            0.11965276042412       -3.06687275145500        0.56676438649203
H            0.12851837382773        0.90561743173185        2.22336782295637
H           -0.88403152101510       -0.33700843895039        2.97874667452998
H            0.88471448228746       -0.45859364796123        3.07289786220487
H            1.31292179981069       -0.02458549687557       -0.32664978286614
H            3.46967511650923       -2.29660047971393       -1.30393401613776
H            5.11839716606934       -1.62752343052434       -1.29438206603761
H            4.53456224684521       -2.58668529886013        0.09716450316043
H            3.26769304189845        2.53641722704210       -2.32195690125257
H            3.31852241000480        3.42581893962743       -0.77868958041309
H            4.82127387946826        3.10573419274333       -1.62410594031979
H           -0.80041668842687       -2.82961597359288       -1.87254074752024
H           -0.12917234274201       -1.43432978372337       -2.74036479820229
H            0.62018096851609       -1.97007754323776       -1.22279577832325
H           -4.22223251706151        0.26852547542373       -2.78854019280091

          :  Hamiltonian                  GFN1-xTB          :
         :: total energy             -86.317957979980 Eh    ::
         :: gradient norm              0.000792408436 Eh/a0 ::
         :: HOMO-LUMO gap              0.309192388432 eV    ::
         :: SCC energy               -87.149285226021 Eh    ::
         :: -> Gsolv                  -0.122674161800 Eh    ::
         :: repulsion energy           0.861209450216 Eh    ::

    * Orbital Energies and Occupations

         #    Occupation            Energy/Eh            Energy/eV
      -------------------------------------------------------------
         1        2.0000           -0.9370736             -25.4991
       ...           ...                  ...                  ...
        58        2.0000           -0.5315760             -14.4649
        59        2.0000           -0.5249945             -14.2858
        60        2.0000           -0.5203149             -14.1585
        61        2.0000           -0.5172153             -14.0741
        62        2.0000           -0.5153294             -14.0228
        63        2.0000           -0.5029431             -13.6858
        64        2.0000           -0.5002893             -13.6136
        65        2.0000           -0.4937958             -13.4369
        66        2.0000           -0.4910534             -13.3622
        67        2.0000           -0.4850754             -13.1996
        68        2.0000           -0.4694191             -12.7735
        69        2.0000           -0.4580232             -12.4634
        70        1.9950           -0.4395141             -11.9598 (HOMO)
        71        0.0050           -0.4281515             -11.6506 (LUMO)
        72                         -0.3316324              -9.0242
        73                         -0.3310644              -9.0087
        74                         -0.3023877              -8.2284
        75                         -0.2970478              -8.0831
        76                         -0.2474877              -6.7345
        77                         -0.1777589              -4.8371
        78                         -0.1667866              -4.5385
        79                         -0.1642882              -4.4705
        80                         -0.1498960              -4.0789
        81                         -0.1405587              -3.8248
       ...                                ...                  ...
       144                          0.7267819              19.7767
      -------------------------------------------------------------
                  HL-Gap            0.0113626 Eh            0.3092 eV

Wiberg/Mayer (AO) data.
largest (>0.10) Wiberg bond orders for each atom

     #   Z sym  total        # sym  WBO       # sym  WBO       # sym  WBO
 ---------------------------------------------------------------------------
     1   6 C    3.869 --    29 H    0.986    28 H    0.979    27 H    0.979
                             2 O    0.894
     2   8 O    2.208 --     3 C    1.122     1 C    0.894     4 O    0.136
     3   6 C    3.853 --     4 O    1.659     2 O    1.122     5 C    0.994
     4   8 O    1.921 --     3 C    1.659     2 O    0.136
     5   6 C    3.955 --    25 C    1.488     6 N    1.187     3 C    0.994
     6   7 N    3.030 --     7 C    1.577     5 C    1.187
     7   6 C    3.929 --     6 N    1.577    21 N    1.168     8 C    0.974
     8   6 C    3.906 --    10 C    0.992     9 C    0.986     7 C    0.974
                            11 N    0.875
     9   6 C    3.983 --     8 C    0.986    30 H    0.981    32 H    0.980
                            31 H    0.976
    10   6 C    3.986 --     8 C    0.992    33 H    0.984    35 H    0.982
                            34 H    0.981
    11   7 N    3.382 --    12 C    1.348    36 H    0.882     8 C    0.875
                            14 O    0.178
    12   6 C    3.908 --    14 O    1.667    11 N    1.348    15 C    0.741
    13   6 C    3.946 --    37 H    0.979    39 H    0.975    38 H    0.974
                            15 C    0.913
    14   8 O    2.057 --    12 C    1.667    11 N    0.178
    15   6 C    3.839 --    16 N    1.112    13 C    0.913    20 O    0.908
                            12 C    0.741
    16   7 N    2.993 --    17 N    1.623    15 C    1.112
    17   7 N    3.014 --    16 N    1.623    18 C    1.224
    18   6 C    3.800 --    20 O    1.265    17 N    1.224    19 C    1.078
    19   6 C    3.963 --    18 C    1.078    40 H    0.971    42 H    0.933
                            41 H    0.913
    20   8 O    2.367 --    18 C    1.265    15 C    0.908
    21   7 N    3.506 --     7 C    1.168    23 C    1.124    22 C    0.925
                            24 O    0.134
    22   6 C    3.917 --    45 H    0.980    43 H    0.973    44 H    0.973
                            21 N    0.925
    23   6 C    3.911 --    24 O    1.569    21 N    1.124    25 C    1.069
    24   8 O    1.906 --    23 C    1.569    21 N    0.134
    25   6 C    3.914 --     5 C    1.488    26 O    1.118    23 C    1.069
    26   8 O    2.092 --    25 C    1.118    46 H    0.801
    27   1 H    1.007 --     1 C    0.979
    28   1 H    1.007 --     1 C    0.979
    29   1 H    1.010 --     1 C    0.986
    30   1 H    0.998 --     9 C    0.981
    31   1 H    1.003 --     9 C    0.976
    32   1 H    0.999 --     9 C    0.980
    33   1 H    1.007 --    10 C    0.984
    34   1 H    1.008 --    10 C    0.981
    35   1 H    1.001 --    10 C    0.982
    36   1 H    0.928 --    11 N    0.882
    37   1 H    0.992 --    13 C    0.979
    38   1 H    0.989 --    13 C    0.974
    39   1 H    0.994 --    13 C    0.975
    40   1 H    0.985 --    19 C    0.971
    41   1 H    0.976 --    19 C    0.913
    42   1 H    0.980 --    19 C    0.933
    43   1 H    0.999 --    22 C    0.973
    44   1 H    1.002 --    22 C    0.973
    45   1 H    1.006 --    22 C    0.980
    46   1 H    0.842 --    26 O    0.801
 ---------------------------------------------------------------------------

           -------------------------------------------------
          | TOTAL ENERGY              -86.317957979980 Eh   |
          | GRADIENT NORM               0.000792408436 Eh/α |
          | HOMO-LUMO GAP               0.309192388432 eV   |
           -------------------------------------------------

 * finished run on 2023/06/20 at 15:46:48.501
