   * xtb version 6.5.1 (579679a) compiled by 'ehlert@majestix' on 2022-07-11
          program call               : /lustre/hpc/kemi/ree/PhD/git/ReactivityQM/dep/xtb-6.5.1/bin/xtb --gfn 1 /lustre/hpc/kemi/ree/PhD/git/ReactivityQM/calculations/RaltegravirCLI/reac02/conf03/RaltegravirCLI_reac02_conf03_gfn1.xyz --opt --vfukui --chrg 0 --uhf 0 --alpb DMSO

   ID    Z sym.   atoms
    1    6 C      1, 3-6, 9, 10, 13-17, 19-21, 23
    2    7 N      2, 7, 8, 12
    3    8 O      11, 22, 24
    4    9 F      18
    5    1 H      25-43

      * Solvation model:               ALPB
        Solvent                        DMSO
        Solvent mass                       7.8130E+01 g/mol
          :  Hamiltonian                  GFN1-xTB          :
 * total energy  :   -76.1691623 Eh     change       -0.7418066E-11 Eh
 * total energy  :   -76.1763852 Eh     change       -0.7222911E-02 Eh
 * total energy  :   -76.1780051 Eh     change       -0.1619840E-02 Eh
 * total energy  :   -76.1782987 Eh     change       -0.2936041E-03 Eh
 * total energy  :   -76.1785447 Eh     change       -0.2460031E-03 Eh
 * total energy  :   -76.1786589 Eh     change       -0.1141810E-03 Eh
 * total energy  :   -76.1787686 Eh     change       -0.1097230E-03 Eh
 * total energy  :   -76.1788575 Eh     change       -0.8888682E-04 Eh
 * total energy  :   -76.1789393 Eh     change       -0.8184625E-04 Eh
 * total energy  :   -76.1790221 Eh     change       -0.8282405E-04 Eh
 * total energy  :   -76.1814734 Eh     change       -0.3752008E-04 Eh
 * total energy  :   -76.1814941 Eh     change       -0.2069845E-04 Eh
 * total energy  :   -76.1815173 Eh     change       -0.2323352E-04 Eh
 * total energy  :   -76.1815460 Eh     change       -0.2870135E-04 Eh
 * total energy  :   -76.1815713 Eh     change       -0.2531939E-04 Eh
 * total energy  :   -76.1815907 Eh     change       -0.1932763E-04 Eh
 * total energy  :   -76.1816053 Eh     change       -0.1462369E-04 Eh
 * total energy  :   -76.1816166 Eh     change       -0.1133079E-04 Eh
 * total energy  :   -76.1816214 Eh     change       -0.4788364E-05 Eh
   *** GEOMETRY OPTIMIZATION CONVERGED AFTER 68 ITERATIONS ***

 final structure:
================
43
 xtb: 6.5.1 (579679a)
C           -3.55143614595473       -2.53187248133571       -0.51057649440632
N           -2.41526162477954       -1.68404191153451       -0.14213927051523
C           -2.49919040468505       -0.32021926174095       -0.00915263154850
C           -3.79638477799242        0.44489222553354       -0.24435646129416
C           -3.97097893212235        0.67841982214362       -1.75276751042159
C           -3.71319491999701        1.80360875431723        0.47257766223878
N           -4.93831347996750       -0.30732107411508        0.26482995830793
N           -1.46271237251947        0.40294209762499        0.27955890069927
C           -0.23952206614559       -0.15553213733636        0.51540999400793
C            0.85955639173432        0.83171040799348        0.79021487484921
O            0.79383502117645        1.99243302281980        0.40454084880002
N            1.89859902118263        0.35410019464464        1.50175158908806
C            3.07703519979055        1.17599305255961        1.75416373641484
C            4.12299462119317        0.93874681729313        0.68538053533303
C            3.92439939328049        1.43350780118396       -0.60292109005239
C            4.86087377582827        1.20255595133228       -1.59968984389268
C            5.99178937315108        0.47180636487999       -1.28050015003886
F            6.90328622392217        0.24292073642343       -2.24072829973698
C            6.22273465753026       -0.03019956222640       -0.01324895372774
C            5.27277700591304        0.20791285968741        0.97153182253333
C           -0.09920302505644       -1.50949185609353        0.44204669033668
O            1.06482391821362       -2.16312134477161        0.65426439250909
C           -1.22668723941661       -2.35073385164703        0.09395591553169
O           -1.11800735326539       -3.57357826437989        0.00820560420214
H           -4.12879470604237       -2.06343104809561       -1.30104085567048
H           -4.19010234860613       -2.68803561691537        0.35694335024129
H           -3.16153335443086       -3.48922927600909       -0.85594774369989
H           -4.83948312429302        1.31268407401929       -1.92446211007869
H           -3.08793382737702        1.17268307021889       -2.15717638744317
H           -4.12034052072683       -0.26168102763706       -2.28094993328009
H           -4.65732417513735        2.33182133374079        0.35226686403856
H           -3.52448512998880        1.65520696017311        1.53483254721487
H           -2.90902120116742        2.40805226382902        0.05435390751360
H           -5.79134503582148        0.12755703027654       -0.05723626963151
H           -4.94250832387660       -0.27457319984522        1.27602337018564
H            1.95438414582856       -0.61876189555525        1.75051992973963
H            3.46864085065206        0.91780771301760        2.74055943412521
H            2.76201392127354        2.22468328102771        1.75545104877885
H            3.02961353590227        2.00348051336860       -0.82736707870420
H            4.72045601304348        1.57969655263055       -2.60444721716049
H            7.12163860873927       -0.59464492464681        0.19672047025750
H            5.43402742186295       -0.17849680038654        1.97100210182266
H            0.90028298915173       -3.12025736646944        0.55884775253438

          :  Hamiltonian                  GFN1-xTB          :
         :: total energy             -76.181621417676 Eh    ::
         :: gradient norm              0.000266138381 Eh/a0 ::
         :: HOMO-LUMO gap              2.836113648024 eV    ::
         :: SCC energy               -77.028395418282 Eh    ::
         :: -> Gsolv                  -0.048813578961 Eh    ::
         :: repulsion energy           0.874082303393 Eh    ::

    * Orbital Energies and Occupations

         #    Occupation            Energy/Eh            Energy/eV
      -------------------------------------------------------------
         1        2.0000           -0.8637020             -23.5025
       ...           ...                  ...                  ...
        52        2.0000           -0.5003565             -13.6154
        53        2.0000           -0.4933278             -13.4241
        54        2.0000           -0.4848368             -13.1931
        55        2.0000           -0.4731262             -12.8744
        56        2.0000           -0.4672616             -12.7148
        57        2.0000           -0.4642211             -12.6321
        58        2.0000           -0.4511360             -12.2760
        59        2.0000           -0.4488326             -12.2134
        60        2.0000           -0.4398203             -11.9681
        61        2.0000           -0.4351538             -11.8411
        62        2.0000           -0.4319460             -11.7539
        63        2.0000           -0.4198101             -11.4236
        64        2.0000           -0.4129025             -11.2356 (HOMO)
        65                         -0.3086773              -8.3995 (LUMO)
        66                         -0.2735163              -7.4428
        67                         -0.2730359              -7.4297
        68                         -0.2664202              -7.2497
        69                         -0.2281889              -6.2093
        70                         -0.1517983              -4.1306
        71                         -0.1454660              -3.9583
        72                         -0.1319058              -3.5893
        73                         -0.1236972              -3.3660
        74                         -0.1204924              -3.2788
        75                         -0.1163755              -3.1667
       ...                                ...                  ...
       134                          0.7134567              19.4141
      -------------------------------------------------------------
                  HL-Gap            0.1042253 Eh            2.8361 eV

Wiberg/Mayer (AO) data.
largest (>0.10) Wiberg bond orders for each atom

     #   Z sym  total        # sym  WBO       # sym  WBO       # sym  WBO
 ---------------------------------------------------------------------------
     1   6 C    3.922 --    25 H    0.978    27 H    0.976    26 H    0.976
                             2 N    0.928
     2   7 N    3.515 --     3 C    1.174    23 C    1.135     1 C    0.928
                            24 O    0.132
     3   6 C    3.923 --     8 N    1.561     2 N    1.174     4 C    0.976
     4   6 C    3.966 --     6 C    0.988     7 N    0.985     5 C    0.981
                             3 C    0.976
     5   6 C    3.994 --    29 H    0.985    28 H    0.983     4 C    0.981
                            30 H    0.980
     6   6 C    3.994 --     4 C    0.988    31 H    0.986    32 H    0.985
                            33 H    0.983
     7   7 N    2.977 --     4 C    0.985    35 H    0.941    34 H    0.939
     8   7 N    3.029 --     3 C    1.561     9 C    1.201
     9   6 C    3.965 --    21 C    1.511     8 N    1.201    10 C    0.983
    10   6 C    3.906 --    11 O    1.576    12 N    1.267     9 C    0.983
    11   8 O    1.880 --    10 C    1.576    12 N    0.171
    12   7 N    3.346 --    10 C    1.267    13 C    0.941    36 H    0.892
                            11 O    0.171
    13   6 C    3.948 --    14 C    0.994    37 H    0.977    38 H    0.968
                            12 N    0.941
    14   6 C    3.988 --    20 C    1.424    15 C    1.414    13 C    0.994
    15   6 C    3.993 --    16 C    1.448    14 C    1.414    39 H    0.969
                            19 C    0.111
    16   6 C    3.992 --    15 C    1.448    17 C    1.397    40 H    0.970
                            20 C    0.110
    17   6 C    3.860 --    19 C    1.404    16 C    1.397    18 F    0.924
    18   9 F    1.051 --    17 C    0.924
    19   6 C    3.991 --    20 C    1.438    17 C    1.404    41 H    0.969
                            15 C    0.111
    20   6 C    3.994 --    19 C    1.438    14 C    1.424    42 H    0.971
                            16 C    0.110
    21   6 C    3.917 --     9 C    1.511    23 C    1.095    22 O    1.066
    22   8 O    2.055 --    21 C    1.066    43 H    0.804
    23   6 C    3.917 --    24 O    1.535     2 N    1.135    21 C    1.095
    24   8 O    1.884 --    23 C    1.535     2 N    0.132
    25   1 H    1.021 --     1 C    0.978
    26   1 H    1.019 --     1 C    0.976
    27   1 H    1.009 --     1 C    0.976
    28   1 H    1.000 --     5 C    0.983
    29   1 H    1.004 --     5 C    0.985
    30   1 H    1.005 --     5 C    0.980
    31   1 H    1.004 --     6 C    0.986
    32   1 H    1.007 --     6 C    0.985
    33   1 H    1.015 --     6 C    0.983
    34   1 H    0.954 --     7 N    0.939
    35   1 H    0.957 --     7 N    0.941
    36   1 H    0.946 --    12 N    0.892
    37   1 H    1.003 --    13 C    0.977
    38   1 H    1.010 --    13 C    0.968
    39   1 H    1.009 --    15 C    0.969
    40   1 H    0.998 --    16 C    0.970
    41   1 H    0.998 --    19 C    0.969
    42   1 H    0.999 --    20 C    0.971
    43   1 H    0.848 --    22 O    0.804
 ---------------------------------------------------------------------------

           -------------------------------------------------
          | TOTAL ENERGY              -76.181621417676 Eh   |
          | GRADIENT NORM               0.000266138381 Eh/α |
          | HOMO-LUMO GAP               2.836113648024 eV   |
           -------------------------------------------------

 * finished run on 2023/06/20 at 14:51:50.453
