   * xtb version 6.5.1 (579679a) compiled by 'ehlert@majestix' on 2022-07-11
          program call               : /lustre/hpc/kemi/ree/PhD/git/ReactivityQM/dep/xtb-6.5.1/bin/xtb --gfn 1 /lustre/hpc/kemi/ree/PhD/git/ReactivityQM/calculations/R02/reac01prodE06/conf15/R02_reac01prodE06_conf15_gfn1.xyz --opt --vfukui --chrg -1 --uhf 0 --alpb DMSO

   ID    Z sym.   atoms
    1    6 C      1, 3, 5, 6, 8, 11-15, 17, 19, 22, 23
    2    8 O      2, 4, 7, 9, 18, 24
    3    7 N      10, 16, 20, 21, 25
    4    1 H      26-43

      * Solvation model:               ALPB
        Solvent                        DMSO
        Solvent mass                       7.8130E+01 g/mol
          :  Hamiltonian                  GFN1-xTB          :
 * total energy  :   -83.8679009 Eh     change       -0.1624684E-08 Eh
 * total energy  :   -83.8792217 Eh     change       -0.1132084E-01 Eh
 * total energy  :   -83.8839517 Eh     change       -0.4730022E-02 Eh
 * total energy  :   -83.8849347 Eh     change       -0.9829710E-03 Eh
 * total energy  :   -83.8856074 Eh     change       -0.6727041E-03 Eh
 * total energy  :   -83.8857911 Eh     change       -0.1837281E-03 Eh
 * total energy  :   -83.8858963 Eh     change       -0.1051226E-03 Eh
 * total energy  :   -83.8859642 Eh     change       -0.6794127E-04 Eh
 * total energy  :   -83.8860161 Eh     change       -0.5188243E-04 Eh
 * total energy  :   -83.8860644 Eh     change       -0.4829087E-04 Eh
 * total energy  :   -83.8862477 Eh     change       -0.3653520E-04 Eh
 * total energy  :   -83.8862664 Eh     change       -0.1868920E-04 Eh
 * total energy  :   -83.8862797 Eh     change       -0.1324726E-04 Eh
 * total energy  :   -83.8862944 Eh     change       -0.1472404E-04 Eh
 * total energy  :   -83.8863045 Eh     change       -0.1015641E-04 Eh
 * total energy  :   -83.8863133 Eh     change       -0.8791801E-05 Eh
 * total energy  :   -83.8863219 Eh     change       -0.8553728E-05 Eh
 * total energy  :   -83.8863269 Eh     change       -0.4986833E-05 Eh
 * total energy  :   -83.8863311 Eh     change       -0.4231425E-05 Eh
   *** GEOMETRY OPTIMIZATION CONVERGED AFTER 24 ITERATIONS ***

 final structure:
================
43
 xtb: 6.5.1 (579679a)
C           -3.13687907492832        1.09262000287050       -3.48516821319072
O           -2.57442865765423        0.72447881615473       -2.22985681391152
C           -2.85142790688700       -0.51630308101871       -1.79695834048169
O           -3.54314356078806       -1.27356777661607       -2.46214002609945
C           -2.24037538869651       -0.84107435121806       -0.48769328636876
C           -2.29897137890583       -2.14956070818452        0.00581112059366
O           -3.01541206717687       -3.17208668155928       -0.61126118681321
C           -1.50325460104334       -2.50891001966145        1.13492391573777
O           -1.36804326235209       -3.64002256411915        1.62630978000370
N           -0.72400986131703       -1.45589685223618        1.64092824751709
C           -1.17804165937004       -0.07818954178217        1.47879219894902
C           -2.33095713161799        0.21441231272349        2.46499462141879
C            0.04955945727261        0.86501997117457        1.70163421491889
C            0.66343290127797        0.76095049838330        3.10123425144970
C           -0.32485246506017        2.32076191126925        1.39814468535252
N            1.02617840555627        0.40258021576861        0.70809529979412
C            2.24463021706703        0.90842690152003        0.50557920743937
O            2.75383529972934        1.84359931871640        1.10940832028433
C            2.94972549611900        0.17067315887964       -0.58495181186673
N            2.46824947252055       -0.81687497553887       -1.27612065908950
N            3.44222958119387       -1.19613154062210       -2.15421023985562
C            4.45458715713933       -0.41507879626750       -1.94072201528992
C            5.76469813152122       -0.42631001261897       -2.62848712402273
O            4.20723719541799        0.47059165661981       -0.96303153843735
N           -1.63311354893701        0.16977370853385        0.12813497161213
H           -2.84307949621394        2.12331235936299       -3.67557977482630
H           -4.22677607655484        1.01419598369281       -3.45268038484911
H           -2.75786754721284        0.44317766428042       -4.27927709296342
H           -3.47073754880115       -2.81153765602504       -1.39361272907679
H           -0.35989525514610       -1.66085785651598        2.56095883999599
H           -2.01187247230837        0.07070048972478        3.49493707121952
H           -3.15446004725211       -0.46863857188098        2.25816570844688
H           -2.68643047397516        1.23422547348967        2.33518873130070
H            0.99777644264759       -0.25423339516033        3.30843393000653
H           -0.06604086007723        1.05364613881840        3.85349955335081
H            1.52088510811994        1.42847001378661        3.17979863114927
H           -0.98683608240639        2.70495415870901        2.17206691577578
H           -0.83239716528262        2.37754344236236        0.43461369956918
H            0.56890996456252        2.94230602535957        1.37118084347224
H            0.72078330882532       -0.37113267795305        0.12567015393938
H            5.74621962664713       -1.15134885431987       -3.43798358299578
H            6.55281120253197       -0.69126332932978       -1.92389891515818
H            5.98755462182109        0.56260102044114       -3.02661117799445

          :  Hamiltonian                  GFN1-xTB          :
         :: total energy             -83.886331111160 Eh    ::
         :: gradient norm              0.000861261124 Eh/a0 ::
         :: HOMO-LUMO gap              0.678921649484 eV    ::
         :: SCC energy               -84.641250471387 Eh    ::
         :: -> Gsolv                  -0.110959800504 Eh    ::
         :: repulsion energy           0.782780463688 Eh    ::

    * Orbital Energies and Occupations

         #    Occupation            Energy/Eh            Energy/eV
      -------------------------------------------------------------
         1        2.0000           -0.8567116             -23.3123
       ...           ...                  ...                  ...
        56        2.0000           -0.4785600             -13.0223
        57        2.0000           -0.4747875             -12.9196
        58        2.0000           -0.4632959             -12.6069
        59        2.0000           -0.4524734             -12.3124
        60        2.0000           -0.4514141             -12.2836
        61        2.0000           -0.4451894             -12.1142
        62        2.0000           -0.4394819             -11.9589
        63        2.0000           -0.4302689             -11.7082
        64        2.0000           -0.4281392             -11.6503
        65        2.0000           -0.4081084             -11.1052
        66        2.0000           -0.3931509             -10.6982
        67        2.0000           -0.3787468             -10.3062
        68        2.0000           -0.3226027              -8.7785 (HOMO)
        69        0.0000           -0.2976528              -8.0995 (LUMO)
        70                         -0.2733909              -7.4393
        71                         -0.2510050              -6.8302
        72                         -0.1932777              -5.2594
        73                         -0.1860380              -5.0624
        74                         -0.1410309              -3.8376
        75                         -0.1278633              -3.4793
        76                         -0.1194197              -3.2496
        77                         -0.1141726              -3.1068
        78                         -0.1088231              -2.9612
        79                         -0.0992417              -2.7005
       ...                                ...                  ...
       136                          0.7315196              19.9057
      -------------------------------------------------------------
                  HL-Gap            0.0249499 Eh            0.6789 eV

Wiberg/Mayer (AO) data.
largest (>0.10) Wiberg bond orders for each atom

     #   Z sym  total        # sym  WBO       # sym  WBO       # sym  WBO
 ---------------------------------------------------------------------------
     1   6 C    3.889 --    26 H    0.987    28 H    0.980    27 H    0.980
                             2 O    0.914
     2   8 O    2.189 --     3 C    1.092     1 C    0.914     4 O    0.118
     3   6 C    3.820 --     4 O    1.601     2 O    1.092     5 C    1.024
     4   8 O    1.920 --     3 C    1.601     2 O    0.118
     5   6 C    3.971 --    25 N    1.399     6 C    1.328     3 C    1.024
     6   6 C    3.877 --     5 C    1.328     8 C    1.186     7 O    0.989
                            25 N    0.184
     7   8 O    1.960 --     6 C    0.989    29 H    0.828
     8   6 C    3.915 --     9 O    1.500     6 C    1.186    10 N    1.072
     9   8 O    1.802 --     8 C    1.500    10 N    0.104
    10   7 N    3.194 --     8 C    1.072    11 C    0.941    30 H    0.919
                             9 O    0.104
    11   6 C    3.946 --    25 N    1.001    12 C    0.975    13 C    0.950
                            10 N    0.941
    12   6 C    3.995 --    32 H    0.984    31 H    0.983    33 H    0.983
                            11 C    0.975
    13   6 C    3.922 --    14 C    0.997    15 C    0.995    11 C    0.950
                            16 N    0.914
    14   6 C    3.994 --    13 C    0.997    35 H    0.983    34 H    0.982
                            36 H    0.980
    15   6 C    3.994 --    13 C    0.995    37 H    0.984    39 H    0.983
                            38 H    0.980
    16   7 N    3.396 --    17 C    1.306    13 C    0.914    40 H    0.891
                            18 O    0.189
    17   6 C    3.925 --    18 O    1.559    16 N    1.306    19 C    0.979
    18   8 O    1.882 --    17 C    1.559    16 N    0.189
    19   6 C    3.869 --    20 N    1.619    24 O    1.061    17 C    0.979
    20   7 N    3.011 --    19 C    1.619    21 N    1.190
    21   7 N    2.980 --    22 C    1.616    20 N    1.190
    22   6 C    3.874 --    21 N    1.616    24 O    1.080    23 C    1.030
    23   6 C    3.988 --    22 C    1.030    41 H    0.983    43 H    0.967
                            42 H    0.963
    24   8 O    2.324 --    22 C    1.080    19 C    1.061
    25   7 N    2.914 --     5 C    1.399    11 C    1.001     6 C    0.184
    26   1 H    1.014 --     1 C    0.987
    27   1 H    1.011 --     1 C    0.980
    28   1 H    1.011 --     1 C    0.980
    29   1 H    0.890 --     7 O    0.828
    30   1 H    0.967 --    10 N    0.919
    31   1 H    1.005 --    12 C    0.983
    32   1 H    1.007 --    12 C    0.984
    33   1 H    1.010 --    12 C    0.983
    34   1 H    1.004 --    14 C    0.982
    35   1 H    1.005 --    14 C    0.983
    36   1 H    1.012 --    14 C    0.980
    37   1 H    1.006 --    15 C    0.984
    38   1 H    1.028 --    15 C    0.980
    39   1 H    1.011 --    15 C    0.983
    40   1 H    0.986 --    16 N    0.891
    41   1 H    0.999 --    23 C    0.983
    42   1 H    0.998 --    23 C    0.963
    43   1 H    0.998 --    23 C    0.967
 ---------------------------------------------------------------------------

           -------------------------------------------------
          | TOTAL ENERGY              -83.886331111160 Eh   |
          | GRADIENT NORM               0.000861261124 Eh/α |
          | HOMO-LUMO GAP               0.678921649484 eV   |
           -------------------------------------------------

 * finished run on 2023/06/20 at 15:00:48.548
