                         Program Version 5.0.1 -  RELEASE  -
|  1> # ORCA input file
|  2> ! SP r2SCAN-3c CPCM
|  3>
|  4> %maxcore 1875.0
|  5> %pal nprocs 4 end
|  6> %cpcm smd true SMDsolvent "DMSO" end
|  7>
|  8> *xyz 0 1
|  9> C       6.898711   -0.640098    1.581326
| 10> O       5.651811    0.055305    1.567430
| 11> C       4.722372   -0.412383    0.732557
| 12> O       4.905831   -1.379132    0.020313
| 13> C       3.453232    0.360322    0.745765
| 14> N       2.559156   -0.068112   -0.169176
| 15> C       1.410911    0.528221   -0.309472
| 16> C       0.451793    0.065137   -1.379367
| 17> C       0.549477    1.007934   -2.583183
| 18> C       0.759726   -1.379896   -1.784182
| 19> N      -0.911470    0.149514   -0.852444
| 20> C      -1.238376   -0.428979    0.324686
| 21> O      -0.441576   -0.943518    1.091547
| 22> C      -2.690632   -0.373311    0.607284
| 23> N      -3.290387   -0.895520    1.688716
| 24> N      -4.555553   -0.718930    1.579526
| 25> C      -4.836885   -0.044320    0.340254
| 26> C      -5.677338   -0.937272   -0.576355
| 27> C      -5.499308    1.310025    0.602175
| 28> O      -3.544339    0.154459   -0.241490
| 29> N       1.065865    1.615257    0.426963
| 30> C       1.850221    2.148770    1.433881
| 31> O       1.460621    3.107784    2.071064
| 32> C       3.183177    1.455636    1.642800
| 33> O       3.933827    1.853601    2.530943
| 34> H       6.757528   -1.661408    1.943065
| 35> H       7.557060   -0.090819    2.251392
| 36> H       7.323813   -0.671801    0.575288
| 37> H      -0.149552    0.692320   -3.354650
| 38> H       0.311514    2.026536   -2.283634
| 39> H       1.560018    0.983060   -2.988005
| 40> H       1.771403   -1.433348   -2.183609
| 41> H       0.685797   -2.035544   -0.917448
| 42> H       0.052262   -1.704994   -2.543178
| 43> H      -1.639617    0.490740   -1.454990
| 44> H      -5.154187   -1.876285   -0.743509
| 45> H      -6.638050   -1.130485   -0.105660
| 46> H      -5.827307   -0.431521   -1.526779
| 47> H      -5.615896    1.837059   -0.341281
| 48> H      -4.874124    1.896490    1.272148
| 49> H      -6.473655    1.148870    1.056640
| 50> H       0.182123    2.066370    0.252647
| 51> **                         ****END OF INPUT****

CARTESIAN COORDINATES (ANGSTROEM)
---------------------------------
  C      6.898711   -0.640098    1.581326
  O      5.651811    0.055305    1.567430
  C      4.722372   -0.412383    0.732557
  O      4.905831   -1.379132    0.020313
  C      3.453232    0.360322    0.745765
  N      2.559156   -0.068112   -0.169176
  C      1.410911    0.528221   -0.309472
  C      0.451793    0.065137   -1.379367
  C      0.549477    1.007934   -2.583183
  C      0.759726   -1.379896   -1.784182
  N     -0.911470    0.149514   -0.852444
  C     -1.238376   -0.428979    0.324686
  O     -0.441576   -0.943518    1.091547
  C     -2.690632   -0.373311    0.607284
  N     -3.290387   -0.895520    1.688716
  N     -4.555553   -0.718930    1.579526
  C     -4.836885   -0.044320    0.340254
  C     -5.677338   -0.937272   -0.576355
  C     -5.499308    1.310025    0.602175
  O     -3.544339    0.154459   -0.241490
  N      1.065865    1.615257    0.426963
  C      1.850221    2.148770    1.433881
  O      1.460621    3.107784    2.071064
  C      3.183177    1.455636    1.642800
  O      3.933827    1.853601    2.530943
  H      6.757528   -1.661408    1.943065
  H      7.557060   -0.090819    2.251392
  H      7.323813   -0.671801    0.575288
  H     -0.149552    0.692320   -3.354650
  H      0.311514    2.026536   -2.283634
  H      1.560018    0.983060   -2.988005
  H      1.771403   -1.433348   -2.183609
  H      0.685797   -2.035544   -0.917448
  H      0.052262   -1.704994   -2.543178
  H     -1.639617    0.490740   -1.454990
  H     -5.154187   -1.876285   -0.743509
  H     -6.638050   -1.130485   -0.105660
  H     -5.827307   -0.431521   -1.526779
  H     -5.615896    1.837059   -0.341281
  H     -4.874124    1.896490    1.272148
  H     -6.473655    1.148870    1.056640
  H      0.182123    2.066370    0.252647

 Total Charge           Charge          ....    0
 Multiplicity           Mult            ....    1
 Number of Electrons    NEL             ....  184
 Basis Dimension        Dim             ....  615

ORBITAL ENERGIES
----------------

  NO   OCC          E(Eh)            E(eV)
   0   2.0000     -19.062117      -518.7066
   1   2.0000     -18.993709      -516.8451
   2   2.0000     -18.949863      -515.6520
   3   2.0000     -18.943173      -515.4700
   4   2.0000     -18.929999      -515.1115
   5   2.0000     -18.929769      -515.1052
   6   2.0000     -14.234423      -387.3384
   7   2.0000     -14.229761      -387.2115
   8   2.0000     -14.228717      -387.1831
   9   2.0000     -14.210827      -386.6963
  10   2.0000     -14.170766      -385.6061
  11   2.0000     -10.174086      -276.8510
  12   2.0000     -10.167425      -276.6697
  13   2.0000     -10.154433      -276.3162
  14   2.0000     -10.153366      -276.2871
  15   2.0000     -10.148241      -276.1477
  16   2.0000     -10.133268      -275.7402
  17   2.0000     -10.113534      -275.2033
  18   2.0000     -10.108768      -275.0736
  19   2.0000     -10.089695      -274.5546
  20   2.0000     -10.072786      -274.0944
  21   2.0000     -10.041880      -273.2534
  22   2.0000     -10.041054      -273.2310
  23   2.0000     -10.031344      -272.9667
  24   2.0000     -10.020564      -272.6734
  25   2.0000      -1.151249       -31.3271
  26   2.0000      -1.069514       -29.1030
  27   2.0000      -1.039374       -28.2828
  28   2.0000      -1.033783       -28.1307
  29   2.0000      -1.007708       -27.4211
  30   2.0000      -0.989419       -26.9235
  31   2.0000      -0.977800       -26.6073
  32   2.0000      -0.968969       -26.3670
  33   2.0000      -0.922123       -25.0922
  34   2.0000      -0.883344       -24.0370
  35   2.0000      -0.838814       -22.8253
  36   2.0000      -0.786279       -21.3957
  37   2.0000      -0.733928       -19.9712
  38   2.0000      -0.721845       -19.6424
  39   2.0000      -0.693335       -18.8666
  40   2.0000      -0.683196       -18.5907
  41   2.0000      -0.669116       -18.2076
  42   2.0000      -0.663639       -18.0585
  43   2.0000      -0.644178       -17.5290
  44   2.0000      -0.629559       -17.1312
  45   2.0000      -0.609970       -16.5981
  46   2.0000      -0.596113       -16.2211
  47   2.0000      -0.567331       -15.4379
  48   2.0000      -0.546938       -14.8829
  49   2.0000      -0.540126       -14.6976
  50   2.0000      -0.526310       -14.3216
  51   2.0000      -0.504076       -13.7166
  52   2.0000      -0.496975       -13.5234
  53   2.0000      -0.493940       -13.4408
  54   2.0000      -0.461478       -12.5575
  55   2.0000      -0.453845       -12.3497
  56   2.0000      -0.449536       -12.2325
  57   2.0000      -0.439112       -11.9489
  58   2.0000      -0.435614       -11.8537
  59   2.0000      -0.432769       -11.7762
  60   2.0000      -0.428969       -11.6728
  61   2.0000      -0.422154       -11.4874
  62   2.0000      -0.412806       -11.2330
  63   2.0000      -0.409748       -11.1498
  64   2.0000      -0.397460       -10.8154
  65   2.0000      -0.390520       -10.6266
  66   2.0000      -0.389309       -10.5936
  67   2.0000      -0.382433       -10.4065
  68   2.0000      -0.378337       -10.2951
  69   2.0000      -0.376176       -10.2363
  70   2.0000      -0.375328       -10.2132
  71   2.0000      -0.374004       -10.1772
  72   2.0000      -0.362931        -9.8758
  73   2.0000      -0.356085        -9.6896
  74   2.0000      -0.353096        -9.6082
  75   2.0000      -0.348434        -9.4814
  76   2.0000      -0.342006        -9.3065
  77   2.0000      -0.340409        -9.2630
  78   2.0000      -0.339152        -9.2288
  79   2.0000      -0.336669        -9.1612
  80   2.0000      -0.327344        -8.9075
  81   2.0000      -0.318686        -8.6719
  82   2.0000      -0.280642        -7.6367
  83   2.0000      -0.276825        -7.5328
  84   2.0000      -0.270360        -7.3569
  85   2.0000      -0.268652        -7.3104
  86   2.0000      -0.263022        -7.1572
  87   2.0000      -0.255368        -6.9489
  88   2.0000      -0.252677        -6.8757
  89   2.0000      -0.237718        -6.4686
  90   2.0000      -0.208862        -5.6834
  91   2.0000      -0.182431        -4.9642
  92   0.0000      -0.185298        -5.0422
  93   0.0000      -0.081857        -2.2274
  94   0.0000      -0.077619        -2.1121
  95   0.0000      -0.035813        -0.9745
  96   0.0000       0.018450         0.5021

MULLIKEN ATOMIC CHARGES
-----------------------
   0 C :   -0.316734
   1 O :   -0.145903
   2 C :    0.149282
   3 O :   -0.409742
   4 C :    0.148225
   5 N :   -0.122407
   6 C :    0.201415
   7 C :    0.061576
   8 C :   -0.532574
   9 C :   -0.595341
  10 N :   -0.171428
  11 C :   -0.098339
  12 O :   -0.414676
  13 C :    0.460762
  14 N :   -0.073970
  15 N :   -0.143847
  16 C :    0.108229
  17 C :   -0.457815
  18 C :   -0.468608
  19 O :   -0.053893
  20 N :   -0.013913
  21 C :    0.075258
  22 O :   -0.360793
  23 C :    0.004919
  24 O :   -0.318088
  25 H :    0.173240
  26 H :    0.173953
  27 H :    0.172491
  28 H :    0.193210
  29 H :    0.191896
  30 H :    0.198967
  31 H :    0.190235
  32 H :    0.194427
  33 H :    0.187338
  34 H :    0.323357
  35 H :    0.185726
  36 H :    0.200981
  37 H :    0.197018
  38 H :    0.196396
  39 H :    0.185689
  40 H :    0.199389
  41 H :    0.324092
Sum of atomic charges:    0.0000000

LOEWDIN ATOMIC CHARGES
----------------------
   0 C :   -0.041265
   1 O :   -0.576721
   2 C :    0.392942
   3 O :   -0.426423
   4 C :    0.219810
   5 N :   -0.542805
   6 C :    0.369873
   7 C :    0.104572
   8 C :   -0.333846
   9 C :   -0.342268
  10 N :   -0.567230
  11 C :    0.375397
  12 O :   -0.421590
  13 C :    0.471281
  14 N :   -0.281382
  15 N :   -0.297019
  16 C :    0.261347
  17 C :   -0.302204
  18 C :   -0.304619
  19 O :   -0.426553
  20 N :   -0.433514
  21 C :    0.379054
  22 O :   -0.404526
  23 C :    0.260128
  24 O :   -0.458539
  25 H :    0.180176
  26 H :    0.183758
  27 H :    0.181264
  28 H :    0.177545
  29 H :    0.175983
  30 H :    0.180368
  31 H :    0.179294
  32 H :    0.180050
  33 H :    0.170437
  34 H :    0.302586
  35 H :    0.181779
  36 H :    0.188024
  37 H :    0.182992
  38 H :    0.182854
  39 H :    0.181511
  40 H :    0.187492
  41 H :    0.309988

  Mayer bond orders larger than 0.100000
B(  0-C ,  1-O ) :   0.8370 B(  0-C , 25-H ) :   0.9547 B(  0-C , 26-H ) :   0.9656
B(  0-C , 27-H ) :   0.9569 B(  1-O ,  2-C ) :   1.1640 B(  2-C ,  3-O ) :   1.8956
B(  2-C ,  4-C ) :   1.0630 B(  4-C ,  5-N ) :   1.0355 B(  4-C , 23-C ) :   0.9505
B(  4-C , 24-O ) :  -0.1089 B(  5-N ,  6-C ) :   1.6173 B(  6-C ,  7-C ) :   0.7828
B(  6-C , 12-O ) :   0.1139 B(  6-C , 20-N ) :   1.0946 B(  7-C ,  8-C ) :   0.9390
B(  7-C ,  9-C ) :   0.9261 B(  7-C , 10-N ) :   0.7679 B(  8-C , 28-H ) :   0.9592
B(  8-C , 29-H ) :   0.9512 B(  8-C , 30-H ) :   0.9625 B(  9-C , 31-H ) :   0.9602
B(  9-C , 32-H ) :   0.9602 B(  9-C , 33-H ) :   0.9699 B( 10-N , 11-C ) :   1.1556
B( 10-N , 34-H ) :   0.8893 B( 11-C , 12-O ) :   1.8074 B( 11-C , 13-C ) :   0.9073
B( 11-C , 15-N ) :   0.1169 B( 13-C , 14-N ) :   1.3080 B( 13-C , 19-O ) :   1.1754
B( 14-N , 15-N ) :   1.5933 B( 15-N , 16-C ) :   0.8029 B( 16-C , 17-C ) :   0.9572
B( 16-C , 18-C ) :   0.9570 B( 16-C , 19-O ) :   0.7330 B( 17-C , 35-H ) :   0.9334
B( 17-C , 36-H ) :   0.9460 B( 17-C , 37-H ) :   0.9564 B( 18-C , 38-H ) :   0.9562
B( 18-C , 39-H ) :   0.9375 B( 18-C , 40-H ) :   0.9440 B( 20-N , 21-C ) :   0.9670
B( 20-N , 41-H ) :   0.8800 B( 21-C , 22-O ) :   2.0550 B( 21-C , 23-C ) :   0.8769
B( 23-C , 24-O ) :   1.8995

Dispersion correction           -0.018728196
FINAL SINGLE POINT ENERGY     -1268.580448652678

DIPOLE MOMENT
-------------
                                X             Y             Z
Electronic contribution:     10.05314       3.99347      12.55237
Nuclear contribution   :    -16.22459      -3.46105     -17.39557
                        -----------------------------------------
Total Dipole Moment    :     -6.17145       0.53241      -4.84320
                        -----------------------------------------
Magnitude (a.u.)       :      7.86301
Magnitude (Debye)      :     19.98617

Rotational constants in cm-1:     0.016638     0.003390     0.003204
Rotational constants in MHz :   498.781929   101.634147    96.065285

                             ****ORCA TERMINATED NORMALLY****
TOTAL RUN TIME: 0 days 0 hours 7 minutes 0 seconds 323 msec
