   * xtb version 6.5.1 (579679a) compiled by 'ehlert@majestix' on 2022-07-11
          program call               : /lustre/hpc/kemi/ree/PhD/git/ReactivityQM/dep/xtb-6.5.1/bin/xtb --gfn 1 /lustre/hpc/kemi/ree/PhD/git/ReactivityQM/calculations/R02oxygendeprot/reac01prodN13/conf13/R02oxygendeprot_reac01prodN13_conf13_gfn1.xyz --opt --vfukui --chrg 0 --uhf 0 --alpb DMSO

   ID    Z sym.   atoms
    1    6 C      1, 3, 5, 7-10, 12, 14, 17-19, 22, 24
    2    8 O      2, 4, 13, 20, 23, 25
    3    7 N      6, 11, 15, 16, 21
    4    1 H      26-42

      * Solvation model:               ALPB
        Solvent                        DMSO
        Solvent mass                       7.8130E+01 g/mol
          :  Hamiltonian                  GFN1-xTB          :
 * total energy  :   -82.9281381 Eh     change       -0.4072831E-10 Eh
 * total energy  :   -82.9382682 Eh     change       -0.1013011E-01 Eh
 * total energy  :   -82.9422345 Eh     change       -0.3966331E-02 Eh
 * total energy  :   -82.9429648 Eh     change       -0.7302414E-03 Eh
 * total energy  :   -82.9435790 Eh     change       -0.6142509E-03 Eh
 * total energy  :   -82.9439919 Eh     change       -0.4129288E-03 Eh
 * total energy  :   -82.9443182 Eh     change       -0.3262332E-03 Eh
 * total energy  :   -82.9445301 Eh     change       -0.2119269E-03 Eh
 * total energy  :   -82.9446611 Eh     change       -0.1309952E-03 Eh
 * total energy  :   -82.9447450 Eh     change       -0.8395075E-04 Eh
 * total energy  :   -82.9463702 Eh     change       -0.5119772E-04 Eh
 * total energy  :   -82.9464145 Eh     change       -0.4425593E-04 Eh
 * total energy  :   -82.9464456 Eh     change       -0.3111697E-04 Eh
 * total energy  :   -82.9464686 Eh     change       -0.2300437E-04 Eh
 * total energy  :   -82.9464947 Eh     change       -0.2610505E-04 Eh
 * total energy  :   -82.9465061 Eh     change       -0.1140240E-04 Eh
 * total energy  :   -82.9465260 Eh     change       -0.1984780E-04 Eh
 * total energy  :   -82.9465333 Eh     change       -0.7364023E-05 Eh
 * total energy  :   -82.9465376 Eh     change       -0.4259329E-05 Eh
   *** GEOMETRY OPTIMIZATION CONVERGED AFTER 45 ITERATIONS ***

 final structure:
================
42
 xtb: 6.5.1 (579679a)
C            6.89871077627542       -0.64009805002101        1.58132620627846
O            5.65181057009788        0.05530508103184        1.56742967068637
C            4.72237188484920       -0.41238263790847        0.73255734088276
O            4.90583055765288       -1.37913151986321        0.02031322009337
C            3.45323232254011        0.36032198730984        0.74576458904777
N            2.55915553946530       -0.06811235818838       -0.16917618051686
C            1.41091069032861        0.52822103803989       -0.30947178191478
C            0.45179272773138        0.06513722465232       -1.37936693797158
C            0.54947727135390        1.00793401716791       -2.58318260330539
C            0.75972587302159       -1.37989627209731       -1.78418160335925
N           -0.91146972542040        0.14951421617086       -0.85244400136759
C           -1.23837626613717       -0.42897887684498        0.32468581573993
O           -0.44157640403024       -0.94351848395513        1.09154748437964
C           -2.69063239445360       -0.37331119490753        0.60728444587691
N           -3.29038658223112       -0.89552037696030        1.68871641472629
N           -4.55555267241650       -0.71892981291371        1.57952572463104
C           -4.83688536824339       -0.04432002444471        0.34025355308394
C           -5.67733797827190       -0.93727192893632       -0.57635541351138
C           -5.49930753087783        1.31002530255939        0.60217534458881
O           -3.54433879273702        0.15445922556702       -0.24148953649374
N            1.06586521111854        1.61525687938676        0.42696283957476
C            1.85022107669500        2.14877033820558        1.43388149629451
O            1.46062135891956        3.10778397909469        2.07106386459996
C            3.18317723113583        1.45563606289832        1.64280023363599
O            3.93382700555727        1.85360109804600        2.53094275624205
H            6.75752808988580       -1.66140776322491        1.94306490466480
H            7.55706003344860       -0.09081891070314        2.25139221959836
H            7.32381336862187       -0.67180133555806        0.57528756598587
H           -0.14955180654867        0.69232020957652       -3.35464996108271
H            0.31151362222902        2.02653649053119       -2.28363388605942
H            1.56001828092824        0.98305994130793       -2.98800489017593
H            1.77140250515653       -1.43334842350328       -2.18360929899114
H            0.68579654418588       -2.03554438314416       -0.91744801628476
H            0.05226181383619       -1.70499365311893       -2.54317790704507
H           -1.63961733722896        0.49074046690939       -1.45498989883201
H           -5.15418674895049       -1.87628541101557       -0.74350931219925
H           -6.63805027123280       -1.13048510667699       -0.10565969243939
H           -5.82730670430124       -0.43152077840723       -1.52677937868358
H           -5.61589574563495        1.83705904673704       -0.34128115900428
H           -4.87412434841388        1.89649044607840        1.27214817798264
H           -6.47365481905254        1.14887031525409        1.05664046563910
H            0.18212314115093        2.06636993585757        0.25264712501876

          :  Hamiltonian                  GFN1-xTB          :
         :: total energy             -82.946537583039 Eh    ::
         :: gradient norm              0.000650563359 Eh/a0 ::
         :: HOMO-LUMO gap              0.058369921627 eV    ::
         :: SCC energy               -83.713447828859 Eh    ::
         :: -> Gsolv                  -0.081267581434 Eh    ::
         :: repulsion energy           0.792885289229 Eh    ::

    * Orbital Energies and Occupations

         #    Occupation            Energy/Eh            Energy/eV
      -------------------------------------------------------------
         1        2.0000           -0.8800481             -23.9473
       ...           ...                  ...                  ...
        55        2.0000           -0.5160116             -14.0414
        56        2.0000           -0.5117638             -13.9258
        57        2.0000           -0.5073729             -13.8063
        58        2.0000           -0.5027788             -13.6813
        59        2.0000           -0.4917589             -13.3814
        60        2.0000           -0.4865283             -13.2391
        61        2.0000           -0.4837980             -13.1648
        62        2.0000           -0.4750882             -12.9278
        63        2.0000           -0.4721505             -12.8479
        64        2.0000           -0.4661492             -12.6846
        65        2.0000           -0.4583386             -12.4720
        66        2.0000           -0.4242094             -11.5433
        67        1.5113           -0.4069110             -11.0726 (HOMO)
        68        0.4887           -0.4047660             -11.0142 (LUMO)
        69                         -0.3219951              -8.7619
        70                         -0.3101347              -8.4392
        71                         -0.2832061              -7.7064
        72                         -0.2356709              -6.4129
        73                         -0.2218070              -6.0357
        74                         -0.1575303              -4.2866
        75                         -0.1421408              -3.8678
        76                         -0.1387023              -3.7743
        77                         -0.1366763              -3.7192
        78                         -0.1349585              -3.6724
       ...                                ...                  ...
       134                          0.7455600              20.2877
      -------------------------------------------------------------
                  HL-Gap            0.0021451 Eh            0.0584 eV

Wiberg/Mayer (AO) data.
largest (>0.10) Wiberg bond orders for each atom

     #   Z sym  total        # sym  WBO       # sym  WBO       # sym  WBO
 ---------------------------------------------------------------------------
     1   6 C    3.875 --    27 H    0.986    28 H    0.979    26 H    0.979
                             2 O    0.902
     2   8 O    2.193 --     3 C    1.108     1 C    0.902     4 O    0.132
     3   6 C    3.841 --     4 O    1.633     2 O    1.108     5 C    1.022
     4   8 O    1.878 --     3 C    1.633     2 O    0.132
     5   6 C    3.717 --     6 N    1.302    24 C    1.161     3 C    1.022
     6   7 N    2.981 --     7 C    1.469     5 C    1.302
     7   6 C    3.797 --     6 N    1.469    21 N    1.191     8 C    0.983
     8   6 C    3.928 --    10 C    0.983     7 C    0.983     9 C    0.977
                            11 N    0.923
     9   6 C    3.978 --    30 H    0.984    31 H    0.983    29 H    0.981
                             8 C    0.977
    10   6 C    3.983 --    34 H    0.985     8 C    0.983    32 H    0.982
                            33 H    0.982
    11   7 N    3.331 --    12 C    1.245     8 C    0.923    35 H    0.886
                            13 O    0.186
    12   6 C    3.910 --    13 O    1.578    11 N    1.245    14 C    0.999
    13   8 O    1.876 --    12 C    1.578    11 N    0.186
    14   6 C    3.633 --    15 N    1.315    20 O    1.169    12 C    0.999
    15   7 N    3.000 --    16 N    1.543    14 C    1.315
    16   7 N    2.687 --    15 N    1.543    17 C    1.023
    17   6 C    3.834 --    16 N    1.023    19 C    0.940    18 C    0.938
                            20 O    0.871
    18   6 C    3.937 --    36 H    0.982    37 H    0.982    38 H    0.980
                            17 C    0.938
    19   6 C    3.938 --    40 H    0.982    41 H    0.982    39 H    0.980
                            17 C    0.940
    20   8 O    2.196 --    14 C    1.169    17 C    0.871
    21   7 N    3.432 --     7 C    1.191    22 C    1.111    42 H    0.883
                            23 O    0.113
    22   6 C    3.841 --    23 O    1.650    21 N    1.111    24 C    0.948
    23   8 O    1.872 --    22 C    1.650    21 N    0.113
    24   6 C    3.863 --    25 O    1.614     5 C    1.161    22 C    0.948
    25   8 O    1.790 --    24 C    1.614
    26   1 H    1.007 --     1 C    0.979
    27   1 H    1.011 --     1 C    0.986
    28   1 H    1.008 --     1 C    0.979
    29   1 H    0.995 --     9 C    0.981
    30   1 H    0.997 --     9 C    0.984
    31   1 H    0.998 --     9 C    0.983
    32   1 H    1.008 --    10 C    0.982
    33   1 H    1.006 --    10 C    0.982
    34   1 H    1.000 --    10 C    0.985
    35   1 H    0.926 --    11 N    0.886
    36   1 H    0.996 --    18 C    0.982
    37   1 H    0.997 --    18 C    0.982
    38   1 H    0.996 --    18 C    0.980
    39   1 H    0.996 --    19 C    0.980
    40   1 H    0.996 --    19 C    0.982
    41   1 H    0.997 --    19 C    0.982
    42   1 H    0.931 --    21 N    0.883
 ---------------------------------------------------------------------------

           -------------------------------------------------
          | TOTAL ENERGY              -82.946537583039 Eh   |
          | GRADIENT NORM               0.000650563359 Eh/α |
          | HOMO-LUMO GAP               0.058369921627 eV   |
           -------------------------------------------------

 * finished run on 2023/06/21 at 17:28:59.983
