   * xtb version 6.5.1 (579679a) compiled by 'ehlert@majestix' on 2022-07-11
          program call               : /lustre/hpc/kemi/ree/PhD/git/ReactivityQM/dep/xtb-6.5.1/bin/xtb --gfn 1 /lustre/hpc/kemi/ree/PhD/git/ReactivityQM/calculations/R02methylcation/reac01prodE08/conf10/R02methylcation_reac01prodE08_conf10_gfn1.xyz --opt --vfukui --chrg -2 --uhf 0 --alpb DMSO

   ID    Z sym.   atoms
    1    6 C      1, 3, 5, 7-10, 12, 14, 15, 18, 19, 22, 24
    2    8 O      2, 4, 13, 20, 23, 25
    3    7 N      6, 11, 16, 17, 21
    4    1 H      26-42

      * Solvation model:               ALPB
        Solvent                        DMSO
        Solvent mass                       7.8130E+01 g/mol
          :  Hamiltonian                  GFN1-xTB          :
 * total energy  :   -83.6201459 Eh     change       -0.1187601E-09 Eh
 * total energy  :   -83.6352212 Eh     change       -0.1507532E-01 Eh
 * total energy  :   -83.6414845 Eh     change       -0.6263251E-02 Eh
 * total energy  :   -83.6429289 Eh     change       -0.1444381E-02 Eh
 * total energy  :   -83.6439444 Eh     change       -0.1015546E-02 Eh
 * total energy  :   -83.6444088 Eh     change       -0.4644341E-03 Eh
 * total energy  :   -83.6447245 Eh     change       -0.3156042E-03 Eh
 * total energy  :   -83.6450169 Eh     change       -0.2924059E-03 Eh
 * total energy  :   -83.6455264 Eh     change       -0.5095117E-03 Eh
 * total energy  :   -83.6463723 Eh     change       -0.8459442E-03 Eh
 * total energy  :   -83.6720308 Eh     change       -0.1280893E-04 Eh
 * total energy  :   -83.6720420 Eh     change       -0.1115629E-04 Eh
 * total energy  :   -83.6720515 Eh     change       -0.9510776E-05 Eh
 * total energy  :   -83.6720598 Eh     change       -0.8304783E-05 Eh
 * total energy  :   -83.6720678 Eh     change       -0.8031688E-05 Eh
 * total energy  :   -83.6720760 Eh     change       -0.8186388E-05 Eh
 * total energy  :   -83.6720843 Eh     change       -0.8257594E-05 Eh
 * total energy  :   -83.6720920 Eh     change       -0.7741466E-05 Eh
 * total energy  :   -83.6720955 Eh     change       -0.3452031E-05 Eh
   *** GEOMETRY OPTIMIZATION CONVERGED AFTER 68 ITERATIONS ***

 final structure:
================
42
 xtb: 6.5.1 (579679a)
C            6.06591122158219        1.43879569323712       -2.42181454330670
O            4.91014131860273        1.75682887138735       -1.66607498451797
C            4.11653156189062        0.69951651617590       -1.32490436742067
O            4.41833448220642       -0.43462560234664       -1.69052641868136
C            2.95631015035981        1.04061569083925       -0.52577935960991
N            2.20450974053807       -0.06842344863548       -0.16684764997501
C            1.15660601081899        0.05456608938782        0.56677325754669
C            0.36500766838739       -1.17778147714379        0.98651477207160
C            1.01523724289301       -2.41142109438622        0.33697040216179
C            0.43912435867741       -1.33591010044812        2.51872904332068
N           -1.01120417530004       -1.14309921502902        0.48629699086632
C           -1.89742852851699       -0.36601061040607        1.03238282834947
O           -1.80086674124242        0.48491881207342        1.95595730214245
C           -3.32842368753375       -0.57216146416902        0.41408853037786
C           -4.38987617569518       -0.57106332203943        1.51457245352730
N           -3.41268016923658       -1.81400887693976       -0.37617675128565
N           -3.69407047943704       -1.42134877566447       -1.71776881328560
C           -3.82617018099002       -0.15660685320944       -1.71547733319029
C           -4.18446413879504        0.67278461154336       -2.89804375801780
O           -3.63450431363086        0.46872997457865       -0.53436770371632
N            0.73880830715249        1.28759509397085        1.01513226775997
C            1.36802364141780        2.46036457972838        0.72836062397053
O            0.92566455443781        3.52887049048694        1.16248868161132
C            2.61174684662680        2.35646430990713       -0.12514616728994
O            3.23176957977795        3.40424114502101       -0.41071618922346
H            6.58982764207875        2.37380920724225       -2.61814852603796
H            5.79652199671509        0.96259440991497       -3.37059353991013
H            6.72228079131543        0.76106491440280       -1.86559199706139
H            2.05768879826143       -2.50693918324225        0.64132141424570
H            0.47252067563607       -3.30671365530721        0.63665349813997
H            0.97273134245795       -2.32402010583986       -0.74912113006193
H            1.47261418751716       -1.51072987942078        2.82003350520428
H           -0.16394234754671       -2.18879166098349        2.82905954372249
H            0.07416538136538       -0.44728589908281        3.03081649572481
H           -2.47883137166626       -2.25418784600007       -0.39702817263156
H           -5.38526799937487       -0.60960609622163        1.07578876152591
H           -4.29177577442472        0.33169007972325        2.11624648142578
H           -4.24593963222670       -1.44300842071468        2.14974305026662
H           -3.40677994411122        1.41127494326040       -3.09326632595238
H           -5.11549426129399        1.20602060427980       -2.70808305158728
H           -4.30771669137034        0.03518937070094       -3.76983085848611
H           -0.10663988831101        1.32780817939115        1.58563373727851

          :  Hamiltonian                  GFN1-xTB          :
         :: total energy             -83.672095478911 Eh    ::
         :: gradient norm              0.000184454547 Eh/a0 ::
         :: HOMO-LUMO gap              2.478586854087 eV    ::
         :: SCC energy               -84.409720988876 Eh    ::
         :: -> Gsolv                  -0.265436654900 Eh    ::
         :: repulsion energy           0.763946373102 Eh    ::

    * Orbital Energies and Occupations

         #    Occupation            Energy/Eh            Energy/eV
      -------------------------------------------------------------
         1        2.0000           -0.7905774             -21.5127
       ...           ...                  ...                  ...
        56        2.0000           -0.4449045             -12.1065
        57        2.0000           -0.4419371             -12.0257
        58        2.0000           -0.4336844             -11.8012
        59        2.0000           -0.4239864             -11.5373
        60        2.0000           -0.4224910             -11.4966
        61        2.0000           -0.4135824             -11.2541
        62        2.0000           -0.3935129             -10.7080
        63        2.0000           -0.3929164             -10.6918
        64        2.0000           -0.3645479              -9.9199
        65        2.0000           -0.3584608              -9.7542
        66        2.0000           -0.3508229              -9.5464
        67        2.0000           -0.3483189              -9.4782
        68        2.0000           -0.3431350              -9.3372 (HOMO)
        69                         -0.2520486              -6.8586 (LUMO)
        70                         -0.2152983              -5.8586
        71                         -0.2113765              -5.7518
        72                         -0.1790232              -4.8715
        73                         -0.1680560              -4.5730
        74                         -0.1261775              -3.4335
        75                         -0.1167013              -3.1756
        76                         -0.0964982              -2.6258
        77                         -0.0911263              -2.4797
        78                         -0.0884370              -2.4065
        79                         -0.0848430              -2.3087
       ...                                ...                  ...
       134                          0.7619975              20.7350
      -------------------------------------------------------------
                  HL-Gap            0.0910864 Eh            2.4786 eV

Wiberg/Mayer (AO) data.
largest (>0.10) Wiberg bond orders for each atom

     #   Z sym  total        # sym  WBO       # sym  WBO       # sym  WBO
 ---------------------------------------------------------------------------
     1   6 C    3.905 --    26 H    0.987    28 H    0.980    27 H    0.980
                             2 O    0.933
     2   8 O    2.148 --     3 C    1.029     1 C    0.933     4 O    0.104
     3   6 C    3.847 --     4 O    1.560     5 C    1.135     2 O    1.029
     4   8 O    1.839 --     3 C    1.560     2 O    0.104
     5   6 C    3.920 --    24 C    1.280     6 N    1.142     3 C    1.135
                            25 O    0.128
     6   7 N    3.019 --     7 C    1.625     5 C    1.142
     7   6 C    3.926 --     6 N    1.625    21 N    1.109     8 C    0.968
     8   6 C    3.973 --     9 C    0.996    10 C    0.977    11 N    0.970
                             7 C    0.968
     9   6 C    3.997 --     8 C    0.996    30 H    0.988    29 H    0.987
                            31 H    0.985
    10   6 C    3.994 --    32 H    0.988    33 H    0.986    34 H    0.980
                             8 C    0.977
    11   7 N    2.930 --    12 C    1.558     8 C    0.970    13 O    0.211
    12   6 C    3.936 --    11 N    1.558    13 O    1.403    14 C    0.889
    13   8 O    1.807 --    12 C    1.403    11 N    0.211
    14   6 C    3.840 --    15 C    0.992    16 N    0.960    12 C    0.889
                            20 O    0.881
    15   6 C    3.996 --    14 C    0.992    36 H    0.987    38 H    0.986
                            37 H    0.983
    16   7 N    3.032 --    17 N    1.006    14 C    0.960    35 H    0.908
    17   7 N    2.969 --    18 C    1.747    16 N    1.006    20 O    0.124
    18   6 C    3.904 --    17 N    1.747    20 O    1.050    19 C    1.017
    19   6 C    3.994 --    18 C    1.017    41 H    0.986    39 H    0.972
                            40 H    0.971
    20   8 O    2.143 --    18 C    1.050    14 C    0.881    17 N    0.124
    21   7 N    3.451 --    22 C    1.196     7 C    1.109    42 H    0.859
                            23 O    0.138
    22   6 C    3.889 --    23 O    1.547    21 N    1.196    24 C    0.974
    23   8 O    1.828 --    22 C    1.547    21 N    0.138
    24   6 C    3.944 --    25 O    1.498     5 C    1.280    22 C    0.974
    25   8 O    1.801 --    24 C    1.498     5 C    0.128
    26   1 H    1.017 --     1 C    0.987
    27   1 H    1.016 --     1 C    0.980
    28   1 H    1.016 --     1 C    0.980
    29   1 H    1.017 --     9 C    0.987
    30   1 H    1.014 --     9 C    0.988
    31   1 H    1.022 --     9 C    0.985
    32   1 H    1.008 --    10 C    0.988
    33   1 H    1.007 --    10 C    0.986
    34   1 H    1.022 --    10 C    0.980
    35   1 H    1.013 --    16 N    0.908
    36   1 H    1.011 --    15 C    0.987
    37   1 H    1.019 --    15 C    0.983
    38   1 H    1.011 --    15 C    0.986
    39   1 H    1.002 --    19 C    0.972
    40   1 H    1.003 --    19 C    0.971
    41   1 H    1.005 --    19 C    0.986
    42   1 H    0.958 --    21 N    0.859
 ---------------------------------------------------------------------------

           -------------------------------------------------
          | TOTAL ENERGY              -83.672095478911 Eh   |
          | GRADIENT NORM               0.000184454547 Eh/α |
          | HOMO-LUMO GAP               2.478586854087 eV   |
           -------------------------------------------------

 * finished run on 2023/06/21 at 17:18:46.825
