   * xtb version 6.5.1 (579679a) compiled by 'ehlert@majestix' on 2022-07-11
          program call               : /lustre/hpc/kemi/ree/PhD/git/ReactivityQM/dep/xtb-6.5.1/bin/xtb --gfn 1 /lustre/hpc/kemi/ree/PhD/git/ReactivityQM/calculations/R01/reac02/conf19/R01_reac02_conf19_gfn1.xyz --opt --vfukui --chrg 0 --uhf 0 --alpb DMSO

   ID    Z sym.   atoms
    1    6 C      1, 3, 5, 7-10, 13, 15
    2    8 O      2, 4, 14, 16
    3    7 N      6, 11, 12
    4    1 H      17-29

      * Solvation model:               ALPB
        Solvent                        DMSO
        Solvent mass                       7.8130E+01 g/mol
          :  Hamiltonian                  GFN1-xTB          :
 * total energy  :   -54.5067929 Eh     change       -0.5421441E-11 Eh
 * total energy  :   -54.5125588 Eh     change       -0.5765943E-02 Eh
 * total energy  :   -54.5141694 Eh     change       -0.1610538E-02 Eh
 * total energy  :   -54.5143665 Eh     change       -0.1971590E-03 Eh
 * total energy  :   -54.5144793 Eh     change       -0.1127459E-03 Eh
 * total energy  :   -54.5145156 Eh     change       -0.3627302E-04 Eh
 * total energy  :   -54.5145575 Eh     change       -0.4194508E-04 Eh
 * total energy  :   -54.5145886 Eh     change       -0.3107272E-04 Eh
 * total energy  :   -54.5146056 Eh     change       -0.1699004E-04 Eh
 * total energy  :   -54.5146349 Eh     change       -0.2932256E-04 Eh
 * total energy  :   -54.5148142 Eh     change       -0.1130960E-04 Eh
 * total energy  :   -54.5148265 Eh     change       -0.1232087E-04 Eh
 * total energy  :   -54.5148399 Eh     change       -0.1344055E-04 Eh
 * total energy  :   -54.5148525 Eh     change       -0.1258857E-04 Eh
 * total energy  :   -54.5148579 Eh     change       -0.5323499E-05 Eh
 * total energy  :   -54.5148639 Eh     change       -0.6000324E-05 Eh
 * total energy  :   -54.5148699 Eh     change       -0.6053614E-05 Eh
 * total energy  :   -54.5148751 Eh     change       -0.5202717E-05 Eh
 * total energy  :   -54.5148799 Eh     change       -0.4801851E-05 Eh
   *** GEOMETRY OPTIMIZATION CONVERGED AFTER 26 ITERATIONS ***

 final structure:
================
29
 xtb: 6.5.1 (579679a)
C            3.90644732904075        1.97163509068361       -0.33709422944130
O            2.65410244448546        1.28840870490429       -0.22057846519999
C            2.70093305584745       -0.03686885709907       -0.21685831119401
O            3.74288460123256       -0.66392764839055       -0.31140289627412
C            1.37846504476982       -0.68711708591035       -0.07690274077614
N            0.28053183836694        0.13290981678560       -0.00474765844680
C           -0.88731852310969       -0.39766882823820        0.14221246069051
C           -2.12640906112418        0.47802277897781        0.21618049173029
C           -1.71096517987301        1.93668606846972        0.42959977850346
C           -2.92249739947842        0.32747810022486       -1.08664994794329
N           -2.97678870395896        0.06723224730507        1.32742523972272
N           -1.05920327153199       -1.74879990925731        0.22971127386841
C           -0.04106296109810       -2.67906329883085        0.15916824616787
O           -0.27156829039808       -3.87346435262682        0.24168582848364
C            1.27570540865714       -2.05613152934627       -0.01419876121781
O            2.31570349205658       -2.88958637829470       -0.09098829714874
H            4.57883681953096        1.65925502590251        0.46512434510675
H            3.68947407012487        3.03496785073011       -0.25869748292426
H            4.36567527511939        1.74641029317670       -1.30224637578243
H           -1.11722615377875        2.28738589388534       -0.41378186035421
H           -2.60150686491995        2.55579379414180        0.52703461167506
H           -1.11515243558989        2.02634236779747        1.33729427786744
H           -3.83119689571913        0.92495000272013       -1.02730291641994
H           -3.19794200774089       -0.71462815526618       -1.24258901657607
H           -2.32713571398098        0.66430637696063       -1.93447871702463
H           -3.44214945468700       -0.80415599362281        1.12146881466205
H           -2.42691781179788       -0.05062254006767        2.16703577341584
H           -1.98682119249278       -2.11870883442754        0.37182454597039
H            3.15310454204777       -2.38104300128725       -0.19724901114108

          :  Hamiltonian                  GFN1-xTB          :
         :: total energy             -54.514879909699 Eh    ::
         :: gradient norm              0.000324734479 Eh/a0 ::
         :: HOMO-LUMO gap              2.499773438859 eV    ::
         :: SCC energy               -55.039453130872 Eh    ::
         :: -> Gsolv                  -0.040351144380 Eh    ::
         :: repulsion energy           0.540589780893 Eh    ::

    * Orbital Energies and Occupations

         #    Occupation            Energy/Eh            Energy/eV
      -------------------------------------------------------------
         1        2.0000           -0.8427555             -22.9325
       ...           ...                  ...                  ...
        32        2.0000           -0.5158944             -14.0382
        33        2.0000           -0.5142689             -13.9940
        34        2.0000           -0.5109674             -13.9041
        35        2.0000           -0.5013317             -13.6419
        36        2.0000           -0.4996248             -13.5955
        37        2.0000           -0.4953709             -13.4797
        38        2.0000           -0.4886860             -13.2978
        39        2.0000           -0.4848782             -13.1942
        40        2.0000           -0.4814101             -13.0998
        41        2.0000           -0.4583907             -12.4734
        42        2.0000           -0.4430114             -12.0550
        43        2.0000           -0.4265899             -11.6081
        44        2.0000           -0.4146970             -11.2845 (HOMO)
        45                         -0.3228320              -8.7847 (LUMO)
        46                         -0.2781513              -7.5689
        47                         -0.2395829              -6.5194
        48                         -0.1558167              -4.2400
        49                         -0.1379229              -3.7531
        50                         -0.1320369              -3.5929
        51                         -0.1243923              -3.3849
        52                         -0.1135152              -3.0889
        53                         -0.0806357              -2.1942
        54                         -0.0789335              -2.1479
        55                         -0.0750468              -2.0421
       ...                                ...                  ...
        90                          0.7229643              19.6729
      -------------------------------------------------------------
                  HL-Gap            0.0918650 Eh            2.4998 eV

Wiberg/Mayer (AO) data.
largest (>0.10) Wiberg bond orders for each atom

     #   Z sym  total        # sym  WBO       # sym  WBO       # sym  WBO
 ---------------------------------------------------------------------------
     1   6 C    3.868 --    18 H    0.986    17 H    0.979    19 H    0.979
                             2 O    0.893
     2   8 O    2.215 --     3 C    1.133     1 C    0.893     4 O    0.128
     3   6 C    3.847 --     4 O    1.604     2 O    1.133     5 C    1.022
     4   8 O    1.942 --     3 C    1.604     2 O    0.128
     5   6 C    3.965 --    15 C    1.486     6 N    1.178     3 C    1.022
     6   7 N    3.022 --     7 C    1.582     5 C    1.178
     7   6 C    3.919 --     6 N    1.582    12 N    1.168     8 C    0.969
     8   6 C    3.967 --     9 C    0.998    11 N    0.983    10 C    0.983
                             7 C    0.969
     9   6 C    3.995 --     8 C    0.998    21 H    0.986    20 H    0.986
                            22 H    0.985
    10   6 C    3.993 --    25 H    0.986    24 H    0.984    23 H    0.983
                             8 C    0.983
    11   7 N    2.958 --     8 C    0.983    27 H    0.941    26 H    0.940
    12   7 N    3.464 --     7 C    1.168    13 C    1.126    28 H    0.885
                            14 O    0.136
    13   6 C    3.910 --    14 O    1.596    12 N    1.126    15 C    1.057
    14   8 O    1.895 --    13 C    1.596    12 N    0.136
    15   6 C    3.921 --     5 C    1.486    16 O    1.122    13 C    1.057
    16   8 O    2.089 --    15 C    1.122    29 H    0.777
    17   1 H    1.007 --     1 C    0.979
    18   1 H    1.010 --     1 C    0.986
    19   1 H    1.006 --     1 C    0.979
    20   1 H    1.010 --     9 C    0.986
    21   1 H    1.007 --     9 C    0.986
    22   1 H    1.006 --     9 C    0.985
    23   1 H    1.002 --    10 C    0.983
    24   1 H    1.000 --    10 C    0.984
    25   1 H    1.002 --    10 C    0.986
    26   1 H    0.955 --    11 N    0.940
    27   1 H    0.956 --    11 N    0.941
    28   1 H    0.933 --    12 N    0.885
    29   1 H    0.853 --    16 O    0.777
 ---------------------------------------------------------------------------

           -------------------------------------------------
          | TOTAL ENERGY              -54.514879909699 Eh   |
          | GRADIENT NORM               0.000324734479 Eh/α |
          | HOMO-LUMO GAP               2.499773438859 eV   |
           -------------------------------------------------

 * finished run on 2023/06/20 at 14:51:59.855
