   * xtb version 6.5.1 (579679a) compiled by 'ehlert@majestix' on 2022-07-11
          program call               : /lustre/hpc/kemi/ree/PhD/git/ReactivityQM/dep/xtb-6.5.1/bin/xtb --gfn 1 /lustre/hpc/kemi/ree/PhD/git/ReactivityQM/calculations/R02methylcation/reac01prodE14/conf03/R02methylcation_reac01prodE14_conf03_gfn1.xyz --opt --vfukui --chrg -2 --uhf 0 --alpb DMSO

   ID    Z sym.   atoms
    1    6 C      1, 3, 5, 7-10, 12, 14, 17, 18, 21, 23, 24
    2    8 O      2, 4, 13, 19, 22, 25
    3    7 N      6, 11, 15, 16, 20
    4    1 H      26-42

      * Solvation model:               ALPB
        Solvent                        DMSO
        Solvent mass                       7.8130E+01 g/mol
          :  Hamiltonian                  GFN1-xTB          :
 * total energy  :   -83.5864110 Eh     change       -0.2258531E-09 Eh
 * total energy  :   -83.6011237 Eh     change       -0.1471270E-01 Eh
 * total energy  :   -83.6068315 Eh     change       -0.5707827E-02 Eh
 * total energy  :   -83.6077337 Eh     change       -0.9022119E-03 Eh
 * total energy  :   -83.6082963 Eh     change       -0.5626242E-03 Eh
 * total energy  :   -83.6085961 Eh     change       -0.2997287E-03 Eh
 * total energy  :   -83.6088739 Eh     change       -0.2778765E-03 Eh
 * total energy  :   -83.6090732 Eh     change       -0.1992249E-03 Eh
 * total energy  :   -83.6092071 Eh     change       -0.1339325E-03 Eh
 * total energy  :   -83.6093166 Eh     change       -0.1095616E-03 Eh
 * total energy  :   -83.6104224 Eh     change       -0.2390557E-04 Eh
 * total energy  :   -83.6104606 Eh     change       -0.3826917E-04 Eh
 * total energy  :   -83.6104800 Eh     change       -0.1933551E-04 Eh
 * total energy  :   -83.6104933 Eh     change       -0.1331034E-04 Eh
 * total energy  :   -83.6105055 Eh     change       -0.1226729E-04 Eh
 * total energy  :   -83.6105141 Eh     change       -0.8526751E-05 Eh
 * total energy  :   -83.6105255 Eh     change       -0.1144394E-04 Eh
 * total energy  :   -83.6105310 Eh     change       -0.5520865E-05 Eh
 * total energy  :   -83.6105346 Eh     change       -0.3610451E-05 Eh
   *** GEOMETRY OPTIMIZATION CONVERGED AFTER 41 ITERATIONS ***

 final structure:
================
42
 xtb: 6.5.1 (579679a)
C           -5.84508833169050        0.65508532418534        1.51252101910423
O           -4.77864042746624        0.87427065269148        0.61633218637209
C           -3.66820952288020        0.02922974399237        0.79655112013601
O           -3.73007611704518       -0.81399363115403        1.71853355526791
C           -2.58497441536677        0.25336630442475       -0.06851362391735
N           -1.56989684751600       -0.66415365004978        0.09058460921567
C           -0.46858697837260       -0.58942150945387       -0.56093013011042
C            0.57090091119906       -1.68562857831681       -0.46263376081746
C            0.15824116830168       -2.68766077798588        0.62135676365867
C            0.71314587231029       -2.38146187038200       -1.82660568098827
N            1.86528889897978       -1.06968365157164       -0.09582394358307
C            3.01311143121965       -1.75603825236367        0.04520614754910
O            3.14802338960037       -2.96750811334876       -0.11460474952738
C            4.16374102196965       -0.90182734203780        0.41847621901102
N            5.39117759491767       -1.28284262730093        0.63987314134664
N            6.10394607660904       -0.15789894220669        0.94239718830882
C            5.27523081360626        0.83649866648155        0.88808290314580
C            5.56427409139813        2.26718180434655        1.13395368045372
O            4.03142037199816        0.44052223135311        0.56352006528477
N           -0.17574354196347        0.48406504330384       -1.43000043571610
C           -1.04026481438521        1.54031034523830       -1.54931399107127
O           -0.60697452470590        2.61799711884077       -1.97492691820963
C           -2.55266902050938        1.20266170650654       -1.30913632918333
C           -3.24637073361081        2.57047605011626       -0.98299006444650
O           -3.01480221990638        0.63192240354502       -2.43415303259713
H           -6.63362719707029        1.36877933062490        1.26633458281818
H           -6.24402006364735       -0.36437845892107        1.42382731059276
H           -5.53426580025197        0.81108042820599        2.55394289698080
H           -0.82853637964075       -3.08611888386251        0.38530526790934
H            0.10721407152240       -2.18725128716245        1.58799562779917
H            0.86979755565117       -3.50882537796640        0.68062980030414
H           -0.25804466782708       -2.76916167182776       -2.13354702218369
H            1.41846063293649       -3.20855660689556       -1.77263912258204
H            1.06134916725444       -1.66909214890059       -2.57349434750316
H            1.87795231098748       -0.08435572985823        0.11436221565060
H            6.62018539509638        2.39087334151127        1.35855761397934
H            5.30779012374988        2.85738124252488        0.25480808271254
H            4.97014462149600        2.63217499905102        1.97139599957687
H            0.79047710448900        0.67259133822557       -1.63658069169493
H           -2.89098587589589        3.32806144953359       -1.68381441522895
H           -3.02755194321431        2.89800293689644        0.03385310470067
H           -4.32254320232756        2.47332564996896       -1.11138284252109

          :  Hamiltonian                  GFN1-xTB          :
         :: total energy             -83.610534642336 Eh    ::
         :: gradient norm              0.000704346768 Eh/a0 ::
         :: HOMO-LUMO gap              0.154915355090 eV    ::
         :: SCC energy               -84.344707658217 Eh    ::
         :: -> Gsolv                  -0.295249549532 Eh    ::
         :: repulsion energy           0.759880409322 Eh    ::

    * Orbital Energies and Occupations

         #    Occupation            Energy/Eh            Energy/eV
      -------------------------------------------------------------
         1        2.0000           -0.8470959             -23.0507
       ...           ...                  ...                  ...
        56        2.0000           -0.4407994             -11.9948
        57        2.0000           -0.4352639             -11.8441
        58        2.0000           -0.4303413             -11.7102
        59        2.0000           -0.4246615             -11.5556
        60        2.0000           -0.4214784             -11.4690
        61        2.0000           -0.4147786             -11.2867
        62        2.0000           -0.3988985             -10.8546
        63        2.0000           -0.3911023             -10.6424
        64        2.0000           -0.3830332             -10.4229
        65        2.0000           -0.3693252             -10.0499
        66        2.0000           -0.3067420              -8.3469
        67        1.9898           -0.2989819              -8.1357
        68        1.9098           -0.2968748              -8.0784 (HOMO)
        69        0.1004           -0.2911818              -7.9235 (LUMO)
        70                         -0.2422569              -6.5921
        71                         -0.2116600              -5.7596
        72                         -0.1772930              -4.8244
        73                         -0.1711850              -4.6582
        74                         -0.1352954              -3.6816
        75                         -0.1133000              -3.0830
        76                         -0.1033862              -2.8133
        77                         -0.1002017              -2.7266
        78                         -0.0984430              -2.6788
        79                         -0.0851705              -2.3176
       ...                                ...                  ...
       134                          0.7268986              19.7799
      -------------------------------------------------------------
                  HL-Gap            0.0056930 Eh            0.1549 eV

Wiberg/Mayer (AO) data.
largest (>0.10) Wiberg bond orders for each atom

     #   Z sym  total        # sym  WBO       # sym  WBO       # sym  WBO
 ---------------------------------------------------------------------------
     1   6 C    3.922 --    26 H    0.987    28 H    0.980    27 H    0.980
                             2 O    0.953
     2   8 O    2.083 --     1 C    0.953     3 C    0.933
     3   6 C    3.844 --     4 O    1.445     5 C    1.329     2 O    0.933
     4   8 O    1.740 --     3 C    1.445     5 C    0.106
     5   6 C    3.811 --     3 C    1.329     6 N    1.188    23 C    0.917
                             4 O    0.106
     6   7 N    3.050 --     7 C    1.617     5 C    1.188
     7   6 C    3.884 --     6 N    1.617    20 N    1.004     8 C    0.979
     8   6 C    3.923 --     9 C    0.995    10 C    0.984     7 C    0.979
                            11 N    0.899
     9   6 C    3.994 --     8 C    0.995    30 H    0.986    31 H    0.985
                            29 H    0.984
    10   6 C    3.989 --    32 H    0.986    34 H    0.986     8 C    0.984
                            33 H    0.983
    11   7 N    3.339 --    12 C    1.271    35 H    0.901     8 C    0.899
                            13 O    0.174
    12   6 C    3.890 --    13 O    1.537    11 N    1.271    14 C    1.006
    13   8 O    1.844 --    12 C    1.537    11 N    0.174
    14   6 C    3.825 --    15 N    1.587    19 O    1.034    12 C    1.006
    15   7 N    2.942 --    14 C    1.587    16 N    1.191
    16   7 N    2.980 --    17 C    1.619    15 N    1.191
    17   6 C    3.859 --    16 N    1.619    19 O    1.068    18 C    1.029
    18   6 C    3.989 --    17 C    1.029    36 H    0.984    37 H    0.966
                            38 H    0.965
    19   8 O    2.290 --    17 C    1.068    14 C    1.034
    20   7 N    3.344 --    21 C    1.171     7 C    1.004    39 H    0.914
                            22 O    0.116
    21   6 C    3.813 --    22 O    1.563    20 N    1.171    23 C    0.881
    22   8 O    1.831 --    21 C    1.563    20 N    0.116
    23   6 C    3.963 --    25 O    1.121    24 C    0.947     5 C    0.917
                            21 C    0.881
    24   6 C    3.988 --    41 H    0.990    42 H    0.987    40 H    0.985
                            23 C    0.947
    25   8 O    1.410 --    23 C    1.121
    26   1 H    1.020 --     1 C    0.987
    27   1 H    1.022 --     1 C    0.980
    28   1 H    1.022 --     1 C    0.980
    29   1 H    1.020 --     9 C    0.984
    30   1 H    1.015 --     9 C    0.986
    31   1 H    1.014 --     9 C    0.985
    32   1 H    1.007 --    10 C    0.986
    33   1 H    1.014 --    10 C    0.983
    34   1 H    1.008 --    10 C    0.986
    35   1 H    0.950 --    11 N    0.901
    36   1 H    1.000 --    18 C    0.984
    37   1 H    0.998 --    18 C    0.966
    38   1 H    0.998 --    18 C    0.965
    39   1 H    0.966 --    20 N    0.914
    40   1 H    1.026 --    24 C    0.985
    41   1 H    1.017 --    24 C    0.990
    42   1 H    1.034 --    24 C    0.987
 ---------------------------------------------------------------------------

           -------------------------------------------------
          | TOTAL ENERGY              -83.610534642336 Eh   |
          | GRADIENT NORM               0.000704346768 Eh/α |
          | HOMO-LUMO GAP               0.154915355090 eV   |
           -------------------------------------------------

 * finished run on 2023/06/21 at 17:28:46.581
