   * xtb version 6.5.1 (579679a) compiled by 'ehlert@majestix' on 2022-07-11
          program call               : /lustre/hpc/kemi/ree/PhD/git/ReactivityQM/dep/xtb-6.5.1/bin/xtb --gfn 1 /lustre/hpc/kemi/ree/PhD/git/ReactivityQM/calculations/R01/reac01prodE01/conf16/R01_reac01prodE01_conf16_gfn1.xyz --opt --vfukui --chrg -1 --uhf 0 --alpb DMSO

   ID    Z sym.   atoms
    1    6 C      1, 3, 4, 6, 9, 10
    2    8 O      2, 5, 11
    3    7 N      7, 8
    4    1 H      12-20

      * Solvation model:               ALPB
        Solvent                        DMSO
        Solvent mass                       7.8130E+01 g/mol
          :  Hamiltonian                  GFN1-xTB          :
 * total energy  :   -38.3302888 Eh     change       -0.3581135E-11 Eh
 * total energy  :   -38.3385495 Eh     change       -0.8260685E-02 Eh
 * total energy  :   -38.3419633 Eh     change       -0.3413818E-02 Eh
 * total energy  :   -38.3426628 Eh     change       -0.6995176E-03 Eh
 * total energy  :   -38.3429265 Eh     change       -0.2636921E-03 Eh
 * total energy  :   -38.3430213 Eh     change       -0.9477736E-04 Eh
 * total energy  :   -38.3430873 Eh     change       -0.6602524E-04 Eh
 * total energy  :   -38.3431152 Eh     change       -0.2785247E-04 Eh
 * total energy  :   -38.3431322 Eh     change       -0.1701739E-04 Eh
 * total energy  :   -38.3431463 Eh     change       -0.1407116E-04 Eh
 * total energy  :   -38.3435032 Eh     change       -0.9497243E-05 Eh
 * total energy  :   -38.3435446 Eh     change       -0.4141109E-04 Eh
 * total energy  :   -38.3435456 Eh     change       -0.1035977E-05 Eh
 * total energy  :   -38.3435754 Eh     change       -0.2976813E-04 Eh
 * total energy  :   -38.3435856 Eh     change       -0.1023514E-04 Eh
 * total energy  :   -38.3436071 Eh     change       -0.2142079E-04 Eh
 * total energy  :   -38.3436156 Eh     change       -0.8538299E-05 Eh
 * total energy  :   -38.3436244 Eh     change       -0.8842773E-05 Eh
 * total energy  :   -38.3436290 Eh     change       -0.4563386E-05 Eh
   *** GEOMETRY OPTIMIZATION CONVERGED AFTER 35 ITERATIONS ***

 final structure:
================
20
 xtb: 6.5.1 (579679a)
C           -1.87089030292245        1.76207967131729       -0.21904359104111
O           -1.84782814324238        0.46113416372038       -0.75252158704931
C           -1.40775961756115       -0.60161563026569        0.22872413467225
C           -1.93295220282786       -1.90963016533862       -0.44378116809918
O           -1.76754286455126       -0.40817626385604        1.44617451084506
C            0.16167418517210       -0.63432936114403        0.05223898628600
N            0.88700300839870       -1.65337574682763       -0.29163098172602
N            2.20916942992337       -1.25583758432298       -0.20871433016272
C            2.18943525985195       -0.02672865515802        0.18447768702394
C            3.35361412941421        0.85932887349767        0.42971110250854
O            0.93601380245263        0.42834781293351        0.37014273366903
H           -0.86469532972229        2.21011810094529       -0.18497102671625
H           -2.50318159258215        2.38235311590160       -0.86239205716022
H           -2.28927493918167        1.77487986617693        0.79936430313252
H           -1.56207466386911       -2.76722372185847        0.11471488524469
H           -3.02031198446976       -1.89808073483021       -0.40553583994486
H           -1.60372268505178       -1.97576805163368       -1.47909562827296
H            3.29343422715175        1.74575501308774       -0.20180750386387
H            4.27234836633111        0.32083963563199        0.20864792822963
H            3.36754391728598        1.18592966202280        1.46991644242477

          :  Hamiltonian                  GFN1-xTB          :
         :: total energy             -38.343628996176 Eh    ::
         :: gradient norm              0.000768021632 Eh/a0 ::
         :: HOMO-LUMO gap              3.309485983934 eV    ::
         :: SCC energy               -38.653091888943 Eh    ::
         :: -> Gsolv                  -0.102605639089 Eh    ::
         :: repulsion energy           0.317983006009 Eh    ::

    * Orbital Energies and Occupations

         #    Occupation            Energy/Eh            Energy/eV
      -------------------------------------------------------------
         1        2.0000           -0.8204593             -22.3258
       ...           ...                  ...                  ...
        19        2.0000           -0.5079875             -13.8230
        20        2.0000           -0.5022583             -13.6671
        21        2.0000           -0.4800148             -13.0619
        22        2.0000           -0.4720980             -12.8464
        23        2.0000           -0.4630857             -12.6012
        24        2.0000           -0.4615230             -12.5587
        25        2.0000           -0.4457825             -12.1304
        26        2.0000           -0.4394161             -11.9571
        27        2.0000           -0.4180892             -11.3768
        28        2.0000           -0.4153498             -11.3022
        29        2.0000           -0.4039601             -10.9923
        30        2.0000           -0.3683858             -10.0243
        31        2.0000           -0.3499672              -9.5231 (HOMO)
        32                         -0.2283459              -6.2136 (LUMO)
        33                         -0.2140290              -5.8240
        34                         -0.1302348              -3.5439
        35                         -0.0994836              -2.7071
        36                         -0.0843358              -2.2949
        37                         -0.0631181              -1.7175
        38                         -0.0622330              -1.6934
        39                         -0.0366613              -0.9976
        40                         -0.0326182              -0.8876
        41                         -0.0281880              -0.7670
        42                         -0.0256470              -0.6979
       ...                                ...                  ...
        62                          0.6081969              16.5499
      -------------------------------------------------------------
                  HL-Gap            0.1216214 Eh            3.3095 eV

Wiberg/Mayer (AO) data.
largest (>0.10) Wiberg bond orders for each atom

     #   Z sym  total        # sym  WBO       # sym  WBO       # sym  WBO
 ---------------------------------------------------------------------------
     1   6 C    3.931 --    13 H    0.984    12 H    0.980    14 H    0.974
                             2 O    0.971
     2   8 O    1.944 --     1 C    0.971     3 C    0.787
     3   6 C    3.901 --     5 O    1.260     4 C    0.940     6 C    0.866
                             2 O    0.787
     4   6 C    3.993 --    17 H    0.990    15 H    0.988    16 H    0.987
                             3 C    0.940
     5   8 O    1.555 --     3 C    1.260
     6   6 C    3.805 --     7 N    1.654    11 O    1.053     3 C    0.866
     7   7 N    2.966 --     6 C    1.654     8 N    1.148
     8   7 N    2.975 --     9 C    1.654     7 N    1.148
     9   6 C    3.888 --     8 N    1.654    11 O    1.067    10 C    1.024
    10   6 C    3.993 --     9 C    1.024    19 H    0.985    18 H    0.970
                            20 H    0.970
    11   8 O    2.307 --     9 C    1.067     6 C    1.053
    12   1 H    1.023 --     1 C    0.980
    13   1 H    1.022 --     1 C    0.984
    14   1 H    1.032 --     1 C    0.974
    15   1 H    1.019 --     4 C    0.988
    16   1 H    1.018 --     4 C    0.987
    17   1 H    1.015 --     4 C    0.990
    18   1 H    1.002 --    10 C    0.970
    19   1 H    1.003 --    10 C    0.985
    20   1 H    1.002 --    10 C    0.970
 ---------------------------------------------------------------------------

           -------------------------------------------------
          | TOTAL ENERGY              -38.343628996176 Eh   |
          | GRADIENT NORM               0.000768021632 Eh/α |
          | HOMO-LUMO GAP               3.309485983934 eV   |
           -------------------------------------------------

 * finished run on 2023/06/20 at 14:52:38.411
