   * xtb version 6.5.1 (579679a) compiled by 'ehlert@majestix' on 2022-07-11
          program call               : /lustre/hpc/kemi/ree/PhD/git/ReactivityQM/dep/xtb-6.5.1/bin/xtb --gfn 1 /lustre/hpc/kemi/ree/PhD/git/ReactivityQM/calculations/R01/reac02prodE06/conf02/R01_reac02prodE06_conf02_gfn1.xyz --opt --vfukui --chrg -1 --uhf 0 --alpb DMSO

   ID    Z sym.   atoms
    1    6 C      1, 3, 5, 6, 8, 9, 12-15
    2    8 O      2, 4, 7, 10
    3    7 N      11, 16, 17
    4    1 H      18-33

      * Solvation model:               ALPB
        Solvent                        DMSO
        Solvent mass                       7.8130E+01 g/mol
          :  Hamiltonian                  GFN1-xTB          :
 * total energy  :   -58.5329501 Eh     change       -0.9237056E-11 Eh
 * total energy  :   -58.5404803 Eh     change       -0.7530221E-02 Eh
 * total energy  :   -58.5434666 Eh     change       -0.2986297E-02 Eh
 * total energy  :   -58.5440387 Eh     change       -0.5721437E-03 Eh
 * total energy  :   -58.5443995 Eh     change       -0.3608064E-03 Eh
 * total energy  :   -58.5445762 Eh     change       -0.1766984E-03 Eh
 * total energy  :   -58.5447438 Eh     change       -0.1675857E-03 Eh
 * total energy  :   -58.5448477 Eh     change       -0.1038369E-03 Eh
 * total energy  :   -58.5449285 Eh     change       -0.8084806E-04 Eh
 * total energy  :   -58.5450004 Eh     change       -0.7191779E-04 Eh
 * total energy  :   -58.5450736 Eh     change       -0.7317341E-04 Eh
 * total energy  :   -58.5451187 Eh     change       -0.4508174E-04 Eh
 * total energy  :   -58.5451514 Eh     change       -0.3275330E-04 Eh
 * total energy  :   -58.5451759 Eh     change       -0.2448320E-04 Eh
 * total energy  :   -58.5451900 Eh     change       -0.1403738E-04 Eh
 * total energy  :   -58.5451980 Eh     change       -0.8084201E-05 Eh
 * total energy  :   -58.5452055 Eh     change       -0.7494232E-05 Eh
 * total energy  :   -58.5452098 Eh     change       -0.4295198E-05 Eh
   *** GEOMETRY OPTIMIZATION CONVERGED AFTER 18 ITERATIONS ***

 final structure:
================
33
 xtb: 6.5.1 (579679a)
C            3.53994668770316        2.81126945508206       -0.96007859865284
O            2.38674261104511        2.04010632835084       -0.64418348261618
C            2.61769445548017        0.81397259549045       -0.12535662999832
O            3.77001817048270        0.41760444736522        0.05816745619714
C            1.42336358321202        0.04456161135061        0.16917094643850
C            1.50693275143953       -1.21958416390037        0.68107970871985
O            2.67647591911200       -1.82186828058689        0.95013469054998
C            0.24108665596608       -2.01367739579981        1.12468054983096
C            0.39096630651154       -3.48685969597946        0.62345078138217
O           -0.04776614596876       -1.87468977104626        2.37694129731840
N           -0.85887708904912       -1.41595688752587        0.19530823966384
C           -0.87073415200525       -0.08388317843994       -0.04504976536550
C           -2.22111013097019        0.57331922818144       -0.32267958388762
C           -2.88988283841738        0.89592890743015        1.02052310427881
C           -2.01857926677243        1.85621282116637       -1.13820482951480
N           -3.11042189411112       -0.31054937763572       -1.07863414557152
N            0.18438688399242        0.65926542996220       -0.09808322095882
H            4.11491670367152        3.03226806985231       -0.05592688734048
H            3.18923841249737        3.73797900788021       -1.41202320184548
H            4.18111742789329        2.27313671053103       -1.66449351338311
H            3.42712209212651       -1.22808232984851        0.71378124458567
H            0.55262955356382       -3.51944649436299       -0.45254088387803
H           -0.51589991278769       -4.03412617813022        0.87252802399795
H            1.23457297569770       -3.94817826206397        1.13491017458307
H           -1.76115367919881       -1.83152604048432        0.37569190728612
H           -2.27766305331559        1.59898687224092        1.58600977526971
H           -3.87216935092938        1.33709631518959        0.85310575784954
H           -3.01063120333910       -0.01490614085838        1.60744467914745
H           -2.98282364581529        2.31961102327994       -1.34565338014216
H           -1.39112450127765        2.55805170700092       -0.58839906453060
H           -1.52965279100389        1.62279286233406       -2.08423378953193
H           -2.60534672408618       -0.74414134726282       -1.84046878311997
H           -3.47337481134706       -1.04469084876280       -0.48691957676194

          :  Hamiltonian                  GFN1-xTB          :
         :: total energy             -58.545209824708 Eh    ::
         :: gradient norm              0.000891508925 Eh/a0 ::
         :: HOMO-LUMO gap              2.243119370373 eV    ::
         :: SCC energy               -59.082294591710 Eh    ::
         :: -> Gsolv                  -0.107307476211 Eh    ::
         :: repulsion energy           0.555802781910 Eh    ::

    * Orbital Energies and Occupations

         #    Occupation            Energy/Eh            Energy/eV
      -------------------------------------------------------------
         1        2.0000           -0.8070807             -21.9618
       ...           ...                  ...                  ...
        36        2.0000           -0.4733151             -12.8796
        37        2.0000           -0.4717647             -12.8374
        38        2.0000           -0.4679995             -12.7349
        39        2.0000           -0.4611599             -12.5488
        40        2.0000           -0.4551183             -12.3844
        41        2.0000           -0.4475160             -12.1775
        42        2.0000           -0.4378145             -11.9135
        43        2.0000           -0.4150999             -11.2954
        44        2.0000           -0.3958690             -10.7721
        45        2.0000           -0.3799832             -10.3399
        46        2.0000           -0.3617853              -9.8447
        47        2.0000           -0.3470868              -9.4447
        48        2.0000           -0.3441115              -9.3638 (HOMO)
        49                         -0.2616784              -7.1206 (LUMO)
        50                         -0.2135507              -5.8110
        51                         -0.1305430              -3.5523
        52                         -0.1253486              -3.4109
        53                         -0.1071762              -2.9164
        54                         -0.1062043              -2.8900
        55                         -0.0887672              -2.4155
        56                         -0.0858497              -2.3361
        57                         -0.0629737              -1.7136
        58                         -0.0615651              -1.6753
        59                         -0.0589263              -1.6035
       ...                                ...                  ...
       100                          0.6983590              19.0033
      -------------------------------------------------------------
                  HL-Gap            0.0824331 Eh            2.2431 eV

Wiberg/Mayer (AO) data.
largest (>0.10) Wiberg bond orders for each atom

     #   Z sym  total        # sym  WBO       # sym  WBO       # sym  WBO
 ---------------------------------------------------------------------------
     1   6 C    3.893 --    19 H    0.987    18 H    0.980    20 H    0.980
                             2 O    0.918
     2   8 O    2.169 --     3 C    1.066     1 C    0.918     4 O    0.106
     3   6 C    3.839 --     4 O    1.541     5 C    1.107     2 O    1.066
     4   8 O    1.897 --     3 C    1.541     2 O    0.106
     5   6 C    3.946 --     6 C    1.536     3 C    1.107    17 N    1.070
     6   6 C    3.863 --     5 C    1.536     7 O    1.106     8 C    0.899
     7   8 O    2.079 --     6 C    1.106    21 H    0.790
     8   6 C    3.924 --    10 O    1.242     9 C    0.939     6 C    0.899
                            11 N    0.775
     9   6 C    3.992 --    22 H    0.991    23 H    0.987    24 H    0.986
                             8 C    0.939
    10   8 O    1.546 --     8 C    1.242
    11   7 N    3.257 --    12 C    1.228    25 H    0.922     8 C    0.775
                            17 N    0.154
    12   6 C    3.948 --    17 N    1.593    11 N    1.228    13 C    0.962
    13   6 C    3.965 --    15 C    0.997    14 C    0.988    16 N    0.978
                            12 C    0.962
    14   6 C    3.996 --    13 C    0.988    26 H    0.987    27 H    0.986
                            28 H    0.984
    15   6 C    3.997 --    13 C    0.997    29 H    0.988    31 H    0.986
                            30 H    0.985
    16   7 N    2.952 --    13 C    0.978    32 H    0.948    33 H    0.945
    17   7 N    2.969 --    12 C    1.593     5 C    1.070    11 N    0.154
    18   1 H    1.012 --     1 C    0.980
    19   1 H    1.015 --     1 C    0.987
    20   1 H    1.013 --     1 C    0.980
    21   1 H    0.876 --     7 O    0.790
    22   1 H    1.014 --     9 C    0.991
    23   1 H    1.013 --     9 C    0.987
    24   1 H    1.016 --     9 C    0.986
    25   1 H    0.968 --    11 N    0.922
    26   1 H    1.007 --    14 C    0.987
    27   1 H    1.006 --    14 C    0.986
    28   1 H    1.005 --    14 C    0.984
    29   1 H    1.011 --    15 C    0.988
    30   1 H    1.022 --    15 C    0.985
    31   1 H    1.011 --    15 C    0.986
    32   1 H    0.966 --    16 N    0.948
    33   1 H    0.964 --    16 N    0.945
 ---------------------------------------------------------------------------

           -------------------------------------------------
          | TOTAL ENERGY              -58.545209824708 Eh   |
          | GRADIENT NORM               0.000891508925 Eh/α |
          | HOMO-LUMO GAP               2.243119370373 eV   |
           -------------------------------------------------

 * finished run on 2023/06/20 at 15:00:31.336
