   * xtb version 6.5.1 (579679a) compiled by 'ehlert@majestix' on 2022-07-11
          program call               : /lustre/hpc/kemi/ree/PhD/git/ReactivityQM/dep/xtb-6.5.1/bin/xtb --gfn 1 /lustre/hpc/kemi/ree/PhD/git/ReactivityQM/calculations/R02oxygendeprot/reac01prodE08/conf11/R02oxygendeprot_reac01prodE08_conf11_gfn1.xyz --opt --vfukui --chrg -2 --uhf 0 --alpb DMSO

   ID    Z sym.   atoms
    1    6 C      1, 3, 5, 7-10, 12, 14, 15, 18, 19, 22, 24
    2    8 O      2, 4, 13, 20, 23, 25
    3    7 N      6, 11, 16, 17, 21
    4    1 H      26-42

      * Solvation model:               ALPB
        Solvent                        DMSO
        Solvent mass                       7.8130E+01 g/mol
          :  Hamiltonian                  GFN1-xTB          :
 * total energy  :   -83.6219783 Eh     change       -0.2225718E-08 Eh
 * total energy  :   -83.6356005 Eh     change       -0.1362218E-01 Eh
 * total energy  :   -83.6405620 Eh     change       -0.4961466E-02 Eh
 * total energy  :   -83.6416350 Eh     change       -0.1072989E-02 Eh
 * total energy  :   -83.6425968 Eh     change       -0.9618122E-03 Eh
 * total energy  :   -83.6431296 Eh     change       -0.5328644E-03 Eh
 * total energy  :   -83.6435929 Eh     change       -0.4633018E-03 Eh
 * total energy  :   -83.6440301 Eh     change       -0.4371669E-03 Eh
 * total energy  :   -83.6446117 Eh     change       -0.5816041E-03 Eh
 * total energy  :   -83.6458383 Eh     change       -0.1226641E-02 Eh
 * total energy  :   -83.6736047 Eh     change       -0.1071340E-04 Eh
 * total energy  :   -83.6736143 Eh     change       -0.9579329E-05 Eh
 * total energy  :   -83.6736228 Eh     change       -0.8480440E-05 Eh
 * total energy  :   -83.6736304 Eh     change       -0.7622636E-05 Eh
 * total energy  :   -83.6736375 Eh     change       -0.7133454E-05 Eh
 * total energy  :   -83.6736446 Eh     change       -0.7047025E-05 Eh
 * total energy  :   -83.6736519 Eh     change       -0.7265408E-05 Eh
 * total energy  :   -83.6736595 Eh     change       -0.7658181E-05 Eh
 * total energy  :   -83.6736631 Eh     change       -0.3630184E-05 Eh
   *** GEOMETRY OPTIMIZATION CONVERGED AFTER 68 ITERATIONS ***

 final structure:
================
42
 xtb: 6.5.1 (579679a)
C            6.42393499506988       -0.48664276213526       -0.21342136845615
O            5.04143671840975       -0.30016945704140        0.03650959882607
C            4.66539341856733       -0.35557236617972        1.35818697524567
O            5.51274222628182       -0.54002308421354        2.22274487871913
C            3.23840842129451       -0.18694456189753        1.53853627767770
N            2.51458412732451        0.01745892644807        0.37228833437333
C            1.23782404940079        0.13719080265146        0.42024186736638
C            0.40611329781402        0.41350011023232       -0.82372410249619
C            0.41420273364570        1.94282998568315       -1.03716911500018
C            1.06381316653793       -0.29045870865856       -2.02261586256715
N           -0.93929280297024       -0.08943369529916       -0.55758311261874
C           -1.84322320206727        0.05436365652091       -1.48750249741726
O           -1.77345032149012        0.58627961548510       -2.62099170665845
C           -3.21744088425650       -0.59699770937271       -1.08524185469761
C           -3.90013556731784       -1.20922077823296       -2.30936480856219
N           -3.05012902539202       -1.61347819487132       -0.03092815296981
N           -3.82779188396669       -1.17155528090428        1.08233302856426
C           -4.38588660763959       -0.08324476565299        0.73816182117611
C           -5.32673283187788        0.70483455534299        1.57951175762734
O           -4.10190132748334        0.37815756701106       -0.49881481780901
N            0.54999656979023        0.07889568052939        1.60999606745197
C            1.12708929286432       -0.10273954661449        2.83001484749307
O            0.43054684160239       -0.15150420342586        3.84822850604007
C            2.63271146128549       -0.24358611651214        2.82168285218959
O            3.22690765888612       -0.40588149132864        3.90828371812623
H            7.02053700177640        0.28698861744767        0.28168841843776
H            6.56727388903907       -0.42310488140701       -1.29157475145296
H            6.75752029716769       -1.46724626018657        0.14323862256422
H           -0.11432099107800        2.20156526450717       -1.95358939143623
H           -0.07133720336533        2.43824638190617       -0.19605817692820
H            1.44217323135437        2.29984635225963       -1.10994835877983
H            2.11160903046088        0.00537000151389       -2.09139060149692
H            1.01359973734232       -1.37210313489976       -1.89257806697340
H            0.55843519612894       -0.02079727946067       -2.94870272517904
H           -2.06900271017200       -1.58810980583315        0.29034846443106
H           -3.99693834667368       -0.45383756459809       -3.08800305159094
H           -4.88698531627425       -1.58224953879367       -2.04139419826859
H           -3.29516286784769       -2.03326534864964       -2.68332611663347
H           -6.30517076509761        0.74664234038569        1.10178965363630
H           -4.96511100296098        1.72626304256963        1.69332814831648
H           -5.42453280895072        0.24048520971151        2.55784816448845
H           -0.46230589515061        0.13272042595170        1.54895983526339

          :  Hamiltonian                  GFN1-xTB          :
         :: total energy             -83.673663147883 Eh    ::
         :: gradient norm              0.000213575057 Eh/a0 ::
         :: HOMO-LUMO gap              2.444491239818 eV    ::
         :: SCC energy               -84.413283424712 Eh    ::
         :: -> Gsolv                  -0.260924080501 Eh    ::
         :: repulsion energy           0.765947546811 Eh    ::

    * Orbital Energies and Occupations

         #    Occupation            Energy/Eh            Energy/eV
      -------------------------------------------------------------
         1        2.0000           -0.7894292             -21.4815
       ...           ...                  ...                  ...
        56        2.0000           -0.4474611             -12.1760
        57        2.0000           -0.4399852             -11.9726
        58        2.0000           -0.4372443             -11.8980
        59        2.0000           -0.4250871             -11.5672
        60        2.0000           -0.4219741             -11.4825
        61        2.0000           -0.4187283             -11.3942
        62        2.0000           -0.3956535             -10.7663
        63        2.0000           -0.3911468             -10.6436
        64        2.0000           -0.3670624              -9.9883
        65        2.0000           -0.3597047              -9.7881
        66        2.0000           -0.3508936              -9.5483
        67        2.0000           -0.3483325              -9.4786
        68        2.0000           -0.3454365              -9.3998 (HOMO)
        69                         -0.2556031              -6.9553 (LUMO)
        70                         -0.2142767              -5.8308
        71                         -0.2134182              -5.8074
        72                         -0.1818849              -4.9493
        73                         -0.1676111              -4.5609
        74                         -0.1243231              -3.3830
        75                         -0.1175039              -3.1974
        76                         -0.0959733              -2.6116
        77                         -0.0929873              -2.5303
        78                         -0.0873420              -2.3767
        79                         -0.0839945              -2.2856
       ...                                ...                  ...
       134                          0.7707540              20.9733
      -------------------------------------------------------------
                  HL-Gap            0.0898334 Eh            2.4445 eV

Wiberg/Mayer (AO) data.
largest (>0.10) Wiberg bond orders for each atom

     #   Z sym  total        # sym  WBO       # sym  WBO       # sym  WBO
 ---------------------------------------------------------------------------
     1   6 C    3.905 --    27 H    0.987    28 H    0.980    26 H    0.980
                             2 O    0.933
     2   8 O    2.130 --     3 C    1.011     1 C    0.933     4 O    0.105
     3   6 C    3.848 --     4 O    1.577     5 C    1.137     2 O    1.011
     4   8 O    1.856 --     3 C    1.577     2 O    0.105
     5   6 C    3.920 --    24 C    1.275     6 N    1.142     3 C    1.137
                            25 O    0.129
     6   7 N    3.017 --     7 C    1.629     5 C    1.142
     7   6 C    3.922 --     6 N    1.629    21 N    1.105     8 C    0.973
     8   6 C    3.973 --    10 C    0.985    11 N    0.982     7 C    0.973
                             9 C    0.969
     9   6 C    3.994 --    31 H    0.988    30 H    0.987    29 H    0.981
                             8 C    0.969
    10   6 C    3.996 --    33 H    0.987    32 H    0.986     8 C    0.985
                            34 H    0.983
    11   7 N    2.938 --    12 C    1.528     8 C    0.982    13 O    0.212
    12   6 C    3.935 --    11 N    1.528    13 O    1.434    14 C    0.887
    13   8 O    1.795 --    12 C    1.434    11 N    0.212
    14   6 C    3.840 --    15 C    0.992    16 N    0.960    12 C    0.887
                            20 O    0.881
    15   6 C    3.996 --    14 C    0.992    37 H    0.987    38 H    0.986
                            36 H    0.983
    16   7 N    3.029 --    17 N    1.004    14 C    0.960    35 H    0.911
    17   7 N    2.969 --    18 C    1.750    16 N    1.004    20 O    0.124
    18   6 C    3.904 --    17 N    1.750    20 O    1.049    19 C    1.017
    19   6 C    3.994 --    18 C    1.017    41 H    0.986    40 H    0.972
                            39 H    0.971
    20   8 O    2.142 --    18 C    1.049    14 C    0.881    17 N    0.124
    21   7 N    3.451 --    22 C    1.188     7 C    1.105    42 H    0.884
                            23 O    0.136
    22   6 C    3.886 --    23 O    1.550    21 N    1.188    24 C    0.973
    23   8 O    1.829 --    22 C    1.550    21 N    0.136
    24   6 C    3.944 --    25 O    1.503     5 C    1.275    22 C    0.973
    25   8 O    1.806 --    24 C    1.503     5 C    0.129
    26   1 H    1.015 --     1 C    0.980
    27   1 H    1.017 --     1 C    0.987
    28   1 H    1.016 --     1 C    0.980
    29   1 H    1.021 --     9 C    0.981
    30   1 H    1.010 --     9 C    0.987
    31   1 H    1.010 --     9 C    0.988
    32   1 H    1.020 --    10 C    0.986
    33   1 H    1.011 --    10 C    0.987
    34   1 H    1.021 --    10 C    0.983
    35   1 H    1.012 --    16 N    0.911
    36   1 H    1.020 --    15 C    0.983
    37   1 H    1.011 --    15 C    0.987
    38   1 H    1.011 --    15 C    0.986
    39   1 H    1.003 --    19 C    0.971
    40   1 H    1.002 --    19 C    0.972
    41   1 H    1.004 --    19 C    0.986
    42   1 H    0.981 --    21 N    0.884
 ---------------------------------------------------------------------------

           -------------------------------------------------
          | TOTAL ENERGY              -83.673663147883 Eh   |
          | GRADIENT NORM               0.000213575057 Eh/α |
          | HOMO-LUMO GAP               2.444491239818 eV   |
           -------------------------------------------------

 * finished run on 2023/06/21 at 17:10:41.448
