   * xtb version 6.5.1 (579679a) compiled by 'ehlert@majestix' on 2022-07-11
          program call               : /lustre/hpc/kemi/ree/PhD/git/ReactivityQM/dep/xtb-6.5.1/bin/xtb --gfn 1 /lustre/hpc/kemi/ree/PhD/git/ReactivityQM/calculations/R01/reac02prodN09/conf09/R01_reac02prodN09_conf09_gfn1.xyz --opt --vfukui --chrg 1 --uhf 0 --alpb DMSO

   ID    Z sym.   atoms
    1    6 C      1, 3, 5, 7-10, 13, 15, 16
    2    8 O      2, 4, 14, 17
    3    7 N      6, 11, 12
    4    1 H      18-33

      * Solvation model:               ALPB
        Solvent                        DMSO
        Solvent mass                       7.8130E+01 g/mol
          :  Hamiltonian                  GFN1-xTB          :
 * total energy  :   -57.7917436 Eh     change       -0.1634248E-11 Eh
 * total energy  :   -57.8036661 Eh     change       -0.1192251E-01 Eh
 * total energy  :   -57.8091292 Eh     change       -0.5463173E-02 Eh
 * total energy  :   -57.8103252 Eh     change       -0.1195919E-02 Eh
 * total energy  :   -57.8110905 Eh     change       -0.7653287E-03 Eh
 * total energy  :   -57.8115488 Eh     change       -0.4582891E-03 Eh
 * total energy  :   -57.8120387 Eh     change       -0.4899544E-03 Eh
 * total energy  :   -57.8124961 Eh     change       -0.4573929E-03 Eh
 * total energy  :   -57.8128496 Eh     change       -0.3534919E-03 Eh
 * total energy  :   -57.8131714 Eh     change       -0.3217504E-03 Eh
 * total energy  :   -57.8386435 Eh     change       -0.9219365E-05 Eh
 * total energy  :   -57.8386523 Eh     change       -0.8890325E-05 Eh
 * total energy  :   -57.8386663 Eh     change       -0.1399401E-04 Eh
 * total energy  :   -57.8386818 Eh     change       -0.1549654E-04 Eh
 * total energy  :   -57.8386929 Eh     change       -0.1108406E-04 Eh
 * total energy  :   -57.8387051 Eh     change       -0.1213727E-04 Eh
 * total energy  :   -57.8387159 Eh     change       -0.1084806E-04 Eh
 * total energy  :   -57.8387231 Eh     change       -0.7174498E-05 Eh
 * total energy  :   -57.8387279 Eh     change       -0.4839411E-05 Eh
   *** GEOMETRY OPTIMIZATION CONVERGED AFTER 56 ITERATIONS ***

 final structure:
================
33
 xtb: 6.5.1 (579679a)
C            3.28983849116547       -2.12090920185366        2.08351083374370
O            2.15056768206755       -1.41201266138049        1.56693313877327
C            2.39284606928961       -0.35050229914580        0.83174862175992
O            3.49108511501890        0.07354057649626        0.56358245068588
C            1.12988121883447        0.30693864346877        0.32127497965161
N            0.07616067970811       -0.40502230896265        0.24975089611469
C           -1.11688414519290        0.16439522636406       -0.23422690065870
C           -2.33451679538524       -0.68327070368485       -0.18589109954578
C           -2.23830771714278       -2.04589574754197        0.45868156583872
C           -3.71252048503650       -0.07021687164521       -0.20918655652760
N           -1.58805700550970       -0.57345629870908       -1.46420157365980
N           -1.19261065329337        1.56245059326258       -0.31967792976099
C           -0.12203806541049        2.41530520251938       -0.16589495598345
O           -0.28398360413641        3.60291416403100       -0.06307121038787
C            1.24194486418953        1.72192503370126       -0.21072045696391
C            1.65323809179273        1.61251662475208       -1.69888694158526
O            2.14789633255741        2.50081618435416        0.50786222549490
H            3.86927073359483       -1.46228665640814        2.73323288008153
H            2.89535148779403       -2.96545228277608        2.64299373141524
H            3.91489433656784       -2.46229146722289        1.25653749537387
H           -2.87579750109853       -2.75080802534034       -0.07234057238177
H           -1.21120007802223       -2.40617959495264        0.44419573626986
H           -2.57713425500522       -1.97513222464553        1.49175366512303
H           -3.74408403708863        0.82278575715626       -0.82858285270816
H           -4.42498376521097       -0.79333890556415       -0.60418572942164
H           -4.00697555500418        0.18923011390041        0.80728231874251
H           -1.99089840388577       -0.01569686509194       -2.20157391013824
H           -1.03024333459361       -1.36126111800083       -1.75999951212788
H           -2.10276153430040        1.99274728372638       -0.27251423498489
H            2.62406280672243        1.12528405614573       -1.76645805711072
H            1.72111761668993        2.61574510321880       -2.11645762448817
H            0.91733506827482        1.03396026642771       -2.25009035259039
H            3.03751034104758        2.11317640340096        0.46461993195353

          :  Hamiltonian                  GFN1-xTB          :
         :: total energy             -57.838727921598 Eh    ::
         :: gradient norm              0.000661134780 Eh/a0 ::
         :: HOMO-LUMO gap              2.745764036378 eV    ::
         :: SCC energy               -58.405531666383 Eh    ::
         :: -> Gsolv                  -0.118508472550 Eh    ::
         :: repulsion energy           0.586036551744 Eh    ::

    * Orbital Energies and Occupations

         #    Occupation            Energy/Eh            Energy/eV
      -------------------------------------------------------------
         1        2.0000           -0.8928413             -24.2954
       ...           ...                  ...                  ...
        35        2.0000           -0.5527343             -15.0407
        36        2.0000           -0.5477458             -14.9049
        37        2.0000           -0.5464786             -14.8704
        38        2.0000           -0.5412430             -14.7280
        39        2.0000           -0.5381374             -14.6435
        40        2.0000           -0.5314511             -14.4615
        41        2.0000           -0.5274127             -14.3516
        42        2.0000           -0.5183188             -14.1042
        43        2.0000           -0.5153170             -14.0225
        44        2.0000           -0.5120367             -13.9332
        45        2.0000           -0.4885426             -13.2939
        46        2.0000           -0.4816883             -13.1074
        47        2.0000           -0.4680660             -12.7367 (HOMO)
        48                         -0.3671610              -9.9910 (LUMO)
        49                         -0.2942076              -8.0058
        50                         -0.2563772              -6.9764
        51                         -0.2014626              -5.4821
        52                         -0.1779605              -4.8426
        53                         -0.1692720              -4.6061
        54                         -0.1586499              -4.3171
        55                         -0.1486436              -4.0448
        56                         -0.1380594              -3.7568
        57                         -0.1266289              -3.4457
        58                         -0.1211083              -3.2955
       ...                                ...                  ...
       100                          0.7163916              19.4940
      -------------------------------------------------------------
                  HL-Gap            0.1009050 Eh            2.7458 eV

Wiberg/Mayer (AO) data.
largest (>0.10) Wiberg bond orders for each atom

     #   Z sym  total        # sym  WBO       # sym  WBO       # sym  WBO
 ---------------------------------------------------------------------------
     1   6 C    3.849 --    19 H    0.985    20 H    0.978    18 H    0.977
                             2 O    0.875
     2   8 O    2.238 --     3 C    1.167     1 C    0.875     4 O    0.148
     3   6 C    3.855 --     4 O    1.666     2 O    1.167     5 C    0.950
     4   8 O    1.964 --     3 C    1.666     2 O    0.148
     5   6 C    3.932 --     6 N    1.796    15 C    0.967     3 C    0.950
     6   7 N    3.053 --     5 C    1.796     7 C    1.029
     7   6 C    3.872 --     6 N    1.029    12 N    1.019     8 C    0.918
                            11 N    0.801
     8   6 C    3.851 --    10 C    1.011     9 C    1.008     7 C    0.918
                            11 N    0.836
     9   6 C    3.978 --     8 C    1.008    22 H    0.978    21 H    0.975
                            23 H    0.973
    10   6 C    3.979 --     8 C    1.011    24 H    0.978    25 H    0.973
                            26 H    0.972
    11   7 N    3.496 --    27 H    0.871    28 H    0.869     8 C    0.836
                             7 C    0.801
    12   7 N    3.292 --    13 C    1.143     7 C    1.019    29 H    0.874
                            14 O    0.141
    13   6 C    3.878 --    14 O    1.705    12 N    1.143    15 C    0.930
    14   8 O    1.968 --    13 C    1.705    12 N    0.141
    15   6 C    3.935 --    17 O    0.990     5 C    0.967    13 C    0.930
                            16 C    0.927
    16   6 C    3.982 --    32 H    0.986    30 H    0.979    31 H    0.977
                            15 C    0.927
    17   8 O    1.909 --    15 C    0.990    33 H    0.826
    18   1 H    1.002 --     1 C    0.977
    19   1 H    1.007 --     1 C    0.985
    20   1 H    1.002 --     1 C    0.978
    21   1 H    0.994 --     9 C    0.975
    22   1 H    1.007 --     9 C    0.978
    23   1 H    0.994 --     9 C    0.973
    24   1 H    0.992 --    10 C    0.978
    25   1 H    0.991 --    10 C    0.973
    26   1 H    0.993 --    10 C    0.972
    27   1 H    0.904 --    11 N    0.871
    28   1 H    0.903 --    11 N    0.869
    29   1 H    0.919 --    12 N    0.874
    30   1 H    1.001 --    16 C    0.979
    31   1 H    0.997 --    16 C    0.977
    32   1 H    0.998 --    16 C    0.986
    33   1 H    0.864 --    17 O    0.826
 ---------------------------------------------------------------------------

           -------------------------------------------------
          | TOTAL ENERGY              -57.838727921598 Eh   |
          | GRADIENT NORM               0.000661134780 Eh/α |
          | HOMO-LUMO GAP               2.745764036378 eV   |
           -------------------------------------------------

 * finished run on 2023/06/20 at 15:09:42.911
