   * xtb version 6.5.1 (579679a) compiled by 'ehlert@majestix' on 2022-07-11
          program call               : /lustre/hpc/kemi/ree/PhD/git/ReactivityQM/dep/xtb-6.5.1/bin/xtb --gfn 1 /lustre/hpc/kemi/ree/PhD/git/ReactivityQM/calculations/R02oxygendeprot/reac01prodE12/conf05/R02oxygendeprot_reac01prodE12_conf05_gfn1.xyz --opt --vfukui --chrg -2 --uhf 0 --alpb DMSO

   ID    Z sym.   atoms
    1    6 C      1, 3, 5, 6, 8, 9, 12-15, 17, 19, 22, 23
    2    8 O      2, 4, 7, 10, 18, 24
    3    7 N      11, 16, 20, 21, 25
    4    1 H      26-42

      * Solvation model:               ALPB
        Solvent                        DMSO
        Solvent mass                       7.8130E+01 g/mol
          :  Hamiltonian                  GFN1-xTB          :
 * total energy  :   -83.6000006 Eh     change       -0.4531557E-09 Eh
 * total energy  :   -83.6144930 Eh     change       -0.1449238E-01 Eh
 * total energy  :   -83.6207700 Eh     change       -0.6277038E-02 Eh
 * total energy  :   -83.6221803 Eh     change       -0.1410251E-02 Eh
 * total energy  :   -83.6235778 Eh     change       -0.1397522E-02 Eh
 * total energy  :   -83.6242703 Eh     change       -0.6924752E-03 Eh
 * total energy  :   -83.6248893 Eh     change       -0.6190238E-03 Eh
 * total energy  :   -83.6252248 Eh     change       -0.3354888E-03 Eh
 * total energy  :   -83.6253901 Eh     change       -0.1653333E-03 Eh
 * total energy  :   -83.6255547 Eh     change       -0.1645265E-03 Eh
 * total energy  :   -83.6452689 Eh     change       -0.5514023E-04 Eh
 * total energy  :   -83.6453060 Eh     change       -0.3714928E-04 Eh
 * total energy  :   -83.6453370 Eh     change       -0.3098720E-04 Eh
 * total energy  :   -83.6453581 Eh     change       -0.2116187E-04 Eh
 * total energy  :   -83.6453750 Eh     change       -0.1689821E-04 Eh
 * total energy  :   -83.6453868 Eh     change       -0.1177601E-04 Eh
 * total energy  :   -83.6454007 Eh     change       -0.1383215E-04 Eh
 * total energy  :   -83.6454063 Eh     change       -0.5638746E-05 Eh
 * total energy  :   -83.6454097 Eh     change       -0.3429617E-05 Eh
   *** GEOMETRY OPTIMIZATION CONVERGED AFTER 69 ITERATIONS ***

 final structure:
================
42
 xtb: 6.5.1 (579679a)
C           -5.67441613454309        2.49841964660111       -1.08349874726906
O           -4.54731260694095        1.94881397851562       -0.42986071055147
C           -3.71540498786082        1.18396245632501       -1.22468889409814
O           -4.00344535704697        1.02657657767516       -2.41633141430569
C           -2.59043483063991        0.62473936393810       -0.54618283379439
C           -2.24969038281790        0.84371606592434        0.80351846577554
O           -2.88105437584853        1.51153762240412        1.64729747001177
C           -0.93081474802261        0.13543149874098        1.25806165200791
C           -0.95493951461948       -0.11347527897199        2.76918658002621
O            0.21164128045150        0.90723024788580        0.91467529037465
N           -0.87942166830519       -1.13819670940841        0.55781738385497
C           -0.88244961060249       -0.90827694512389       -0.83695713902140
C            0.30259019235313       -1.49387586140504       -1.58516148945064
C            0.32738313830901       -3.02707456433677       -1.46924883475344
C            0.23364137141518       -1.07643255239139       -3.06169147962941
N            1.43932106234482       -0.87285975929800       -0.88367615114469
C            2.64719459593833       -1.14386927414894       -1.30963666676516
O            3.03479112140550       -1.87987081685581       -2.24767256294909
C            3.70838646921482       -0.41548772676395       -0.51535502425680
N            4.98445255247852       -0.38323721147887       -0.76843664512226
N            5.56495466101977        0.40794145775933        0.19490528290038
C            4.60566743531027        0.80191365881733        0.96795207976759
C            4.71879452538615        1.67578957779072        2.16069513903483
O            3.41268356745377        0.32387947854392        0.57970961896149
N           -1.70334396582857       -0.10539452880758       -1.38389391704250
H           -6.32632836057942        1.71095467778275       -1.47945986020533
H           -6.22354131139087        3.08414348531202       -0.34571034580943
H           -5.37417919376191        3.14929159631474       -1.91318861178634
H           -1.79771913076599       -0.75248189663988        3.02755193424787
H           -1.05351509843150        0.83745856056517        3.29128800938241
H           -0.02987977275710       -0.59544647120717        3.07818436199608
H           -0.04760436696506       -1.65081777734310        0.83544443528975
H           -0.60134000690066       -3.44268775915033       -1.86203390534911
H            1.16240228176521       -3.43744834388349       -2.03619138881010
H            0.43335152482274       -3.33133858525993       -0.42853887840169
H            1.06658333976584       -1.49871734207799       -3.62201620387176
H           -0.70075063726452       -1.43385003046996       -3.49746457033037
H            0.26110250946386        0.01102069500034       -3.14562400535252
H            0.81459165763537        0.33386448516195        0.35185962982912
H            4.37996632311081        1.14633306206930        3.05082068741379
H            5.75615580964675        1.97162673695976        2.29363344570770
H            4.10193064260864        2.56619550492591        2.03904881348504

          :  Hamiltonian                  GFN1-xTB          :
         :: total energy             -83.645409724062 Eh    ::
         :: gradient norm              0.000759618293 Eh/a0 ::
         :: HOMO-LUMO gap              2.322908857027 eV    ::
         :: SCC energy               -84.370615062946 Eh    ::
         :: -> Gsolv                  -0.266401414045 Eh    ::
         :: repulsion energy           0.751780285169 Eh    ::

    * Orbital Energies and Occupations

         #    Occupation            Energy/Eh            Energy/eV
      -------------------------------------------------------------
         1        2.0000           -0.8196871             -22.3048
       ...           ...                  ...                  ...
        56        2.0000           -0.4387753             -11.9397
        57        2.0000           -0.4323569             -11.7650
        58        2.0000           -0.4210184             -11.4565
        59        2.0000           -0.4162516             -11.3268
        60        2.0000           -0.4123103             -11.2195
        61        2.0000           -0.4104598             -11.1692
        62        2.0000           -0.3967805             -10.7969
        63        2.0000           -0.3838341             -10.4447
        64        2.0000           -0.3752879             -10.2121
        65        2.0000           -0.3650084              -9.9324
        66        2.0000           -0.3519198              -9.5762
        67        2.0000           -0.3504273              -9.5356
        68        2.0000           -0.3287609              -8.9460 (HOMO)
        69                         -0.2433956              -6.6231 (LUMO)
        70                         -0.2196224              -5.9762
        71                         -0.2187584              -5.9527
        72                         -0.2002552              -5.4492
        73                         -0.1275642              -3.4712
        74                         -0.1270420              -3.4570
        75                         -0.1131793              -3.0798
        76                         -0.1029011              -2.8001
        77                         -0.0902402              -2.4556
        78                         -0.0863879              -2.3507
        79                         -0.0801673              -2.1815
       ...                                ...                  ...
       134                          0.7574907              20.6124
      -------------------------------------------------------------
                  HL-Gap            0.0853653 Eh            2.3229 eV

Wiberg/Mayer (AO) data.
largest (>0.10) Wiberg bond orders for each atom

     #   Z sym  total        # sym  WBO       # sym  WBO       # sym  WBO
 ---------------------------------------------------------------------------
     1   6 C    3.913 --    27 H    0.987    26 H    0.981    28 H    0.980
                             2 O    0.942
     2   8 O    2.117 --     3 C    0.991     1 C    0.942
     3   6 C    3.853 --     4 O    1.520     5 C    1.212     2 O    0.991
     4   8 O    1.813 --     3 C    1.520
     5   6 C    3.892 --     6 C    1.317     3 C    1.212    25 N    1.045
                             7 O    0.117
     6   6 C    3.923 --     7 O    1.520     5 C    1.317     8 C    0.908
     7   8 O    1.823 --     6 C    1.520     5 C    0.117
     8   6 C    3.891 --     9 C    0.988    11 N    0.947    10 O    0.947
                             6 C    0.908
     9   6 C    3.997 --    29 H    0.988     8 C    0.988    31 H    0.987
                            30 H    0.984
    10   8 O    1.877 --     8 C    0.947    39 H    0.800
    11   7 N    3.127 --    12 C    1.041     8 C    0.947    32 H    0.933
    12   6 C    3.938 --    25 N    1.741    11 N    1.041    13 C    0.971
    13   6 C    3.970 --    15 C    0.990    14 C    0.982    12 C    0.971
                            16 N    0.966
    14   6 C    3.993 --    33 H    0.988    35 H    0.984    34 H    0.982
                            13 C    0.982
    15   6 C    3.995 --    13 C    0.990    37 H    0.987    38 H    0.986
                            36 H    0.984
    16   7 N    2.997 --    17 C    1.492    13 C    0.966    18 O    0.223
                            39 H    0.117
    17   6 C    3.941 --    16 N    1.492    18 O    1.419    19 C    0.956
    18   8 O    1.771 --    17 C    1.419    16 N    0.223
    19   6 C    3.831 --    20 N    1.623    24 O    1.045    17 C    0.956
    20   7 N    2.967 --    19 C    1.623    21 N    1.168
    21   7 N    2.974 --    22 C    1.636    20 N    1.168
    22   6 C    3.886 --    21 N    1.636    24 O    1.077    23 C    1.025
    23   6 C    3.993 --    22 C    1.025    41 H    0.985    42 H    0.970
                            40 H    0.969
    24   8 O    2.311 --    22 C    1.077    19 C    1.045
    25   7 N    3.016 --    12 C    1.741     5 C    1.045
    26   1 H    1.019 --     1 C    0.981
    27   1 H    1.019 --     1 C    0.987
    28   1 H    1.019 --     1 C    0.980
    29   1 H    1.012 --     9 C    0.988
    30   1 H    1.019 --     9 C    0.984
    31   1 H    1.009 --     9 C    0.987
    32   1 H    0.982 --    11 N    0.933
    33   1 H    1.008 --    14 C    0.988
    34   1 H    1.020 --    14 C    0.982
    35   1 H    1.008 --    14 C    0.984
    36   1 H    1.022 --    15 C    0.984
    37   1 H    1.015 --    15 C    0.987
    38   1 H    1.019 --    15 C    0.986
    39   1 H    0.940 --    10 O    0.800    16 N    0.117
    40   1 H    1.001 --    23 C    0.969
    41   1 H    1.003 --    23 C    0.985
    42   1 H    1.001 --    23 C    0.970
 ---------------------------------------------------------------------------

           -------------------------------------------------
          | TOTAL ENERGY              -83.645409724062 Eh   |
          | GRADIENT NORM               0.000759618293 Eh/α |
          | HOMO-LUMO GAP               2.322908857027 eV   |
           -------------------------------------------------

 * finished run on 2023/06/21 at 17:14:26.699
