   * xtb version 6.5.1 (579679a) compiled by 'ehlert@majestix' on 2022-07-11
          program call               : /lustre/hpc/kemi/ree/PhD/git/ReactivityQM/dep/xtb-6.5.1/bin/xtb --gfn 1 /lustre/hpc/kemi/ree/PhD/git/ReactivityQM/calculations/RaltegravirCLI/reac02prodN05/conf04/RaltegravirCLI_reac02prodN05_conf04_gfn1.xyz --opt --vfukui --chrg 1 --uhf 0 --alpb DMSO

   ID    Z sym.   atoms
    1    6 C      1, 3, 5, 7, 8, 11-15, 17, 18, 20-24
    2    7 N      2, 10, 19, 25
    3    8 O      4, 6, 9
    4    9 F      16
    5    1 H      26-47

      * Solvation model:               ALPB
        Solvent                        DMSO
        Solvent mass                       7.8130E+01 g/mol
          :  Hamiltonian                  GFN1-xTB          :
 * total energy  :   -79.4546018 Eh     change       -0.1001297E-09 Eh
 * total energy  :   -79.4725282 Eh     change       -0.1792640E-01 Eh
 * total energy  :   -79.4815610 Eh     change       -0.9032812E-02 Eh
 * total energy  :   -79.4841272 Eh     change       -0.2566121E-02 Eh
 * total energy  :   -79.4869254 Eh     change       -0.2798268E-02 Eh
 * total energy  :   -79.4900183 Eh     change       -0.3092878E-02 Eh
 * total energy  :   -79.4987854 Eh     change       -0.8767043E-02 Eh
 * total energy  :   -79.5053306 Eh     change       -0.6545231E-02 Eh
 * total energy  :   -79.5122599 Eh     change       -0.6929270E-02 Eh
 * total energy  :   -79.5178048 Eh     change       -0.5544962E-02 Eh
 * total energy  :   -79.5462656 Eh     change       -0.2795614E-04 Eh
 * total energy  :   -79.5462886 Eh     change       -0.2309169E-04 Eh
 * total energy  :   -79.5463065 Eh     change       -0.1781669E-04 Eh
 * total energy  :   -79.5463299 Eh     change       -0.2341934E-04 Eh
 * total energy  :   -79.5463379 Eh     change       -0.8010307E-05 Eh
 * total energy  :   -79.5463451 Eh     change       -0.7184733E-05 Eh
 * total energy  :   -79.5463526 Eh     change       -0.7493693E-05 Eh
 * total energy  :   -79.5463567 Eh     change       -0.4167464E-05 Eh
 * total energy  :   -79.5463602 Eh     change       -0.3487423E-05 Eh
   *** GEOMETRY OPTIMIZATION CONVERGED AFTER 67 ITERATIONS ***

 final structure:
================
47
 xtb: 6.5.1 (579679a)
C           -3.58309704635006        0.23682054750845       -3.55307339187440
N           -2.41566484184998        0.44803642253974       -2.69669398003769
C           -1.18035615955360        0.55333317327225       -3.30672137906756
O           -1.02077042766675        0.47634154698959       -4.51948956847875
C           -0.06816092820109        0.76989751742848       -2.39530410653335
O            1.13675106909156        0.87805419875136       -2.98607513535833
C           -0.26760177335695        0.84255896610371       -1.04734821623901
C            0.77078035280462        1.05760375405633        0.00250950771073
O            0.49537131861943        0.91787497477469        1.20241751343184
N            1.98638239355758        1.42288593382460       -0.41001067064997
C            3.06735448685469        1.66109359666487        0.54556704119007
C            3.84705742219318        0.38731716411906        0.78884609626326
C            3.38082794214270       -0.54717335132051        1.71130153233923
C            4.07796556116699       -1.72559315654725        1.93468559551546
C            5.24089603637251       -1.94585290683742        1.21822691635947
F            5.92168901153896       -3.08281034711351        1.43048804233182
C            5.72919019326058       -1.04235656454788        0.29187448780647
C            5.01820103374620        0.13121257384579        0.08031787317662
N           -1.53693108624725        0.69884873193433       -0.54425461246565
C           -2.54550347846095        0.52508523356358       -1.33875651848091
C           -3.90824616902313        0.41162822995754       -0.73850029516652
C           -2.25451001418782       -0.51607199300925        2.59972262605714
C           -1.52049132483196       -1.54301218748856        1.82510392336480
C           -3.37611214119624       -0.91356605666955        3.47811903343129
N           -1.91836174988716        0.71608033488908        2.47857827563698
H           -4.06131499224476       -0.70585322443057       -3.29125737242363
H           -4.28718806113090        1.05680486544777       -3.41978825812682
H           -3.24251519767324        0.20464844354809       -4.58753368534607
H            1.02121554848981        0.78177216559589       -3.95182342900527
H            2.20169785918912        1.50495214113457       -1.39102933344526
H            3.71286950576648        2.43866575380279        0.13143318523823
H            2.61853600253318        2.01813242172582        1.47662858635567
H            2.46518541866299       -0.35258034598923        2.25667729407895
H            3.72837165894153       -2.45906758798248        2.64928159107850
H            6.64212584103598       -1.25252298923954       -0.25047179961142
H            5.38201943769452        0.85332516219588       -0.64103528942919
H           -4.36805930205682       -0.54342632164879       -0.99108800725378
H           -3.82059868560640        0.48989485014511        0.34235480763366
H           -4.55741637590776        1.20852709248843       -1.10199083126766
H           -1.99397342475981       -1.62119695769312        0.84372238126602
H           -0.48583274116401       -1.24122308228978        1.66468777608794
H           -1.57057454621553       -2.51647203621271        2.30829161495515
H           -4.03706297872547       -1.59745440151825        2.94629613215054
H           -2.97495684489281       -1.45599781657526        4.33661429467475
H           -3.93876647725883       -0.05254663677328        3.83185948815744
H           -1.11971229818153        0.96792268379508        1.86866098234502
H           -2.39070602703189        1.45546248381220        2.97054128162740

          :  Hamiltonian                  GFN1-xTB          :
         :: total energy             -79.546360226050 Eh    ::
         :: gradient norm              0.000634370503 Eh/a0 ::
         :: HOMO-LUMO gap              2.430383066072 eV    ::
         :: SCC energy               -80.478598342682 Eh    ::
         :: -> Gsolv                  -0.106456979829 Eh    ::
         :: repulsion energy           0.961899619365 Eh    ::

    * Orbital Energies and Occupations

         #    Occupation            Energy/Eh            Energy/eV
      -------------------------------------------------------------
         1        2.0000           -0.8675191             -23.6064
       ...           ...                  ...                  ...
        55        2.0000           -0.5225920             -14.2205
        56        2.0000           -0.5157208             -14.0335
        57        2.0000           -0.5103511             -13.8874
        58        2.0000           -0.5077965             -13.8178
        59        2.0000           -0.4820670             -13.1177
        60        2.0000           -0.4800097             -13.0617
        61        2.0000           -0.4771512             -12.9839
        62        2.0000           -0.4648265             -12.6486
        63        2.0000           -0.4556072             -12.3977
        64        2.0000           -0.4543049             -12.3623
        65        2.0000           -0.4522268             -12.3057
        66        2.0000           -0.4413354             -12.0093
        67        2.0000           -0.4320125             -11.7557 (HOMO)
        68                         -0.3426976              -9.3253 (LUMO)
        69                         -0.3240211              -8.8171
        70                         -0.2858659              -7.7788
        71                         -0.2775402              -7.5523
        72                         -0.2716019              -7.3907
        73                         -0.2418215              -6.5803
        74                         -0.1687674              -4.5924
        75                         -0.1614614              -4.3936
        76                         -0.1605946              -4.3700
        77                         -0.1554205              -4.2292
        78                         -0.1504101              -4.0929
       ...                                ...                  ...
       144                          0.7011799              19.0801
      -------------------------------------------------------------
                  HL-Gap            0.0893149 Eh            2.4304 eV

Wiberg/Mayer (AO) data.
largest (>0.10) Wiberg bond orders for each atom

     #   Z sym  total        # sym  WBO       # sym  WBO       # sym  WBO
 ---------------------------------------------------------------------------
     1   6 C    3.920 --    27 H    0.979    26 H    0.979    28 H    0.975
                             2 N    0.929
     2   7 N    3.512 --    20 C    1.178     3 C    1.128     1 C    0.929
                             4 O    0.132
     3   6 C    3.915 --     4 O    1.557     2 N    1.128     5 C    1.081
     4   8 O    1.904 --     3 C    1.557     2 N    0.132
     5   6 C    3.918 --     7 C    1.511     3 C    1.081     6 O    1.080
     6   8 O    2.071 --     5 C    1.080    29 H    0.796
     7   6 C    3.963 --     5 C    1.511    19 N    1.182     8 C    1.006
     8   6 C    3.905 --     9 O    1.494    10 N    1.318     7 C    1.006
     9   8 O    1.911 --     8 C    1.494    10 N    0.162
    10   7 N    3.386 --     8 C    1.318    11 C    0.933    30 H    0.882
                             9 O    0.162
    11   6 C    3.941 --    12 C    0.993    31 H    0.976    32 H    0.970
                            10 N    0.933
    12   6 C    3.988 --    18 C    1.422    13 C    1.417    11 C    0.993
    13   6 C    3.993 --    14 C    1.446    12 C    1.417    33 H    0.969
                            17 C    0.111
    14   6 C    3.992 --    13 C    1.446    15 C    1.399    34 H    0.969
                            18 C    0.110
    15   6 C    3.861 --    17 C    1.402    14 C    1.399    16 F    0.927
    16   9 F    1.055 --    15 C    0.927
    17   6 C    3.991 --    18 C    1.441    15 C    1.402    35 H    0.969
                            13 C    0.111
    18   6 C    3.993 --    17 C    1.441    12 C    1.422    36 H    0.971
                            14 C    0.110
    19   7 N    3.033 --    20 C    1.556     7 C    1.182
    20   6 C    3.932 --    19 N    1.556     2 N    1.178    21 C    1.026
    21   6 C    3.990 --    20 C    1.026    38 H    0.983    37 H    0.965
                            39 H    0.963
    22   6 C    3.872 --    25 N    1.681    24 C    1.060    23 C    1.056
    23   6 C    3.983 --    22 C    1.056    42 H    0.973    41 H    0.963
                            40 H    0.932
    24   6 C    3.985 --    22 C    1.060    45 H    0.978    43 H    0.954
                            44 H    0.938
    25   7 N    3.523 --    22 C    1.681    47 H    0.881    46 H    0.802
    26   1 H    0.998 --     1 C    0.979
    27   1 H    0.998 --     1 C    0.979
    28   1 H    1.005 --     1 C    0.975
    29   1 H    0.839 --     6 O    0.796
    30   1 H    0.940 --    10 N    0.882
    31   1 H    1.002 --    11 C    0.976
    32   1 H    1.007 --    11 C    0.970
    33   1 H    1.010 --    13 C    0.969
    34   1 H    0.998 --    14 C    0.969
    35   1 H    0.997 --    17 C    0.969
    36   1 H    0.999 --    18 C    0.971
    37   1 H    0.997 --    21 C    0.965
    38   1 H    1.009 --    21 C    0.983
    39   1 H    0.996 --    21 C    0.963
    40   1 H    1.002 --    23 C    0.932
    41   1 H    1.007 --    23 C    0.963
    42   1 H    0.994 --    23 C    0.973
    43   1 H    0.992 --    24 C    0.954
    44   1 H    0.991 --    24 C    0.938
    45   1 H    0.991 --    24 C    0.978
    46   1 H    0.937 --    25 N    0.802
    47   1 H    0.913 --    25 N    0.881
 ---------------------------------------------------------------------------

           -------------------------------------------------
          | TOTAL ENERGY              -79.546360226050 Eh   |
          | GRADIENT NORM               0.000634370503 Eh/α |
          | HOMO-LUMO GAP               2.430383066072 eV   |
           -------------------------------------------------

 * finished run on 2023/06/20 at 15:22:37.700
