   * xtb version 6.5.1 (579679a) compiled by 'ehlert@majestix' on 2022-07-11
          program call               : /lustre/hpc/kemi/ree/PhD/git/ReactivityQM/dep/xtb-6.5.1/bin/xtb --gfn 1 /lustre/hpc/kemi/ree/PhD/git/ReactivityQM/calculations/R02methylcation/reac01prodN08/conf07/R02methylcation_reac01prodN08_conf07_gfn1.xyz --opt --vfukui --chrg 0 --uhf 0 --alpb DMSO

   ID    Z sym.   atoms
    1    6 C      1, 3, 5, 7-10, 12, 14, 17, 18, 21, 23, 25
    2    8 O      2, 4, 13, 19, 22, 24
    3    7 N      6, 11, 15, 16, 20
    4    1 H      26-42

      * Solvation model:               ALPB
        Solvent                        DMSO
        Solvent mass                       7.8130E+01 g/mol
          :  Hamiltonian                  GFN1-xTB          :
 * total energy  :   -82.9981209 Eh     change       -0.1067235E-10 Eh
 * total energy  :   -83.0124614 Eh     change       -0.1434047E-01 Eh
 * total energy  :   -83.0169945 Eh     change       -0.4533124E-02 Eh
 * total energy  :   -83.0179613 Eh     change       -0.9668165E-03 Eh
 * total energy  :   -83.0186046 Eh     change       -0.6432634E-03 Eh
 * total energy  :   -83.0189396 Eh     change       -0.3350452E-03 Eh
 * total energy  :   -83.0191686 Eh     change       -0.2290037E-03 Eh
 * total energy  :   -83.0193328 Eh     change       -0.1642183E-03 Eh
 * total energy  :   -83.0194274 Eh     change       -0.9456692E-04 Eh
 * total energy  :   -83.0195088 Eh     change       -0.8135410E-04 Eh
 * total energy  :   -83.0202022 Eh     change       -0.1148839E-04 Eh
 * total energy  :   -83.0202127 Eh     change       -0.1057342E-04 Eh
 * total energy  :   -83.0202220 Eh     change       -0.9254127E-05 Eh
 * total energy  :   -83.0202301 Eh     change       -0.8099060E-05 Eh
 * total energy  :   -83.0202391 Eh     change       -0.9035187E-05 Eh
 * total energy  :   -83.0202468 Eh     change       -0.7626045E-05 Eh
 * total energy  :   -83.0202547 Eh     change       -0.7934414E-05 Eh
 * total energy  :   -83.0202601 Eh     change       -0.5436800E-05 Eh
 * total energy  :   -83.0202634 Eh     change       -0.3256358E-05 Eh
   *** GEOMETRY OPTIMIZATION CONVERGED AFTER 38 ITERATIONS ***

 final structure:
================
42
 xtb: 6.5.1 (579679a)
C           -6.03046000308723        0.44214871733849        1.41658515546071
O           -4.80304793759311       -0.16547643801761        1.00312465542748
C           -3.81731591603410        0.66419092661774        0.66949207832635
O           -3.93030993918000        1.86930669184585        0.70943655124110
C           -2.55940673168682       -0.01456801887631        0.23042415974651
N           -1.59865697477465        0.88579126104776       -0.15186873928152
C           -0.45681491923113        0.46441954627468       -0.56969393070223
C            0.58932162140985        1.44724432338690       -1.04680962775273
C            0.56171225329689        1.45075872408651       -2.58367060843253
C            0.30166900611732        2.84118371826035       -0.48070816415158
N            1.89302255872720        0.97336556347951       -0.56893497113217
C            3.05667703360459        1.58792419212153       -0.87732123306535
O            3.17755370101765        2.54025011512405       -1.62835408854389
C            4.22261748999408        0.96272970082260       -0.20427392672257
N            5.46376388814076        1.33334902801249       -0.25967011244759
N            6.16982720635487        0.46269884298502        0.51468467745011
C            5.31660897452124       -0.38715185743785        0.99518427876358
C            5.58211048494340       -1.53304996248833        1.89151506178547
O            4.06580802671450       -0.12611748617340        0.58039961879814
N           -0.17834519674307       -0.86671951376203       -0.66603429340164
C           -1.05110232103142       -1.87321149455626       -0.30665149024388
O           -0.71382417087868       -3.04152854329273       -0.42899836427304
C           -2.33807446810170       -1.37425531170504        0.18967296531298
O           -3.30301437698268       -2.21162264564741        0.59132691970071
C           -3.13762174114958       -3.62938536172317        0.63391471929994
H           -5.86288442462108        1.06774031783609        2.29671963781017
H           -6.43637549953514        1.05656909918189        0.60909954043450
H           -6.71472700311304       -0.36944765383390        1.65445678360798
H            1.25142601347483        2.19716030133415       -2.97258875664574
H           -0.44572283370628        1.68464251715839       -2.92503294296501
H            0.84651211878278        0.47057173960569       -2.96095608139041
H            1.02890639640932        3.55521103366392       -0.86257104586392
H            0.35676170101794        2.81735577123398        0.60649394914098
H           -0.69866617740473        3.15255766945414       -0.77792859518535
H            1.90711582737107        0.26791013178683        0.14802102073081
H            5.26013689692409       -2.45866669239344        1.41479474905235
H            5.01839494989045       -1.41901090197621        2.81724556064964
H            6.64511431020583       -1.58641763510433        2.11425464023334
H            0.71639071483206       -1.17411203278528       -1.01602014334836
H           -2.98190883346662       -4.03770949160121       -0.36706746170312
H           -2.30393832130278       -3.90914788077224        1.28119872740673
H           -4.06923538412751       -4.01748301050762        1.04750112687737

          :  Hamiltonian                  GFN1-xTB          :
         :: total energy             -83.020263387132 Eh    ::
         :: gradient norm              0.000386818912 Eh/a0 ::
         :: HOMO-LUMO gap              2.764644386804 eV    ::
         :: SCC energy               -83.804590299945 Eh    ::
         :: -> Gsolv                  -0.057649681857 Eh    ::
         :: repulsion energy           0.809324882849 Eh    ::

    * Orbital Energies and Occupations

         #    Occupation            Energy/Eh            Energy/eV
      -------------------------------------------------------------
         1        2.0000           -0.8658647             -23.5614
       ...           ...                  ...                  ...
        55        2.0000           -0.5051782             -13.7466
        56        2.0000           -0.5013361             -13.6420
        57        2.0000           -0.4957697             -13.4906
        58        2.0000           -0.4852092             -13.2032
        59        2.0000           -0.4811494             -13.0927
        60        2.0000           -0.4801364             -13.0652
        61        2.0000           -0.4669534             -12.7064
        62        2.0000           -0.4615510             -12.5594
        63        2.0000           -0.4569693             -12.4348
        64        2.0000           -0.4519519             -12.2982
        65        2.0000           -0.4509712             -12.2716
        66        2.0000           -0.4483686             -12.2007
        67        2.0000           -0.4271630             -11.6237 (HOMO)
        68                         -0.3255642              -8.8591 (LUMO)
        69                         -0.3117146              -8.4822
        70                         -0.2845920              -7.7441
        71                         -0.2568370              -6.9889
        72                         -0.2408624              -6.5542
        73                         -0.1995519              -5.4301
        74                         -0.1615813              -4.3969
        75                         -0.1417748              -3.8579
        76                         -0.1371867              -3.7330
        77                         -0.1313833              -3.5751
        78                         -0.1280091              -3.4833
       ...                                ...                  ...
       134                          0.7293166              19.8457
      -------------------------------------------------------------
                  HL-Gap            0.1015988 Eh            2.7646 eV

Wiberg/Mayer (AO) data.
largest (>0.10) Wiberg bond orders for each atom

     #   Z sym  total        # sym  WBO       # sym  WBO       # sym  WBO
 ---------------------------------------------------------------------------
     1   6 C    3.872 --    28 H    0.986    27 H    0.979    26 H    0.979
                             2 O    0.897
     2   8 O    2.205 --     3 C    1.117     1 C    0.897     4 O    0.134
     3   6 C    3.852 --     4 O    1.654     2 O    1.117     5 C    1.000
     4   8 O    1.915 --     3 C    1.654     2 O    0.134
     5   6 C    3.962 --    23 C    1.483     6 N    1.184     3 C    1.000
     6   7 N    3.029 --     7 C    1.589     5 C    1.184
     7   6 C    3.930 --     6 N    1.589    20 N    1.167     8 C    0.982
     8   6 C    3.933 --    10 C    0.990     7 C    0.982     9 C    0.975
                            11 N    0.923
     9   6 C    3.987 --    30 H    0.985    31 H    0.985    29 H    0.977
                             8 C    0.975
    10   6 C    3.988 --     8 C    0.990    33 H    0.985    34 H    0.983
                            32 H    0.982
    11   7 N    3.338 --    12 C    1.248     8 C    0.923    35 H    0.893
                            13 O    0.174
    12   6 C    3.915 --    13 O    1.591    11 N    1.248    14 C    0.993
    13   8 O    1.907 --    12 C    1.591    11 N    0.174
    14   6 C    3.872 --    15 N    1.623    19 O    1.046    12 C    0.993
    15   7 N    3.000 --    14 C    1.623    16 N    1.199
    16   7 N    2.982 --    17 C    1.610    15 N    1.199
    17   6 C    3.868 --    16 N    1.610    19 O    1.072    18 C    1.032
    18   6 C    3.986 --    17 C    1.032    38 H    0.982    37 H    0.963
                            36 H    0.963
    19   8 O    2.315 --    17 C    1.072    14 C    1.046
    20   7 N    3.465 --     7 C    1.167    21 C    1.128    39 H    0.882
                            22 O    0.132
    21   6 C    3.909 --    22 O    1.578    20 N    1.128    23 C    1.066
    22   8 O    1.905 --    21 C    1.578    20 N    0.132
    23   6 C    3.918 --     5 C    1.483    24 O    1.099    21 C    1.066
    24   8 O    2.195 --    23 C    1.099    25 C    0.895
    25   6 C    3.870 --    42 H    0.984    41 H    0.979    40 H    0.978
                            24 O    0.895
    26   1 H    1.008 --     1 C    0.979
    27   1 H    1.007 --     1 C    0.979
    28   1 H    1.011 --     1 C    0.986
    29   1 H    1.009 --     9 C    0.977
    30   1 H    1.001 --     9 C    0.985
    31   1 H    1.001 --     9 C    0.985
    32   1 H    1.007 --    10 C    0.982
    33   1 H    1.004 --    10 C    0.985
    34   1 H    1.010 --    10 C    0.983
    35   1 H    0.937 --    11 N    0.893
    36   1 H    0.996 --    18 C    0.963
    37   1 H    0.997 --    18 C    0.963
    38   1 H    0.998 --    18 C    0.982
    39   1 H    0.928 --    20 N    0.882
    40   1 H    1.015 --    25 C    0.978
    41   1 H    1.013 --    25 C    0.979
    42   1 H    1.012 --    25 C    0.984
 ---------------------------------------------------------------------------

           -------------------------------------------------
          | TOTAL ENERGY              -83.020263387132 Eh   |
          | GRADIENT NORM               0.000386818912 Eh/α |
          | HOMO-LUMO GAP               2.764644386804 eV   |
           -------------------------------------------------

 * finished run on 2023/06/21 at 17:39:20.000
