   * xtb version 6.5.1 (579679a) compiled by 'ehlert@majestix' on 2022-07-11
          program call               : /lustre/hpc/kemi/ree/PhD/git/ReactivityQM/dep/xtb-6.5.1/bin/xtb --gfn 1 /lustre/hpc/kemi/ree/PhD/git/ReactivityQM/calculations/R02oxygendeprot/reac01prodE06/conf09/R02oxygendeprot_reac01prodE06_conf09_gfn1.xyz --opt --vfukui --chrg -2 --uhf 0 --alpb DMSO

   ID    Z sym.   atoms
    1    6 C      1, 3, 5, 6, 8, 11-15, 17, 19, 22, 23
    2    8 O      2, 4, 7, 9, 18, 24
    3    7 N      10, 16, 20, 21, 25
    4    1 H      26-42

      * Solvation model:               ALPB
        Solvent                        DMSO
        Solvent mass                       7.8130E+01 g/mol
          :  Hamiltonian                  GFN1-xTB          :
 * total energy  :   -83.6064218 Eh     change       -0.1563194E-12 Eh
 * total energy  :   -83.6170609 Eh     change       -0.1063908E-01 Eh
 * total energy  :   -83.6204153 Eh     change       -0.3354402E-02 Eh
 * total energy  :   -83.6210077 Eh     change       -0.5923475E-03 Eh
 * total energy  :   -83.6215173 Eh     change       -0.5096561E-03 Eh
 * total energy  :   -83.6218612 Eh     change       -0.3438744E-03 Eh
 * total energy  :   -83.6222075 Eh     change       -0.3462575E-03 Eh
 * total energy  :   -83.6225398 Eh     change       -0.3323697E-03 Eh
 * total energy  :   -83.6227890 Eh     change       -0.2492109E-03 Eh
 * total energy  :   -83.6229719 Eh     change       -0.1829099E-03 Eh
 * total energy  :   -83.6240168 Eh     change       -0.1367038E-04 Eh
 * total energy  :   -83.6240453 Eh     change       -0.2850103E-04 Eh
 * total energy  :   -83.6240321 Eh     change        0.1321102E-04 Eh
 * total energy  :   -83.6240558 Eh     change       -0.2375601E-04 Eh
 * total energy  :   -83.6240688 Eh     change       -0.1295675E-04 Eh
 * total energy  :   -83.6240788 Eh     change       -0.1003717E-04 Eh
 * total energy  :   -83.6240883 Eh     change       -0.9486349E-05 Eh
 * total energy  :   -83.6240948 Eh     change       -0.6437867E-05 Eh
 * total energy  :   -83.6240974 Eh     change       -0.2652581E-05 Eh
   *** GEOMETRY OPTIMIZATION CONVERGED AFTER 38 ITERATIONS ***

 final structure:
================
42
 xtb: 6.5.1 (579679a)
C           -1.44136023560185        3.67013566836608        1.33734694676213
O           -1.41773774088346        2.35760900587053        0.81138484947759
C           -2.65715415730558        1.80266521050341        0.54523367268391
O           -3.66753981839104        2.45986373172496        0.78678115430302
C           -2.56547971201026        0.45336145827867        0.01198794430533
C           -3.75927522028296       -0.28752304249446       -0.24534116899034
O           -4.94061236182687        0.17450054629426       -0.19951362136839
C           -3.55964253980526       -1.73729149676142       -0.53393658616766
O           -4.47761578066376       -2.56331988225059       -0.65479979169300
N           -2.25770402086633       -2.18630855178144       -0.55507734900421
C           -1.13652039052904       -1.28726025498865       -0.79604144898797
C           -0.98113668901569       -1.08587794141235       -2.32966369199547
C            0.16085388160053       -1.92417565242055       -0.18411654389239
C           -0.09682492627011       -2.23374040215465        1.29911797996100
C            0.61045078906332       -3.19077795744489       -0.92111507941993
N            1.18173122112033       -0.88537773287891       -0.30099422888604
C            2.47326831158563       -1.03080778568450        0.10735426817626
O            2.96905652056984       -2.10383840827799        0.49829505663900
C            3.26478261585114        0.18325663622474       -0.00082273630139
N            4.53386287059632        0.34415956057145        0.33735470039936
N            4.85293877257085        1.64185636156347        0.04968535897775
C            3.79089449260377        2.19877729362121       -0.43686914950255
C            3.65286254232098        3.59772609612918       -0.90881242786682
O            2.74136942962841        1.35033547701582       -0.50005585693082
N           -1.29816767526032       -0.01691267902250       -0.15894523405941
H           -0.40856556679635        3.96216617620411        1.52822649193015
H           -1.89151984519349        4.37280306404982        0.62634038833962
H           -2.00963330668482        3.71333369838108        2.27403290375324
H           -2.15016636405988       -3.12264659126620       -0.91286062103752
H           -1.82270285779053       -0.50134353171394       -2.70027526525454
H           -0.05918179023663       -0.54651594460602       -2.53841730455594
H           -0.96541823868050       -2.04238688123340       -2.84828522276060
H            0.81051033253468       -2.60147329408501        1.77641652524183
H           -0.87346119417157       -2.99309025999724        1.38759057666119
H           -0.42839639570124       -1.32710481740595        1.80790894225576
H           -0.21968104402784       -3.88942871329989       -1.01367998419342
H            0.97790972725189       -2.94839755950461       -1.91715192579800
H            1.41116035985957       -3.68639052994339       -0.37299252247651
H            0.80233845251164        0.05810400706950       -0.36104033967309
H            3.24021422153583        3.61654534754030       -1.91748177825509
H            2.98183614868485        4.15838783198727       -0.25664369051706
H            4.62946018218179        4.07640473923909       -0.90769519028594

          :  Hamiltonian                  GFN1-xTB          :
         :: total energy             -83.624097411465 Eh    ::
         :: gradient norm              0.000579794361 Eh/a0 ::
         :: HOMO-LUMO gap              0.086492951862 eV    ::
         :: SCC energy               -84.345473947455 Eh    ::
         :: -> Gsolv                  -0.268789213644 Eh    ::
         :: repulsion energy           0.748894912289 Eh    ::

    * Orbital Energies and Occupations

         #    Occupation            Energy/Eh            Energy/eV
      -------------------------------------------------------------
         1        2.0000           -0.8183615             -22.2688
       ...           ...                  ...                  ...
        56        2.0000           -0.4422696             -12.0348
        57        2.0000           -0.4395187             -11.9599
        58        2.0000           -0.4200824             -11.4310
        59        2.0000           -0.4163325             -11.3290
        60        2.0000           -0.4122884             -11.2189
        61        2.0000           -0.4084563             -11.1147
        62        2.0000           -0.4034323             -10.9780
        63        2.0000           -0.3969058             -10.8004
        64        2.0000           -0.3912175             -10.6456
        65        2.0000           -0.3789512             -10.3118
        66        2.0000           -0.3663478              -9.9688
        67        2.0000           -0.3338524              -9.0846
        68        1.6839           -0.2749943              -7.4830 (HOMO)
        69        0.3161           -0.2718158              -7.3965 (LUMO)
        70                         -0.2372716              -6.4565
        71                         -0.2218030              -6.0356
        72                         -0.1634762              -4.4484
        73                         -0.1517942              -4.1305
        74                         -0.1289816              -3.5098
        75                         -0.1108372              -3.0160
        76                         -0.1052040              -2.8627
        77                         -0.0963480              -2.6218
        78                         -0.0850015              -2.3130
        79                         -0.0805266              -2.1912
       ...                                ...                  ...
       134                          0.7563855              20.5823
      -------------------------------------------------------------
                  HL-Gap            0.0031786 Eh            0.0865 eV

Wiberg/Mayer (AO) data.
largest (>0.10) Wiberg bond orders for each atom

     #   Z sym  total        # sym  WBO       # sym  WBO       # sym  WBO
 ---------------------------------------------------------------------------
     1   6 C    3.913 --    26 H    0.987    27 H    0.980    28 H    0.980
                             2 O    0.942
     2   8 O    2.118 --     3 C    0.994     1 C    0.942     4 O    0.100
     3   6 C    3.814 --     4 O    1.559     5 C    1.120     2 O    0.994
     4   8 O    1.832 --     3 C    1.559     2 O    0.100
     5   6 C    3.910 --    25 N    1.272     6 C    1.227     3 C    1.120
     6   6 C    3.874 --     7 O    1.416     5 C    1.227     8 C    1.010
     7   8 O    1.661 --     6 C    1.416
     8   6 C    3.859 --     9 O    1.528    10 N    1.154     6 C    1.010
     9   8 O    1.796 --     8 C    1.528    10 N    0.127
    10   7 N    3.249 --     8 C    1.154    11 C    0.929    29 H    0.917
                             9 O    0.127
    11   6 C    3.942 --    25 N    1.027    12 C    0.961    13 C    0.943
                            10 N    0.929
    12   6 C    3.976 --    32 H    0.986    30 H    0.985    31 H    0.985
                            11 C    0.961
    13   6 C    3.934 --    15 C    0.999    14 C    0.990    11 C    0.943
                            16 N    0.938
    14   6 C    3.992 --    13 C    0.990    33 H    0.985    34 H    0.985
                            35 H    0.982
    15   6 C    3.994 --    13 C    0.999    37 H    0.985    36 H    0.983
                            38 H    0.980
    16   7 N    3.273 --    17 C    1.200    13 C    0.938    39 H    0.889
                            18 O    0.144
    17   6 C    3.829 --    18 O    1.467    16 N    1.200    19 C    1.078
    18   8 O    1.746 --    17 C    1.467    16 N    0.144
    19   6 C    3.738 --    20 N    1.478    17 C    1.078    24 O    0.996
    20   7 N    2.809 --    19 C    1.478    21 N    1.189
    21   7 N    2.980 --    22 C    1.624    20 N    1.189
    22   6 C    3.831 --    21 N    1.624    24 O    1.055    23 C    1.026
    23   6 C    3.993 --    22 C    1.026    42 H    0.985    40 H    0.972
                            41 H    0.967
    24   8 O    2.227 --    22 C    1.055    19 C    0.996
    25   7 N    2.669 --     5 C    1.272    11 C    1.027
    26   1 H    1.019 --     1 C    0.987
    27   1 H    1.017 --     1 C    0.980
    28   1 H    1.018 --     1 C    0.980
    29   1 H    0.970 --    10 N    0.917
    30   1 H    1.011 --    12 C    0.985
    31   1 H    1.014 --    12 C    0.985
    32   1 H    1.007 --    12 C    0.986
    33   1 H    1.014 --    14 C    0.985
    34   1 H    1.014 --    14 C    0.985
    35   1 H    1.023 --    14 C    0.982
    36   1 H    1.005 --    15 C    0.983
    37   1 H    1.008 --    15 C    0.985
    38   1 H    1.021 --    15 C    0.980
    39   1 H    0.989 --    16 N    0.889
    40   1 H    1.000 --    23 C    0.972
    41   1 H    1.000 --    23 C    0.967
    42   1 H    1.003 --    23 C    0.985
 ---------------------------------------------------------------------------

           -------------------------------------------------
          | TOTAL ENERGY              -83.624097411465 Eh   |
          | GRADIENT NORM               0.000579794361 Eh/α |
          | HOMO-LUMO GAP               0.086492951862 eV   |
           -------------------------------------------------

 * finished run on 2023/06/21 at 17:07:49.791
