                         Program Version 5.0.1 -  RELEASE  -
|  1> # ORCA input file
|  2> ! SP r2SCAN-3c CPCM
|  3>
|  4> %maxcore 1875.0
|  5> %pal nprocs 4 end
|  6> %cpcm smd true SMDsolvent "DMSO" end
|  7>
|  8> *xyz -2 1
|  9> C       6.648366    1.060758    0.269806
| 10> O       5.340041    0.532316    0.162109
| 11> C       5.251930   -0.720157   -0.418362
| 12> O       6.278825   -1.280908   -0.790049
| 13> C       3.895000   -1.198695   -0.506745
| 14> N       2.922692   -0.339577   -0.005387
| 15> C       1.682765   -0.688428   -0.066003
| 16> C       0.603405    0.241870    0.476179
| 17> C       1.190190    1.647556    0.645772
| 18> C       0.125259   -0.279227    1.845862
| 19> N      -0.497436    0.340961   -0.500339
| 20> C      -1.549147   -0.657592   -0.420377
| 21> O      -1.218858   -1.938901   -0.438656
| 22> C      -2.799474   -0.157117   -0.388226
| 23> N      -3.164134    1.214951   -0.378657
| 24> N      -4.495195    1.174160   -0.400453
| 25> C      -5.227864    2.416398   -0.393247
| 26> C      -5.004908   -0.033676   -0.418408
| 27> C      -6.439091   -0.415537   -0.456183
| 28> O      -4.009576   -0.960578   -0.414475
| 29> N       1.247921   -1.865682   -0.590985
| 30> C       2.088282   -2.793211   -1.106698
| 31> O       1.661711   -3.858874   -1.580621
| 32> C       3.567450   -2.456910   -1.079823
| 33> O       4.385836   -3.278530   -1.553157
| 34> H       7.281459    0.422928    0.897033
| 35> H       6.562142    2.046412    0.726664
| 36> H       7.118122    1.156424   -0.715864
| 37> H       0.456518    2.313582    1.097833
| 38> H       1.483855    2.051837   -0.323453
| 39> H       2.072453    1.608968    1.285169
| 40> H       0.945271   -0.230619    2.562616
| 41> H      -0.212922   -1.312750    1.771366
| 42> H      -0.696973    0.334657    2.213028
| 43> H      -0.937935    1.251440   -0.391147
| 44> H      -4.508158    3.230378   -0.347346
| 45> H      -5.885380    2.452696    0.474296
| 46> H      -5.826270    2.499752   -1.299687
| 47> H      -6.524358   -1.495316   -0.350919
| 48> H      -6.991706    0.065356    0.351922
| 49> H      -6.903323   -0.116726   -1.398607
| 50> H       0.083211   -1.984386   -0.557621
| 51> **                         ****END OF INPUT****

CARTESIAN COORDINATES (ANGSTROEM)
---------------------------------
  C      6.648366    1.060758    0.269806
  O      5.340041    0.532316    0.162109
  C      5.251930   -0.720157   -0.418362
  O      6.278825   -1.280908   -0.790049
  C      3.895000   -1.198695   -0.506745
  N      2.922692   -0.339577   -0.005387
  C      1.682765   -0.688428   -0.066003
  C      0.603405    0.241870    0.476179
  C      1.190190    1.647556    0.645772
  C      0.125259   -0.279227    1.845862
  N     -0.497436    0.340961   -0.500339
  C     -1.549147   -0.657592   -0.420377
  O     -1.218858   -1.938901   -0.438656
  C     -2.799474   -0.157117   -0.388226
  N     -3.164134    1.214951   -0.378657
  N     -4.495195    1.174160   -0.400453
  C     -5.227864    2.416398   -0.393247
  C     -5.004908   -0.033676   -0.418408
  C     -6.439091   -0.415537   -0.456183
  O     -4.009576   -0.960578   -0.414475
  N      1.247921   -1.865682   -0.590985
  C      2.088282   -2.793211   -1.106698
  O      1.661711   -3.858874   -1.580621
  C      3.567450   -2.456910   -1.079823
  O      4.385836   -3.278530   -1.553157
  H      7.281459    0.422928    0.897033
  H      6.562142    2.046412    0.726664
  H      7.118122    1.156424   -0.715864
  H      0.456518    2.313582    1.097833
  H      1.483855    2.051837   -0.323453
  H      2.072453    1.608968    1.285169
  H      0.945271   -0.230619    2.562616
  H     -0.212922   -1.312750    1.771366
  H     -0.696973    0.334657    2.213028
  H     -0.937935    1.251440   -0.391147
  H     -4.508158    3.230378   -0.347346
  H     -5.885380    2.452696    0.474296
  H     -5.826270    2.499752   -1.299687
  H     -6.524358   -1.495316   -0.350919
  H     -6.991706    0.065356    0.351922
  H     -6.903323   -0.116726   -1.398607
  H      0.083211   -1.984386   -0.557621

 Total Charge           Charge          ....   -2
 Multiplicity           Mult            ....    1
 Number of Electrons    NEL             ....  186
 Basis Dimension        Dim             ....  615

ORBITAL ENERGIES
----------------

  NO   OCC          E(Eh)            E(eV)
   0   2.0000     -18.982879      -516.5504
   1   2.0000     -18.954843      -515.7875
   2   2.0000     -18.890685      -514.0417
   3   2.0000     -18.874255      -513.5946
   4   2.0000     -18.864587      -513.3315
   5   2.0000     -18.858730      -513.1721
   6   2.0000     -14.246602      -387.6697
   7   2.0000     -14.134552      -384.6207
   8   2.0000     -14.133241      -384.5850
   9   2.0000     -14.128367      -384.4524
  10   2.0000     -14.109821      -383.9477
  11   2.0000     -10.110425      -275.1187
  12   2.0000     -10.107935      -275.0509
  13   2.0000     -10.080485      -274.3039
  14   2.0000     -10.059740      -273.7394
  15   2.0000     -10.054933      -273.6086
  16   2.0000     -10.054739      -273.6033
  17   2.0000     -10.054038      -273.5843
  18   2.0000     -10.052756      -273.5494
  19   2.0000     -10.050009      -273.4747
  20   2.0000     -10.046037      -273.3666
  21   2.0000     -10.034230      -273.0453
  22   2.0000     -10.015091      -272.5245
  23   2.0000     -10.000947      -272.1396
  24   2.0000      -9.999610      -272.1032
  25   2.0000      -1.066183       -29.0123
  26   2.0000      -1.022283       -27.8177
  27   2.0000      -0.959384       -26.1062
  28   2.0000      -0.957356       -26.0510
  29   2.0000      -0.932242       -25.3676
  30   2.0000      -0.924097       -25.1460
  31   2.0000      -0.911082       -24.7918
  32   2.0000      -0.893584       -24.3157
  33   2.0000      -0.839179       -22.8352
  34   2.0000      -0.806546       -21.9472
  35   2.0000      -0.792094       -21.5540
  36   2.0000      -0.725357       -19.7380
  37   2.0000      -0.713756       -19.4223
  38   2.0000      -0.685431       -18.6515
  39   2.0000      -0.667587       -18.1660
  40   2.0000      -0.649285       -17.6679
  41   2.0000      -0.639189       -17.3932
  42   2.0000      -0.630515       -17.1572
  43   2.0000      -0.587049       -15.9744
  44   2.0000      -0.567831       -15.4515
  45   2.0000      -0.543485       -14.7890
  46   2.0000      -0.528956       -14.3936
  47   2.0000      -0.507971       -13.8226
  48   2.0000      -0.486617       -13.2415
  49   2.0000      -0.465840       -12.6761
  50   2.0000      -0.463289       -12.6067
  51   2.0000      -0.456565       -12.4238
  52   2.0000      -0.454231       -12.3602
  53   2.0000      -0.430752       -11.7213
  54   2.0000      -0.417722       -11.3668
  55   2.0000      -0.414902       -11.2901
  56   2.0000      -0.407095       -11.0776
  57   2.0000      -0.396958       -10.8018
  58   2.0000      -0.395671       -10.7668
  59   2.0000      -0.389678       -10.6037
  60   2.0000      -0.387319       -10.5395
  61   2.0000      -0.383434       -10.4338
  62   2.0000      -0.376478       -10.2445
  63   2.0000      -0.367794       -10.0082
  64   2.0000      -0.364808        -9.9269
  65   2.0000      -0.360804        -9.8180
  66   2.0000      -0.357021        -9.7150
  67   2.0000      -0.347935        -9.4678
  68   2.0000      -0.344085        -9.3630
  69   2.0000      -0.339809        -9.2467
  70   2.0000      -0.334915        -9.1135
  71   2.0000      -0.333592        -9.0775
  72   2.0000      -0.325061        -8.8454
  73   2.0000      -0.314924        -8.5695
  74   2.0000      -0.308388        -8.3917
  75   2.0000      -0.298090        -8.1115
  76   2.0000      -0.293433        -7.9847
  77   2.0000      -0.290134        -7.8949
  78   2.0000      -0.287130        -7.8132
  79   2.0000      -0.282798        -7.6953
  80   2.0000      -0.281408        -7.6575
  81   2.0000      -0.251947        -6.8558
  82   2.0000      -0.236443        -6.4339
  83   2.0000      -0.219642        -5.9768
  84   2.0000      -0.212337        -5.7780
  85   2.0000      -0.209084        -5.6895
  86   2.0000      -0.203523        -5.5381
  87   2.0000      -0.199214        -5.4209
  88   2.0000      -0.191859        -5.2207
  89   2.0000      -0.182919        -4.9775
  90   2.0000      -0.142699        -3.8830
  91   2.0000      -0.136057        -3.7023
  92   2.0000      -0.071935        -1.9575
  93   0.0000      -0.031030        -0.8444
  94   0.0000      -0.011161        -0.3037
  95   0.0000       0.019642         0.5345
  96   0.0000       0.061468         1.6726
  97   0.0000       0.065805         1.7906

MULLIKEN ATOMIC CHARGES
-----------------------
   0 C :   -0.329893
   1 O :   -0.198500
   2 C :    0.063572
   3 O :   -0.409111
   4 C :   -0.013212
   5 N :   -0.138720
   6 C :   -0.051740
   7 C :    0.408868
   8 C :   -0.630704
   9 C :   -0.650368
  10 N :   -0.414197
  11 C :   -0.229194
  12 O :   -0.622858
  13 C :    0.010855
  14 N :   -0.656837
  15 N :    0.569627
  16 C :   -0.482279
  17 C :    0.128728
  18 C :   -0.625828
  19 O :   -0.094327
  20 N :   -0.039696
  21 C :   -0.060365
  22 O :   -0.428399
  23 C :   -0.141580
  24 O :   -0.372813
  25 H :    0.157502
  26 H :    0.157706
  27 H :    0.158494
  28 H :    0.166921
  29 H :    0.174747
  30 H :    0.181193
  31 H :    0.168756
  32 H :    0.194312
  33 H :    0.177328
  34 H :    0.318755
  35 H :    0.198831
  36 H :    0.191835
  37 H :    0.191634
  38 H :    0.193056
  39 H :    0.188054
  40 H :    0.192543
  41 H :    0.397306
Sum of atomic charges:   -2.0000000

LOEWDIN ATOMIC CHARGES
----------------------
   0 C :   -0.062676
   1 O :   -0.633181
   2 C :    0.381842
   3 O :   -0.489462
   4 C :    0.099495
   5 N :   -0.643849
   6 C :    0.300722
   7 C :    0.080681
   8 C :   -0.367519
   9 C :   -0.373293
  10 N :   -0.719295
  11 C :    0.246888
  12 O :   -0.679447
  13 C :    0.311682
  14 N :   -0.443943
  15 N :   -0.651740
  16 C :   -0.060244
  17 C :    0.363100
  18 C :   -0.328418
  19 O :   -0.462744
  20 N :   -0.551976
  21 C :    0.331186
  22 O :   -0.527933
  23 C :    0.219222
  24 O :   -0.598920
  25 H :    0.168768
  26 H :    0.173898
  27 H :    0.169479
  28 H :    0.157311
  29 H :    0.166568
  30 H :    0.172821
  31 H :    0.161752
  32 H :    0.173610
  33 H :    0.162811
  34 H :    0.281263
  35 H :    0.206497
  36 H :    0.195825
  37 H :    0.195467
  38 H :    0.185127
  39 H :    0.181623
  40 H :    0.180462
  41 H :    0.326541

  Mayer bond orders larger than 0.100000
B(  0-C ,  1-O ) :   0.8596 B(  0-C , 25-H ) :   0.9652 B(  0-C , 26-H ) :   0.9696
B(  0-C , 27-H ) :   0.9656 B(  1-O ,  2-C ) :   1.0298 B(  2-C ,  3-O ) :   1.8987
B(  2-C ,  4-C ) :   1.1062 B(  2-C , 24-O ) :   0.1002 B(  4-C ,  5-N ) :   0.9218
B(  4-C , 23-C ) :   1.0074 B(  4-C , 24-O ) :  -0.1674 B(  5-N ,  6-C ) :   1.8294
B(  5-N ,  7-C ) :  -0.1049 B(  6-C ,  7-C ) :   0.9521 B(  6-C , 20-N ) :   1.2138
B(  7-C ,  8-C ) :   0.8741 B(  7-C ,  9-C ) :   0.8561 B(  7-C , 10-N ) :   0.7211
B(  8-C , 28-H ) :   0.9771 B(  8-C , 29-H ) :   0.9799 B(  8-C , 30-H ) :   0.9768
B(  9-C , 31-H ) :   0.9625 B(  9-C , 32-H ) :   0.9731 B(  9-C , 33-H ) :   0.9816
B( 10-N , 11-C ) :   1.0079 B( 10-N , 13-C ) :   0.1160 B( 10-N , 34-H ) :   0.8648
B( 11-C , 12-O ) :   1.3548 B( 11-C , 13-C ) :   1.4644 B( 12-O , 41-H ) :   0.1712
B( 13-C , 14-N ) :   1.2580 B( 13-C , 17-C ) :   0.1068 B( 13-C , 19-O ) :   0.9378
B( 14-N , 15-N ) :   1.2387 B( 14-N , 16-C ) :   0.1102 B( 14-N , 17-C ) :   0.2959
B( 15-N , 16-C ) :   0.8535 B( 15-N , 17-C ) :   1.5719 B( 16-C , 35-H ) :   0.9546
B( 16-C , 36-H ) :   0.9407 B( 16-C , 37-H ) :   0.9403 B( 17-C , 18-C ) :   0.7907
B( 17-C , 19-O ) :   1.0204 B( 18-C , 38-H ) :   0.9778 B( 18-C , 39-H ) :   0.9673
B( 18-C , 40-H ) :   0.9587 B( 20-N , 21-C ) :   1.0755 B( 20-N , 41-H ) :   0.6462
B( 21-C , 22-O ) :   2.0507 B( 21-C , 23-C ) :   0.8771 B( 23-C , 24-O ) :   1.9963

Dispersion correction           -0.019088560
FINAL SINGLE POINT ENERGY     -1268.812153316133

DIPOLE MOMENT
-------------
                                X             Y             Z
Electronic contribution:     11.00063     -15.30419      -8.14605
Nuclear contribution   :    -19.73593      22.36560      10.95499
                        -----------------------------------------
Total Dipole Moment    :     -8.73530       7.06141       2.80894
                        -----------------------------------------
Magnitude (a.u.)       :     11.57839
Magnitude (Debye)      :     29.42993

Rotational constants in cm-1:     0.017808     0.003151     0.002770
Rotational constants in MHz :   533.856893    94.465304    83.041921

                             ****ORCA TERMINATED NORMALLY****
TOTAL RUN TIME: 0 days 0 hours 1 minutes 42 seconds 3 msec
