   * xtb version 6.5.1 (579679a) compiled by 'ehlert@majestix' on 2022-07-11
          program call               : /lustre/hpc/kemi/ree/PhD/git/ReactivityQM/dep/xtb-6.5.1/bin/xtb --gfn 1 /lustre/hpc/kemi/ree/PhD/git/ReactivityQM/calculations/R02oxygendeprot/reac01prodE10/conf07/R02oxygendeprot_reac01prodE10_conf07_gfn1.xyz --opt --vfukui --chrg -2 --uhf 0 --alpb DMSO

   ID    Z sym.   atoms
    1    6 C      1, 3, 5, 7-10, 12, 14, 17-19, 22, 24
    2    8 O      2, 4, 13, 20, 23, 25
    3    7 N      6, 11, 15, 16, 21
    4    1 H      26-42

      * Solvation model:               ALPB
        Solvent                        DMSO
        Solvent mass                       7.8130E+01 g/mol
          :  Hamiltonian                  GFN1-xTB          :
 * total energy  :   -83.5607030 Eh     change       -0.5576339E-10 Eh
 * total energy  :   -83.5772231 Eh     change       -0.1652012E-01 Eh
 * total energy  :   -83.5841480 Eh     change       -0.6924863E-02 Eh
 * total energy  :   -83.5857146 Eh     change       -0.1566582E-02 Eh
 * total energy  :   -83.5875138 Eh     change       -0.1799208E-02 Eh
 * total energy  :   -83.5884637 Eh     change       -0.9498786E-03 Eh
 * total energy  :   -83.5897127 Eh     change       -0.1248988E-02 Eh
 * total energy  :   -83.5907473 Eh     change       -0.1034633E-02 Eh
 * total energy  :   -83.5913491 Eh     change       -0.6017709E-03 Eh
 * total energy  :   -83.5913986 Eh     change       -0.4955952E-04 Eh
 * total energy  :   -83.5945801 Eh     change       -0.1600915E-04 Eh
 * total energy  :   -83.5945936 Eh     change       -0.1352078E-04 Eh
 * total energy  :   -83.5946052 Eh     change       -0.1154227E-04 Eh
 * total energy  :   -83.5946140 Eh     change       -0.8873866E-05 Eh
 * total energy  :   -83.5946212 Eh     change       -0.7136534E-05 Eh
 * total energy  :   -83.5946284 Eh     change       -0.7255580E-05 Eh
 * total energy  :   -83.5946368 Eh     change       -0.8325810E-05 Eh
 * total energy  :   -83.5946442 Eh     change       -0.7400392E-05 Eh
 * total energy  :   -83.5946489 Eh     change       -0.4773764E-05 Eh
   *** GEOMETRY OPTIMIZATION CONVERGED AFTER 57 ITERATIONS ***

 final structure:
================
42
 xtb: 6.5.1 (579679a)
C            6.64836573181375        1.06075841685091        0.26980597324018
O            5.34004149787606        0.53231578417545        0.16210928174004
C            5.25193048508608       -0.72015676986167       -0.41836156775894
O            6.27882484431268       -1.28090825951223       -0.79004883773676
C            3.89500027568073       -1.19869470715131       -0.50674527275825
N            2.92269165932562       -0.33957675449343       -0.00538681775217
C            1.68276505502672       -0.68842841284834       -0.06600250747998
C            0.60340544091764        0.24186965024539        0.47617947475758
C            1.19018974658497        1.64755601575824        0.64577247427876
C            0.12525882665539       -0.27922651712027        1.84586197778264
N           -0.49743639118131        0.34096063250607       -0.50033908337428
C           -1.54914694828398       -0.65759216374072       -0.42037678861418
O           -1.21885822913653       -1.93890132695829       -0.43865577953165
C           -2.79947369829267       -0.15711650319230       -0.38822630848039
N           -3.16413350060198        1.21495109296911       -0.37865669654657
N           -4.49519476965784        1.17416046244044       -0.40045348451263
C           -5.22786415638592        2.41639759832016       -0.39324654511876
C           -5.00490786191427       -0.03367600620735       -0.41840827934207
C           -6.43909069294884       -0.41553679087195       -0.45618303506908
O           -4.00957646267132       -0.96057782460308       -0.41447472194329
N            1.24792105709366       -1.86568177110582       -0.59098478091297
C            2.08828238428188       -2.79321101037228       -1.10669795421211
O            1.66171118522544       -3.85887410031060       -1.58062064227088
C            3.56745026768625       -2.45691020084819       -1.07982304865052
O            4.38583561077342       -3.27853024919488       -1.55315660173440
H            7.28145927967146        0.42292809353535        0.89703327518305
H            6.56214201375191        2.04641209622132        0.72666445511118
H            7.11812248847598        1.15642388680912       -0.71586367056700
H            0.45651760737013        2.31358225958822        1.09783320319258
H            1.48385480188293        2.05183703121064       -0.32345293429683
H            2.07245325180255        1.60896789443489        1.28516890226972
H            0.94527082689037       -0.23061902913818        2.56261605430084
H           -0.21292190755971       -1.31275024272567        1.77136574696192
H           -0.69697268108722        0.33465659555108        2.21302846911118
H           -0.93793508089937        1.25143964946258       -0.39114726172214
H           -4.50815814313732        3.23037848479626       -0.34734558717630
H           -5.88537992718467        2.45269649626338        0.47429552685801
H           -5.82626956670218        2.49975156051687       -1.29968680522608
H           -6.52435801678732       -1.49531569187953       -0.35091884334567
H           -6.99170564163316        0.06535551676855        0.35192191094920
H           -6.90332288049625       -0.11672604424973       -1.39860713560707
H            0.08321121835455       -1.98438584206162       -0.55762073401265

          :  Hamiltonian                  GFN1-xTB          :
         :: total energy             -83.594648940286 Eh    ::
         :: gradient norm              0.000294400188 Eh/a0 ::
         :: HOMO-LUMO gap              0.909243450710 eV    ::
         :: SCC energy               -84.319975608535 Eh    ::
         :: -> Gsolv                  -0.302949718703 Eh    ::
         :: repulsion energy           0.750927544495 Eh    ::

    * Orbital Energies and Occupations

         #    Occupation            Energy/Eh            Energy/eV
      -------------------------------------------------------------
         1        2.0000           -0.8081352             -21.9905
       ...           ...                  ...                  ...
        56        2.0000           -0.4432147             -12.0605
        57        2.0000           -0.4404374             -11.9849
        58        2.0000           -0.4190881             -11.4040
        59        2.0000           -0.4157458             -11.3130
        60        2.0000           -0.4096776             -11.1479
        61        2.0000           -0.3931879             -10.6992
        62        2.0000           -0.3853243             -10.4852
        63        2.0000           -0.3816832             -10.3861
        64        2.0000           -0.3775992             -10.2750
        65        2.0000           -0.3656459              -9.9497
        66        2.0000           -0.3366196              -9.1599
        67        2.0000           -0.3319910              -9.0339
        68        2.0000           -0.2730181              -7.4292 (HOMO)
        69                         -0.2396040              -6.5200 (LUMO)
        70                         -0.2307614              -6.2793
        71                         -0.1981914              -5.3931
        72                         -0.1639973              -4.4626
        73                         -0.1416607              -3.8548
        74                         -0.1267010              -3.4477
        75                         -0.1187295              -3.2308
        76                         -0.1148404              -3.1250
        77                         -0.0963456              -2.6217
        78                         -0.0921939              -2.5087
        79                         -0.0849492              -2.3116
       ...                                ...                  ...
       134                          0.7760562              21.1176
      -------------------------------------------------------------
                  HL-Gap            0.0334141 Eh            0.9092 eV

Wiberg/Mayer (AO) data.
largest (>0.10) Wiberg bond orders for each atom

     #   Z sym  total        # sym  WBO       # sym  WBO       # sym  WBO
 ---------------------------------------------------------------------------
     1   6 C    3.910 --    27 H    0.987    26 H    0.980    28 H    0.980
                             2 O    0.939
     2   8 O    2.117 --     3 C    0.994     1 C    0.939
     3   6 C    3.846 --     4 O    1.561     5 C    1.161     2 O    0.994
     4   8 O    1.844 --     3 C    1.561
     5   6 C    3.918 --    24 C    1.270     3 C    1.161     6 N    1.135
                            25 O    0.121
     6   7 N    3.007 --     7 C    1.599     5 C    1.135
     7   6 C    3.946 --     6 N    1.599    21 N    1.180     8 C    0.971
     8   6 C    3.966 --     9 C    1.000    10 C    0.979     7 C    0.971
                            11 N    0.956
     9   6 C    3.997 --     8 C    1.000    29 H    0.987    30 H    0.986
                            31 H    0.984
    10   6 C    3.994 --    32 H    0.987    34 H    0.986    33 H    0.982
                             8 C    0.979
    11   7 N    3.036 --    12 C    0.959     8 C    0.956    35 H    0.942
    12   6 C    3.912 --    14 C    1.601    13 O    1.155    11 N    0.959
    13   8 O    1.819 --    12 C    1.155    42 H    0.333    14 C    0.123
    14   6 C    3.755 --    12 C    1.601    15 N    1.065    20 O    0.852
                            13 O    0.123
    15   7 N    2.758 --    16 N    1.161    14 C    1.065    18 C    0.300
    16   7 N    3.641 --    18 C    1.405    15 N    1.161    17 C    0.949
    17   6 C    3.951 --    36 H    0.984    38 H    0.981    37 H    0.981
                            16 N    0.949
    18   6 C    3.877 --    16 N    1.405    20 O    1.048    19 C    1.025
                            15 N    0.300
    19   6 C    3.993 --    18 C    1.025    39 H    0.983    40 H    0.973
                            41 H    0.970
    20   8 O    2.131 --    18 C    1.048    14 C    0.852
    21   7 N    3.381 --    22 C    1.240     7 C    1.180    42 H    0.569
                            23 O    0.138
    22   6 C    3.900 --    23 O    1.519    21 N    1.240    24 C    0.971
    23   8 O    1.795 --    22 C    1.519    21 N    0.138
    24   6 C    3.939 --    25 O    1.496     5 C    1.270    22 C    0.971
    25   8 O    1.793 --    24 C    1.496     5 C    0.121
    26   1 H    1.017 --     1 C    0.980
    27   1 H    1.018 --     1 C    0.987
    28   1 H    1.017 --     1 C    0.980
    29   1 H    1.005 --     9 C    0.987
    30   1 H    1.012 --     9 C    0.986
    31   1 H    1.023 --     9 C    0.984
    32   1 H    1.008 --    10 C    0.987
    33   1 H    1.017 --    10 C    0.982
    34   1 H    1.007 --    10 C    0.986
    35   1 H    0.993 --    11 N    0.942
    36   1 H    1.012 --    17 C    0.984
    37   1 H    1.002 --    17 C    0.981
    38   1 H    1.002 --    17 C    0.981
    39   1 H    1.002 --    19 C    0.983
    40   1 H    1.003 --    19 C    0.973
    41   1 H    1.003 --    19 C    0.970
    42   1 H    0.933 --    21 N    0.569    13 O    0.333
 ---------------------------------------------------------------------------

           -------------------------------------------------
          | TOTAL ENERGY              -83.594648940286 Eh   |
          | GRADIENT NORM               0.000294400188 Eh/α |
          | HOMO-LUMO GAP               0.909243450710 eV   |
           -------------------------------------------------

 * finished run on 2023/06/21 at 17:12:37.277
