   * xtb version 6.5.1 (579679a) compiled by 'ehlert@majestix' on 2022-07-11
          program call               : /lustre/hpc/kemi/ree/PhD/git/ReactivityQM/dep/xtb-6.5.1/bin/xtb --gfn 1 /lustre/hpc/kemi/ree/PhD/git/ReactivityQM/calculations/R03/reac02prodN08/conf05/R03_reac02prodN08_conf05_gfn1.xyz --opt --vfukui --chrg 1 --uhf 0 --alpb DMSO

   ID    Z sym.   atoms
    1    6 C      1, 3, 4, 6, 8-11, 13, 15, 18, 19, 22, 23, 25
    2    8 O      2, 5, 14, 20, 24, 26
    3    7 N      7, 12, 16, 17, 21
    4    1 H      27-46

      * Solvation model:               ALPB
        Solvent                        DMSO
        Solvent mass                       7.8130E+01 g/mol
          :  Hamiltonian                  GFN1-xTB          :
 * total energy  :   -86.1949244 Eh     change       -0.1837606E-09 Eh
 * total energy  :   -86.2135187 Eh     change       -0.1859422E-01 Eh
 * total energy  :   -86.2272251 Eh     change       -0.1370644E-01 Eh
 * total energy  :   -86.2331574 Eh     change       -0.5932356E-02 Eh
 * total energy  :   -86.2385443 Eh     change       -0.5386829E-02 Eh
 * total energy  :   -86.2439605 Eh     change       -0.5416257E-02 Eh
 * total energy  :   -86.2495166 Eh     change       -0.5556094E-02 Eh
 * total energy  :   -86.2537030 Eh     change       -0.4186354E-02 Eh
 * total energy  :   -86.2568428 Eh     change       -0.3139841E-02 Eh
 * total energy  :   -86.2599714 Eh     change       -0.3128561E-02 Eh
 * total energy  :   -86.3181834 Eh     change       -0.1706318E-04 Eh
 * total energy  :   -86.3182008 Eh     change       -0.1741093E-04 Eh
 * total energy  :   -86.3182021 Eh     change       -0.1290409E-05 Eh
 * total energy  :   -86.3182186 Eh     change       -0.1652991E-04 Eh
 * total energy  :   -86.3182302 Eh     change       -0.1160917E-04 Eh
 * total energy  :   -86.3182379 Eh     change       -0.7674390E-05 Eh
 * total energy  :   -86.3182541 Eh     change       -0.1623723E-04 Eh
 * total energy  :   -86.3182629 Eh     change       -0.8793939E-05 Eh
 * total energy  :   -86.3182675 Eh     change       -0.4618229E-05 Eh
   *** GEOMETRY OPTIMIZATION CONVERGED AFTER 110 ITERATIONS ***

 final structure:
================
46
 xtb: 6.5.1 (579679a)
C           -5.15954844318007        0.25603906344958       -0.18537724451020
O           -3.78627174056695        0.76067923558459       -0.25224218174489
C           -3.61563436794453        2.22970417349174       -0.33745788788768
C           -2.20650623475247        2.63966710713341       -0.25406464958961
O           -4.60279232927295        2.85268394454602       -0.48023401569863
C           -2.73419923404001       -0.08403154742263        0.22952732661934
N           -1.72284103601267       -0.23879027340716       -0.63648038401946
C           -0.65630986556998       -0.89389846641370       -0.26503611913059
C            0.47100895579311       -0.95727823294893       -1.28505484582825
C            0.11610926528741       -0.10167326990442       -2.50923269748708
C            0.74520465594864       -2.39353780429515       -1.74028624656851
N            1.67773672212470       -0.39959556857970       -0.67233183484647
C            1.62888643893291        0.77633007186474       -0.00328855118511
O            0.59343590140671        1.36606957224001        0.27146736512035
C            2.96204545150001        1.25949423594818        0.40880123124620
N            3.25891729528812        2.33703524281022        1.06674260058267
N            4.61162739858346        2.34878666181319        1.21100714618917
C            5.06059155888076        1.27717842449201        0.63249325734144
C            6.46299066612412        0.82476054485931        0.51421177706681
O            4.06682863227475        0.54460440889795        0.10425838833839
N           -0.57649597893252       -1.47786181732228        0.96357745003367
C            0.58500134239911       -2.22870742868009        1.45187889413246
C           -1.62422510237224       -1.42743656113891        1.88143677674999
O           -1.57353822671754       -1.98223541539627        2.96612695374914
C           -2.76732060649857       -0.62999531855622        1.46913508192599
O           -3.78306541813342       -0.47887050304161        2.32918467645997
H           -5.53944940396544        0.39396240514004        0.82608432320149
H           -5.73678518235737        0.82493872840013       -0.91138617740420
H           -5.11475164873840       -0.79534301027400       -0.45431886702794
H           -1.76397269438034        2.30772610409205        0.68539535972911
H           -2.14928284459527        3.72273383816422       -0.33760465740095
H           -1.63578763551621        2.16708451405622       -1.05367486128435
H           -0.77611555647664       -0.49547562053128       -2.99194395404541
H           -0.06821050759089        0.92849409573319       -2.20975851348900
H            0.94633036462381       -0.12442524204140       -3.21238369131279
H           -0.17025869589136       -2.82729980646610       -2.13970360071967
H            1.50048452225098       -2.38302985727431       -2.52424799873063
H            1.10349842306991       -3.01644882899247       -0.92596800973867
H            2.56775789425203       -0.76912132474003       -0.96445123649898
H            6.73809870166252        0.74607476857552       -0.53759073043829
H            7.12242822654509        1.53023594729944        1.01462499680932
H            6.57066060126129       -0.16261172743888        0.96292893996400
H            0.41220178216089       -3.29305319664763        1.29239018799598
H            0.68044478582908       -2.03884933080866        2.52171041629657
H            1.48424330081069       -1.90652243462394        0.93987625115375
H           -3.60317013349823       -0.98818950165171        3.14126255588441

          :  Hamiltonian                  GFN1-xTB          :
         :: total energy             -86.318267533997 Eh    ::
         :: gradient norm              0.000981851759 Eh/a0 ::
         :: HOMO-LUMO gap              3.014796208938 eV    ::
         :: SCC energy               -87.163492541089 Eh    ::
         :: -> Gsolv                  -0.106285377035 Eh    ::
         :: repulsion energy           0.876663681141 Eh    ::

    * Orbital Energies and Occupations

         #    Occupation            Energy/Eh            Energy/eV
      -------------------------------------------------------------
         1        2.0000           -0.9415423             -25.6207
       ...           ...                  ...                  ...
        58        2.0000           -0.5314804             -14.4623
        59        2.0000           -0.5225950             -14.2205
        60        2.0000           -0.5146796             -14.0051
        61        2.0000           -0.5119586             -13.9311
        62        2.0000           -0.5022397             -13.6666
        63        2.0000           -0.4928826             -13.4120
        64        2.0000           -0.4882816             -13.2868
        65        2.0000           -0.4872107             -13.2577
        66        2.0000           -0.4795284             -13.0486
        67        2.0000           -0.4702990             -12.7975
        68        2.0000           -0.4602994             -12.5254
        69        2.0000           -0.4581705             -12.4675
        70        2.0000           -0.4530041             -12.3269 (HOMO)
        71                         -0.3422124              -9.3121 (LUMO)
        72                         -0.3324369              -9.0461
        73                         -0.3229899              -8.7890
        74                         -0.3085064              -8.3949
        75                         -0.2623614              -7.1392
        76                         -0.2098585              -5.7105
        77                         -0.2069756              -5.6321
        78                         -0.1870646              -5.0903
        79                         -0.1585619              -4.3147
        80                         -0.1529185              -4.1611
        81                         -0.1436357              -3.9085
       ...                                ...                  ...
       144                          0.7521322              20.4666
      -------------------------------------------------------------
                  HL-Gap            0.1107917 Eh            3.0148 eV

Wiberg/Mayer (AO) data.
largest (>0.10) Wiberg bond orders for each atom

     #   Z sym  total        # sym  WBO       # sym  WBO       # sym  WBO
 ---------------------------------------------------------------------------
     1   6 C    3.763 --    29 H    0.979    27 H    0.976    28 H    0.973
                             2 O    0.782
     2   8 O    2.527 --     6 C    0.806     1 C    0.782     3 C    0.769
     3   6 C    3.760 --     5 O    1.859     4 C    1.039     2 O    0.769
     4   6 C    3.969 --     3 C    1.039    31 H    0.968    30 H    0.938
                            32 H    0.932
     5   8 O    2.092 --     3 C    1.859
     6   6 C    3.808 --    25 C    1.506     7 N    1.240     2 O    0.806
     7   7 N    3.033 --     8 C    1.493     6 C    1.240
     8   6 C    3.920 --     7 N    1.493    21 N    1.220     9 C    0.975
     9   6 C    3.935 --    10 C    0.989    11 C    0.986     8 C    0.975
                            12 N    0.926
    10   6 C    3.987 --     9 C    0.989    33 H    0.984    35 H    0.983
                            34 H    0.979
    11   6 C    3.986 --     9 C    0.986    36 H    0.983    37 H    0.980
                            38 H    0.979
    12   7 N    3.345 --    13 C    1.243     9 C    0.926    39 H    0.885
                            14 O    0.168
    13   6 C    3.912 --    14 O    1.572    12 N    1.243    15 C    1.005
    14   8 O    1.900 --    13 C    1.572    12 N    0.168
    15   6 C    3.876 --    16 N    1.614    20 O    1.047    13 C    1.005
    16   7 N    3.003 --    15 C    1.614    17 N    1.206
    17   7 N    2.982 --    18 C    1.602    16 N    1.206
    18   6 C    3.865 --    17 N    1.602    20 O    1.074    19 C    1.033
    19   6 C    3.985 --    18 C    1.033    41 H    0.982    42 H    0.962
                            40 H    0.961
    20   8 O    2.318 --    18 C    1.074    15 C    1.047
    21   7 N    3.525 --     8 C    1.220    23 C    1.107    22 C    0.919
                            24 O    0.132
    22   6 C    3.906 --    45 H    0.976    44 H    0.972    43 H    0.972
                            21 N    0.919
    23   6 C    3.919 --    24 O    1.587    21 N    1.107    25 C    1.075
    24   8 O    1.927 --    23 C    1.587    21 N    0.132
    25   6 C    3.928 --     6 C    1.506    26 O    1.094    23 C    1.075
    26   8 O    2.068 --    25 C    1.094    46 H    0.793
    27   1 H    1.002 --     1 C    0.976
    28   1 H    0.997 --     1 C    0.973
    29   1 H    0.993 --     1 C    0.979
    30   1 H    1.001 --     4 C    0.938
    31   1 H    0.989 --     4 C    0.968
    32   1 H    1.009 --     4 C    0.932
    33   1 H    1.005 --    10 C    0.984
    34   1 H    1.009 --    10 C    0.979
    35   1 H    0.999 --    10 C    0.983
    36   1 H    0.998 --    11 C    0.983
    37   1 H    0.995 --    11 C    0.980
    38   1 H    0.999 --    11 C    0.979
    39   1 H    0.927 --    12 N    0.885
    40   1 H    0.996 --    19 C    0.961
    41   1 H    0.997 --    19 C    0.982
    42   1 H    0.996 --    19 C    0.962
    43   1 H    0.998 --    22 C    0.972
    44   1 H    1.002 --    22 C    0.972
    45   1 H    1.006 --    22 C    0.976
    46   1 H    0.826 --    26 O    0.793
 ---------------------------------------------------------------------------

           -------------------------------------------------
          | TOTAL ENERGY              -86.318267533997 Eh   |
          | GRADIENT NORM               0.000981851759 Eh/α |
          | HOMO-LUMO GAP               3.014796208938 eV   |
           -------------------------------------------------

 * finished run on 2023/06/20 at 15:42:59.469
