   * xtb version 6.5.1 (579679a) compiled by 'ehlert@majestix' on 2022-07-11
          program call               : /lustre/hpc/kemi/ree/PhD/git/ReactivityQM/dep/xtb-6.5.1/bin/xtb --gfn 1 /lustre/hpc/kemi/ree/PhD/git/ReactivityQM/calculations/R02deprot/reac01prodN08/conf08/R02deprot_reac01prodN08_conf08_gfn1.xyz --opt --vfukui --chrg 0 --uhf 0 --alpb DMSO

   ID    Z sym.   atoms
    1    6 C      1, 3, 5, 7-10, 12, 14, 17-19, 22, 24
    2    8 O      2, 4, 13, 20, 23, 25
    3    7 N      6, 11, 15, 16, 21
    4    1 H      26-42

      * Solvation model:               ALPB
        Solvent                        DMSO
        Solvent mass                       7.8130E+01 g/mol
          :  Hamiltonian                  GFN1-xTB          :
 * total energy  :   -82.9466868 Eh     change       -0.2127223E-09 Eh
 * total energy  :   -82.9645517 Eh     change       -0.1786481E-01 Eh
 * total energy  :   -82.9710810 Eh     change       -0.6529353E-02 Eh
 * total energy  :   -82.9724698 Eh     change       -0.1388795E-02 Eh
 * total energy  :   -82.9736119 Eh     change       -0.1142055E-02 Eh
 * total energy  :   -82.9739904 Eh     change       -0.3785347E-03 Eh
 * total energy  :   -82.9742098 Eh     change       -0.2194321E-03 Eh
 * total energy  :   -82.9743499 Eh     change       -0.1400886E-03 Eh
 * total energy  :   -82.9744690 Eh     change       -0.1190649E-03 Eh
 * total energy  :   -82.9746017 Eh     change       -0.1326961E-03 Eh
 * total energy  :   -82.9758427 Eh     change       -0.4763518E-04 Eh
 * total energy  :   -82.9758901 Eh     change       -0.4742272E-04 Eh
 * total energy  :   -82.9759366 Eh     change       -0.4648784E-04 Eh
 * total energy  :   -82.9759705 Eh     change       -0.3387600E-04 Eh
 * total energy  :   -82.9760067 Eh     change       -0.3623496E-04 Eh
 * total energy  :   -82.9760176 Eh     change       -0.1086573E-04 Eh
 * total energy  :   -82.9760323 Eh     change       -0.1478154E-04 Eh
 * total energy  :   -82.9760391 Eh     change       -0.6720882E-05 Eh
 * total energy  :   -82.9760436 Eh     change       -0.4552041E-05 Eh
   *** GEOMETRY OPTIMIZATION CONVERGED AFTER 47 ITERATIONS ***

 final structure:
================
42
 xtb: 6.5.1 (579679a)
C           -6.74849100216285       -0.41771905565749        0.85190725620620
O           -5.35018877642728       -0.24800411232907        0.62381766565712
C           -5.00787425947800        0.56847991751694       -0.37916249493859
O           -5.84753084517514        1.13633334055697       -1.06396105681828
C           -3.55685720826922        0.70719359152006       -0.57197253938572
N           -2.73883407007366        0.01386121599824        0.28047623922281
C           -1.44829366730058        0.14701574388533        0.08311053581022
C           -0.55210074992009       -0.63241434009913        1.03915296872706
C           -0.74481225876503       -0.10916410019802        2.46737355342557
C           -0.88079830500911       -2.12698066102380        0.95190577085870
N            0.82441248273678       -0.39347375412585        0.59792394217743
C            1.90909508360468       -0.90335487746840        1.16208368613293
O            1.97385105264556       -1.64147968568342        2.12799489801810
C            3.15879239292972       -0.45704364982297        0.43746135988229
N            3.24713063031676        0.32226621920983       -0.59884999007104
N            4.56684361596552        0.40016084599549       -0.86274939056938
C            5.03402986085880        1.18001518686821       -1.98811657259964
C            5.24129830150738       -0.32510391505714        0.00329940326977
C            6.69205011889831       -0.55764183373872        0.09981968904108
O            4.37731101090435       -0.87199387741561        0.83232867699046
N           -0.83920684015099        0.87769992810111       -0.84367514237829
C           -1.57638657872500        1.60491588264408       -1.73588893801037
O           -1.04804395866378        2.29905299062095       -2.61525578930155
C           -3.03642118592264        1.49883481567568       -1.57177099300503
O           -3.79869457205186        2.19998762834304       -2.43713359514321
H           -7.21555718002695        0.54519196321432        1.07436318260604
H           -6.84873415275061       -1.08930341163728        1.70258313238398
H           -7.22643224952838       -0.85226345395928       -0.02991349620717
H           -0.15845341644671       -0.69397866100086        3.17410508241324
H           -0.43785538297812        0.93429311627674        2.52769866916833
H           -1.80057234241302       -0.18465089533065        2.72617124927143
H           -0.30696077390935       -2.69258431684090        1.68389456466457
H           -0.65332108388837       -2.50071124029660       -0.04565829006400
H           -1.94455875560837       -2.26053369559389        1.14653570407404
H            0.88821934912734        0.22917067589224       -0.21214438096486
H            6.07633062814290        1.43660064546832       -1.82345043511362
H            4.93553459721934        0.58293214710317       -2.89432040038028
H            4.42298563708981        2.07727191542390       -2.06199073215566
H            6.92156063487559       -1.01683662203066        1.05948969924498
H            7.01110730743352       -1.22637557916005       -0.70182612609041
H            7.23562877965107        0.38013380987210       -0.00761938576126
H           -4.74920186826332        2.06020015829059       -2.24143618029099

          :  Hamiltonian                  GFN1-xTB          :
         :: total energy             -82.976043622725 Eh    ::
         :: gradient norm              0.000498803711 Eh/a0 ::
         :: HOMO-LUMO gap              0.790142589204 eV    ::
         :: SCC energy               -83.755803708444 Eh    ::
         :: -> Gsolv                  -0.096542276121 Eh    ::
         :: repulsion energy           0.804576815253 Eh    ::

    * Orbital Energies and Occupations

         #    Occupation            Energy/Eh            Energy/eV
      -------------------------------------------------------------
         1        2.0000           -0.9310858             -25.3361
       ...           ...                  ...                  ...
        55        2.0000           -0.5016559             -13.6508
        56        2.0000           -0.4957698             -13.4906
        57        2.0000           -0.4888209             -13.3015
        58        2.0000           -0.4853890             -13.2081
        59        2.0000           -0.4809049             -13.0861
        60        2.0000           -0.4713975             -12.8274
        61        2.0000           -0.4573096             -12.4440
        62        2.0000           -0.4549918             -12.3810
        63        2.0000           -0.4429342             -12.0529
        64        2.0000           -0.4275930             -11.6354
        65        2.0000           -0.4093453             -11.1389
        66        2.0000           -0.3814342             -10.3794
        67        2.0000           -0.3770790             -10.2608 (HOMO)
        68        0.0000           -0.3480418              -9.4707 (LUMO)
        69                         -0.3388726              -9.2212
        70                         -0.2859402              -7.7808
        71                         -0.2354434              -6.4067
        72                         -0.2272008              -6.1824
        73                         -0.1978098              -5.3827
        74                         -0.1835421              -4.9944
        75                         -0.1712073              -4.6588
        76                         -0.1296019              -3.5266
        77                         -0.1219170              -3.3175
        78                         -0.1178129              -3.2059
       ...                                ...                  ...
       134                          0.7273907              19.7933
      -------------------------------------------------------------
                  HL-Gap            0.0290372 Eh            0.7901 eV

Wiberg/Mayer (AO) data.
largest (>0.10) Wiberg bond orders for each atom

     #   Z sym  total        # sym  WBO       # sym  WBO       # sym  WBO
 ---------------------------------------------------------------------------
     1   6 C    3.881 --    27 H    0.987    26 H    0.980    28 H    0.980
                             2 O    0.906
     2   8 O    2.195 --     3 C    1.102     1 C    0.906     4 O    0.120
     3   6 C    3.837 --     4 O    1.590     2 O    1.102     5 C    1.046
     4   8 O    1.921 --     3 C    1.590     2 O    0.120
     5   6 C    3.962 --    24 C    1.463     6 N    1.198     3 C    1.046
     6   7 N    2.994 --     7 C    1.466     5 C    1.198
     7   6 C    3.960 --     6 N    1.466    21 N    1.372     8 C    0.968
     8   6 C    3.915 --    10 C    0.984     9 C    0.983     7 C    0.968
                            11 N    0.909
     9   6 C    3.992 --    30 H    0.986    29 H    0.984    31 H    0.983
                             8 C    0.983
    10   6 C    3.992 --    33 H    0.986     8 C    0.984    32 H    0.984
                            34 H    0.983
    11   7 N    3.420 --    12 C    1.337     8 C    0.909    35 H    0.856
                            13 O    0.209
    12   6 C    3.931 --    13 O    1.577    11 N    1.337    14 C    0.945
    13   8 O    1.911 --    12 C    1.577    11 N    0.209
    14   6 C    3.830 --    15 N    1.610    20 O    1.062    12 C    0.945
    15   7 N    2.983 --    14 C    1.610    16 N    1.143
    16   7 N    3.631 --    18 C    1.428    15 N    1.143    17 C    0.913
    17   6 C    3.889 --    36 H    0.979    38 H    0.973    37 H    0.964
                            16 N    0.913
    18   6 C    3.846 --    16 N    1.428    20 O    1.155    19 C    1.039
    19   6 C    3.963 --    18 C    1.039    39 H    0.971    41 H    0.956
                            40 H    0.940
    20   8 O    2.384 --    18 C    1.155    14 C    1.062
    21   7 N    3.021 --     7 C    1.372    22 C    1.213    23 O    0.126
    22   6 C    3.927 --    23 O    1.513    21 N    1.213    24 C    1.066
    23   8 O    1.802 --    22 C    1.513    21 N    0.126
    24   6 C    3.906 --     5 C    1.463    25 O    1.083    22 C    1.066
    25   8 O    2.058 --    24 C    1.083    42 H    0.801
    26   1 H    1.010 --     1 C    0.980
    27   1 H    1.013 --     1 C    0.987
    28   1 H    1.009 --     1 C    0.980
    29   1 H    1.008 --     9 C    0.984
    30   1 H    1.004 --     9 C    0.986
    31   1 H    1.012 --     9 C    0.983
    32   1 H    1.008 --    10 C    0.984
    33   1 H    1.004 --    10 C    0.986
    34   1 H    1.014 --    10 C    0.983
    35   1 H    0.972 --    11 N    0.856
    36   1 H    0.991 --    17 C    0.979
    37   1 H    0.990 --    17 C    0.964
    38   1 H    0.992 --    17 C    0.973
    39   1 H    0.987 --    19 C    0.971
    40   1 H    0.986 --    19 C    0.940
    41   1 H    0.988 --    19 C    0.956
    42   1 H    0.872 --    25 O    0.801
 ---------------------------------------------------------------------------

           -------------------------------------------------
          | TOTAL ENERGY              -82.976043622725 Eh   |
          | GRADIENT NORM               0.000498803711 Eh/α |
          | HOMO-LUMO GAP               0.790142589204 eV   |
           -------------------------------------------------

 * finished run on 2023/06/20 at 18:15:36.267
