   * xtb version 6.5.1 (579679a) compiled by 'ehlert@majestix' on 2022-07-11
          program call               : /lustre/hpc/kemi/ree/PhD/git/ReactivityQM/dep/xtb-6.5.1/bin/xtb --gfn 1 /lustre/hpc/kemi/ree/PhD/git/ReactivityQM/calculations/R02/reac01prodE11/conf10/R02_reac01prodE11_conf10_gfn1.xyz --opt --vfukui --chrg -1 --uhf 0 --alpb DMSO

   ID    Z sym.   atoms
    1    6 C      1, 3, 5, 7-10, 12, 14, 17-19, 22, 24
    2    8 O      2, 4, 13, 20, 23, 25
    3    7 N      6, 11, 15, 16, 21
    4    1 H      26-43

      * Solvation model:               ALPB
        Solvent                        DMSO
        Solvent mass                       7.8130E+01 g/mol
          :  Hamiltonian                  GFN1-xTB          :
 * total energy  :   -83.8680516 Eh     change       -0.2369234E-09 Eh
 * total energy  :   -83.8771844 Eh     change       -0.9132731E-02 Eh
 * total energy  :   -83.8803853 Eh     change       -0.3200898E-02 Eh
 * total energy  :   -83.8810661 Eh     change       -0.6808722E-03 Eh
 * total energy  :   -83.8815799 Eh     change       -0.5138088E-03 Eh
 * total energy  :   -83.8818359 Eh     change       -0.2559395E-03 Eh
 * total energy  :   -83.8820039 Eh     change       -0.1680586E-03 Eh
 * total energy  :   -83.8820749 Eh     change       -0.7097433E-04 Eh
 * total energy  :   -83.8821073 Eh     change       -0.3235015E-04 Eh
 * total energy  :   -83.8821277 Eh     change       -0.2040000E-04 Eh
 * total energy  :   -83.8822400 Eh     change       -0.8689168E-05 Eh
 * total energy  :   -83.8822517 Eh     change       -0.1166580E-04 Eh
 * total energy  :   -83.8822671 Eh     change       -0.1546158E-04 Eh
 * total energy  :   -83.8822853 Eh     change       -0.1815445E-04 Eh
 * total energy  :   -83.8822979 Eh     change       -0.1257768E-04 Eh
 * total energy  :   -83.8823035 Eh     change       -0.5610124E-05 Eh
 * total energy  :   -83.8823128 Eh     change       -0.9313570E-05 Eh
 * total energy  :   -83.8823188 Eh     change       -0.6032451E-05 Eh
 * total energy  :   -83.8823234 Eh     change       -0.4577131E-05 Eh
   *** GEOMETRY OPTIMIZATION CONVERGED AFTER 25 ITERATIONS ***

 final structure:
================
43
 xtb: 6.5.1 (579679a)
C           -6.04360950177283        2.21410946236449        1.08589366253024
O           -4.89637575330453        1.45575464908359        0.70310376568146
C           -5.00609675931375        0.75071285912020       -0.43105535864313
O           -6.01304992267025        0.75121550676018       -1.10586080686816
C           -3.76890616108638       -0.01232422068606       -0.73865131109834
N           -2.72481950044667        0.14490291950765        0.14007562617543
C           -1.62037376826340       -0.49543234353294       -0.05343616388676
C           -0.48399799256108       -0.38739332269966        0.94309125850578
C           -0.51748622268671        0.98634402916325        1.62757377450164
C           -0.69867369366576       -1.51520909600058        1.96816444799430
N            0.75563385415660       -0.59088343859100        0.19998587746193
C            2.00265905595114       -0.49644327438515        0.88263075385709
O            2.09901902604552       -0.70779910386905        2.10279885502137
C            3.05270223770615       -0.19856845206951       -0.01191446374712
N            2.90516033219657        0.06795063062063       -1.30670592698699
N            4.04712004577242        0.31296360231735       -1.86699901558945
C            5.08587686444244        0.19553609489343       -0.82981082769764
C            6.06471250093410       -0.92987079685740       -1.20174117071406
C            5.81893596425524        1.53728330703823       -0.67779716826352
O            4.39725153389368       -0.12843261616968        0.37003152745346
N           -1.44775137532253       -1.34777887395561       -1.10652621397793
C           -2.41379111397463       -1.57875835264094       -2.05285931012907
O           -2.24937576660236       -2.34260952639531       -2.99886541908139
C           -3.64825586729979       -0.84245698827412       -1.82596412109000
O           -4.62399638328112       -1.04460772107468       -2.72626517841458
H           -5.79311329145736        2.71275969988563        2.02004310282627
H           -6.90276077779057        1.55381037055139        1.22991414576722
H           -6.28377573431813        2.95252068825967        0.31650003495608
H           -1.48629114332191        1.13474200576864        2.10244228033958
H           -0.36265872871012        1.77447175583128        0.89155888007891
H            0.26424471460052        1.04216829990058        2.38351590204408
H           -1.70322869638042       -1.44136990087894        2.38313555463268
H            0.02477977604183       -1.43702803387999        2.77708615021910
H           -0.58524052239634       -2.48258168213556        1.48106579458395
H            0.77569779833376       -0.06569649737828       -0.66921369344729
H            6.55275849231188       -0.69555920175673       -2.14556515402371
H            6.81768002059262       -1.04489782527991       -0.42403256140195
H            5.51589032896283       -1.86442608445634       -1.30665867036319
H            6.28797868439567        1.80742205669910       -1.62170497238394
H            5.10224007009884        2.30910554913682       -0.40184218647623
H            6.58055889370337        1.46507908163908        0.09664450135733
H           -0.56849208657450       -1.84026329117756       -1.20285969198840
H           -4.30877943119175       -1.67846292439397       -3.39477750971459

          :  Hamiltonian                  GFN1-xTB          :
         :: total energy             -83.882323413950 Eh    ::
         :: gradient norm              0.000615679223 Eh/a0 ::
         :: HOMO-LUMO gap              0.172270558817 eV    ::
         :: SCC energy               -84.640450598581 Eh    ::
         :: -> Gsolv                  -0.108783047299 Eh    ::
         :: repulsion energy           0.783986659191 Eh    ::

    * Orbital Energies and Occupations

         #    Occupation            Energy/Eh            Energy/eV
      -------------------------------------------------------------
         1        2.0000           -0.8314760             -22.6256
       ...           ...                  ...                  ...
        56        2.0000           -0.4768387             -12.9754
        57        2.0000           -0.4759563             -12.9514
        58        2.0000           -0.4729684             -12.8701
        59        2.0000           -0.4515693             -12.2878
        60        2.0000           -0.4507395             -12.2652
        61        2.0000           -0.4421902             -12.0326
        62        2.0000           -0.4388322             -11.9412
        63        2.0000           -0.4248316             -11.5603
        64        2.0000           -0.4212034             -11.4615
        65        2.0000           -0.4137964             -11.2600
        66        2.0000           -0.4004074             -10.8956
        67        2.0000           -0.3775581             -10.2739
        68        1.9310           -0.3223164              -8.7707 (HOMO)
        69        0.0690           -0.3159855              -8.5984 (LUMO)
        70                         -0.2720528              -7.4029
        71                         -0.2466510              -6.7117
        72                         -0.2313344              -6.2949
        73                         -0.1482189              -4.0332
        74                         -0.1355115              -3.6875
        75                         -0.1340404              -3.6474
        76                         -0.1112688              -3.0278
        77                         -0.1087243              -2.9585
        78                         -0.1054591              -2.8697
        79                         -0.0995363              -2.7085
       ...                                ...                  ...
       136                          0.7377974              20.0765
      -------------------------------------------------------------
                  HL-Gap            0.0063308 Eh            0.1723 eV

Wiberg/Mayer (AO) data.
largest (>0.10) Wiberg bond orders for each atom

     #   Z sym  total        # sym  WBO       # sym  WBO       # sym  WBO
 ---------------------------------------------------------------------------
     1   6 C    3.878 --    26 H    0.986    27 H    0.980    28 H    0.980
                             2 O    0.904
     2   8 O    2.186 --     3 C    1.096     1 C    0.904     4 O    0.129
     3   6 C    3.833 --     4 O    1.644     2 O    1.096     5 C    1.015
     4   8 O    1.902 --     3 C    1.644     2 O    0.129
     5   6 C    3.943 --    24 C    1.479     6 N    1.179     3 C    1.015
     6   7 N    3.018 --     7 C    1.582     5 C    1.179
     7   6 C    3.915 --     6 N    1.582    21 N    1.165     8 C    0.980
     8   6 C    3.956 --     9 C    0.986     7 C    0.980    10 C    0.973
                            11 N    0.959
     9   6 C    3.992 --    30 H    0.986     8 C    0.986    29 H    0.985
                            31 H    0.983
    10   6 C    3.990 --    32 H    0.988    34 H    0.986    33 H    0.975
                             8 C    0.973
    11   7 N    3.145 --    12 C    1.026     8 C    0.959    35 H    0.919
    12   6 C    3.913 --    13 O    1.482    14 C    1.226    11 N    1.026
    13   8 O    1.819 --    12 C    1.482
    14   6 C    3.819 --    15 N    1.375    12 C    1.226    20 O    0.946
                            16 N    0.141
    15   7 N    3.050 --    16 N    1.482    14 C    1.375
    16   7 N    2.857 --    15 N    1.482    17 C    0.980    14 C    0.141
    17   6 C    3.898 --    16 N    0.980    19 C    0.978    18 C    0.977
                            20 O    0.925
    18   6 C    3.991 --    36 H    0.988    37 H    0.986    38 H    0.985
                            17 C    0.977
    19   6 C    3.991 --    39 H    0.988    41 H    0.986    40 H    0.985
                            17 C    0.978
    20   8 O    2.055 --    14 C    0.946    17 C    0.925
    21   7 N    3.456 --     7 C    1.165    22 C    1.139    42 H    0.879
                            23 O    0.130
    22   6 C    3.900 --    23 O    1.552    21 N    1.139    24 C    1.081
    23   8 O    1.872 --    22 C    1.552    21 N    0.130
    24   6 C    3.892 --     5 C    1.479    25 O    1.094    22 C    1.081
    25   8 O    2.069 --    24 C    1.094    43 H    0.814
    26   1 H    1.012 --     1 C    0.986
    27   1 H    1.008 --     1 C    0.980
    28   1 H    1.008 --     1 C    0.980
    29   1 H    1.013 --     9 C    0.985
    30   1 H    1.005 --     9 C    0.986
    31   1 H    1.011 --     9 C    0.983
    32   1 H    1.006 --    10 C    0.988
    33   1 H    1.022 --    10 C    0.975
    34   1 H    1.006 --    10 C    0.986
    35   1 H    0.982 --    11 N    0.919
    36   1 H    1.009 --    18 C    0.988
    37   1 H    1.007 --    18 C    0.986
    38   1 H    1.013 --    18 C    0.985
    39   1 H    1.009 --    19 C    0.988
    40   1 H    1.013 --    19 C    0.985
    41   1 H    1.007 --    19 C    0.986
    42   1 H    0.940 --    21 N    0.879
    43   1 H    0.853 --    25 O    0.814
 ---------------------------------------------------------------------------

           -------------------------------------------------
          | TOTAL ENERGY              -83.882323413950 Eh   |
          | GRADIENT NORM               0.000615679223 Eh/α |
          | HOMO-LUMO GAP               0.172270558817 eV   |
           -------------------------------------------------

 * finished run on 2023/06/20 at 15:13:25.345
