   * xtb version 6.5.1 (579679a) compiled by 'ehlert@majestix' on 2022-07-11
          program call               : /lustre/hpc/kemi/ree/PhD/git/ReactivityQM/dep/xtb-6.5.1/bin/xtb --gfn 1 /lustre/hpc/kemi/ree/PhD/git/ReactivityQM/calculations/RaltegravirCLI/reac01prodN05/conf01/RaltegravirCLI_reac01prodN05_conf01_gfn1.xyz --opt --vfukui --chrg 1 --uhf 0 --alpb DMSO

   ID    Z sym.   atoms
    1    6 C      1, 2, 5-7
    2    7 N      3, 4
    3    8 O      8, 10
    4   17 Cl     9
    5    1 H      11-16

      * Solvation model:               ALPB
        Solvent                        DMSO
        Solvent mass                       7.8130E+01 g/mol
          :  Hamiltonian                  GFN1-xTB          :
 * total energy  :   -33.3801729 Eh     change       -0.1932676E-11 Eh
 * total energy  :   -33.3882571 Eh     change       -0.8084190E-02 Eh
 * total energy  :   -33.3913645 Eh     change       -0.3107433E-02 Eh
 * total energy  :   -33.3916984 Eh     change       -0.3338234E-03 Eh
 * total energy  :   -33.3918764 Eh     change       -0.1780635E-03 Eh
 * total energy  :   -33.3919348 Eh     change       -0.5832688E-04 Eh
 * total energy  :   -33.3919988 Eh     change       -0.6402641E-04 Eh
 * total energy  :   -33.3920307 Eh     change       -0.3186553E-04 Eh
 * total energy  :   -33.3920440 Eh     change       -0.1333136E-04 Eh
 * total energy  :   -33.3920531 Eh     change       -0.9078515E-05 Eh
 * total energy  :   -33.3920975 Eh     change       -0.1330244E-04 Eh
 * total energy  :   -33.3921100 Eh     change       -0.1253705E-04 Eh
 * total energy  :   -33.3921250 Eh     change       -0.1501535E-04 Eh
 * total energy  :   -33.3921335 Eh     change       -0.8504220E-05 Eh
 * total energy  :   -33.3921390 Eh     change       -0.5487609E-05 Eh
 * total energy  :   -33.3921436 Eh     change       -0.4627232E-05 Eh
 * total energy  :   -33.3921437 Eh     change       -0.7101771E-07 Eh
 * total energy  :   -33.3921475 Eh     change       -0.3803625E-05 Eh
 * total energy  :   -33.3921496 Eh     change       -0.2090501E-05 Eh
   *** GEOMETRY OPTIMIZATION CONVERGED AFTER 22 ITERATIONS ***

 final structure:
================
16
 xtb: 6.5.1 (579679a)
C            2.70029546488351       -0.27548426069296       -0.08103697812917
C            1.28291724279207       -0.23310834482242       -0.40038455969169
N            0.71977904272226       -0.66077038850455       -1.58259716333903
N           -0.52488457825209       -0.49244153466119       -1.50023978262654
C           -0.85485222230804        0.08243521576265       -0.24886709571020
C           -1.84805538967465       -0.73523013766817        0.58096162982457
C           -1.53933030652621        1.48970688531626       -0.55665745635317
O           -2.56312971645034        1.48863362536115       -1.14870205538872
Cl          -0.72554918299260        2.82932346459794        0.03660958245700
O            0.38567257707513        0.21226399506110        0.39970672595584
H            2.90759898221741        0.23818164821493        0.85479415631628
H            3.27701959268366        0.15152225374873       -0.90412147677203
H            3.00447903628864       -1.32462345743380       -0.00394265575834
H           -2.78799304715888       -0.79800880390539        0.03605406697140
H           -1.43381252331972       -1.72852960864064        0.73857480118961
H           -2.00015497198017       -0.24386955173360        1.53903726105419

          :  Hamiltonian                  GFN1-xTB          :
         :: total energy             -33.392149594613 Eh    ::
         :: gradient norm              0.000477306446 Eh/a0 ::
         :: HOMO-LUMO gap              2.002652675812 eV    ::
         :: SCC energy               -33.670803986986 Eh    ::
         :: -> Gsolv                  -0.085849068474 Eh    ::
         :: repulsion energy           0.286592078829 Eh    ::

    * Orbital Energies and Occupations

         #    Occupation            Energy/Eh            Energy/eV
      -------------------------------------------------------------
         1        2.0000           -1.0030048             -27.2931
       ...           ...                  ...                  ...
        15        2.0000           -0.6378069             -17.3556
        16        2.0000           -0.6144583             -16.7203
        17        2.0000           -0.6057586             -16.4835
        18        2.0000           -0.6037999             -16.4302
        19        2.0000           -0.5864849             -15.9591
        20        2.0000           -0.5828674             -15.8606
        21        2.0000           -0.5759457             -15.6723
        22        2.0000           -0.5713568             -15.5474
        23        2.0000           -0.5681114             -15.4591
        24        2.0000           -0.5352457             -14.5648
        25        2.0000           -0.5327262             -14.4962
        26        2.0000           -0.5243503             -14.2683
        27        2.0000           -0.5128041             -13.9541 (HOMO)
        28                         -0.4392079             -11.9515 (LUMO)
        29                         -0.3559337              -9.6854
        30                         -0.3404612              -9.2644
        31                         -0.2496854              -6.7943
        32                         -0.1823800              -4.9628
        33                         -0.1648109              -4.4847
        34                         -0.1347763              -3.6674
        35                         -0.1279423              -3.4815
        36                         -0.1265615              -3.4439
        37                         -0.1142479              -3.1088
        38                         -0.1108387              -3.0161
       ...                                ...                  ...
        57                          0.7154947              19.4696
      -------------------------------------------------------------
                  HL-Gap            0.0735961 Eh            2.0027 eV

Wiberg/Mayer (AO) data.
largest (>0.10) Wiberg bond orders for each atom

     #   Z sym  total        # sym  WBO       # sym  WBO       # sym  WBO
 ---------------------------------------------------------------------------
     1   6 C    3.961 --     2 C    1.092    11 H    0.969    12 H    0.925
                            13 H    0.901
     2   6 C    3.798 --    10 O    1.293     3 N    1.179     1 C    1.092
     3   7 N    3.024 --     4 N    1.677     2 C    1.179
     4   7 N    3.013 --     3 N    1.677     5 C    1.077
     5   6 C    3.842 --     4 N    1.077     6 C    0.906    10 O    0.905
                             7 C    0.789
     6   6 C    3.941 --    16 H    0.977    14 H    0.974    15 H    0.973
                             5 C    0.906
     7   6 C    3.877 --     8 O    1.832     9 Cl   1.148     5 C    0.789
     8   8 O    2.131 --     7 C    1.832     9 Cl   0.158
     9  17 Cl   1.399 --     7 C    1.148     8 O    0.158
    10   8 O    2.380 --     2 C    1.293     5 C    0.905
    11   1 H    0.983 --     1 C    0.969
    12   1 H    0.978 --     1 C    0.925
    13   1 H    0.972 --     1 C    0.901
    14   1 H    0.992 --     6 C    0.974
    15   1 H    0.988 --     6 C    0.973
    16   1 H    0.989 --     6 C    0.977
 ---------------------------------------------------------------------------

           -------------------------------------------------
          | TOTAL ENERGY              -33.392149594613 Eh   |
          | GRADIENT NORM               0.000477306446 Eh/α |
          | HOMO-LUMO GAP               2.002652675812 eV   |
           -------------------------------------------------

 * finished run on 2023/06/20 at 14:54:59.386
