   * xtb version 6.5.1 (579679a) compiled by 'ehlert@majestix' on 2022-07-11
          program call               : /lustre/hpc/kemi/ree/PhD/git/ReactivityQM/dep/xtb-6.5.1/bin/xtb --gfn 1 /lustre/hpc/kemi/ree/PhD/git/ReactivityQM/calculations/R02/reac01prodN09/conf17/R02_reac01prodN09_conf17_gfn1.xyz --opt --vfukui --chrg 1 --uhf 0 --alpb DMSO

   ID    Z sym.   atoms
    1    6 C      1, 3, 5, 6, 8-11, 13, 15, 18, 19, 22, 24
    2    8 O      2, 4, 14, 20, 23, 25
    3    7 N      7, 12, 16, 17, 21
    4    1 H      26-43

      * Solvation model:               ALPB
        Solvent                        DMSO
        Solvent mass                       7.8130E+01 g/mol
          :  Hamiltonian                  GFN1-xTB          :
 * total energy  :   -83.0955015 Eh     change       -0.3126388E-11 Eh
 * total energy  :   -83.1158578 Eh     change       -0.2035622E-01 Eh
 * total energy  :   -83.1250765 Eh     change       -0.9218723E-02 Eh
 * total energy  :   -83.1271021 Eh     change       -0.2025632E-02 Eh
 * total energy  :   -83.1281007 Eh     change       -0.9985737E-03 Eh
 * total energy  :   -83.1283739 Eh     change       -0.2731965E-03 Eh
 * total energy  :   -83.1285824 Eh     change       -0.2085129E-03 Eh
 * total energy  :   -83.1286777 Eh     change       -0.9528437E-04 Eh
 * total energy  :   -83.1287392 Eh     change       -0.6153962E-04 Eh
 * total energy  :   -83.1287999 Eh     change       -0.6067842E-04 Eh
 * total energy  :   -83.1297526 Eh     change       -0.7843536E-05 Eh
 * total energy  :   -83.1297574 Eh     change       -0.4769222E-05 Eh
 * total energy  :   -83.1297679 Eh     change       -0.1044520E-04 Eh
 * total energy  :   -83.1297736 Eh     change       -0.5726900E-05 Eh
 * total energy  :   -83.1297841 Eh     change       -0.1047815E-04 Eh
 * total energy  :   -83.1297880 Eh     change       -0.3978111E-05 Eh
 * total energy  :   -83.1297928 Eh     change       -0.4745203E-05 Eh
 * total energy  :   -83.1297986 Eh     change       -0.5865907E-05 Eh
 * total energy  :   -83.1298025 Eh     change       -0.3858181E-05 Eh
   *** GEOMETRY OPTIMIZATION CONVERGED AFTER 44 ITERATIONS ***

 final structure:
================
43
 xtb: 6.5.1 (579679a)
C           -3.39633063572704        2.47037338681212       -0.88944920153463
O           -2.88979941552329        1.16944782439978       -0.49619929650478
C           -2.96406592347365        0.20311747129414       -1.34699106397752
O           -3.42431807721945        0.17495536257527       -2.43957095936546
C           -2.29068900983610       -1.15168081797489       -0.72304470582613
C           -2.14275738766580       -2.14904631542937       -1.87264830714290
N           -1.02815273908012       -0.72768151843504       -0.22237935712768
C           -0.85676688576649       -0.42919571413745        1.00772149316979
C            0.49445922688941        0.03845534585880        1.50198772701531
C            0.37097711538167        1.45674284191206        2.08044618778629
C            1.02944609483233       -0.94963234195701        2.55054153488140
N            1.38023875194726        0.05741159857894        0.34627945460936
C            2.68071168495006        0.42097738044949        0.40585643564308
O            3.27226654055988        0.76280308060035        1.41300745462585
C            3.30708334724865        0.34944761874063       -0.93685833329564
N            2.72204924461055       -0.00964529553037       -2.04059721327910
N            3.65935030996897        0.07121464989052       -3.02509301430664
C            4.75787877116066        0.47450844980902       -2.45883955296483
C            6.06954217670221        0.71958682803190       -3.09794418902666
O            4.59728660643442        0.66680756597590       -1.14167948017300
N           -1.86070854664869       -0.52762105232225        1.95710354376948
C           -3.08826007982199       -1.04906647206022        1.70705454989372
O           -3.97205551620534       -1.20296949752818        2.51703960740251
C           -3.27205449405268       -1.48449743561547        0.28903148651290
O           -4.35539168185651       -2.08933004208935       -0.00307589404199
H           -4.33423627587090        2.34635852786887       -1.43090475683805
H           -2.65432492627030        2.96283640376436       -1.51795919263127
H           -3.54406163093030        3.01992201959960        0.03661876532699
H           -1.67217791835524       -3.05333614053040       -1.49314693117983
H           -1.51735178398606       -1.71059281278279       -2.64690573558518
H           -3.12255130573440       -2.38666776241399       -2.28098139064817
H            1.35241517380478        1.79985932112336        2.40432505149790
H           -0.01511775779605        2.13352373934015        1.32066370006392
H           -0.30092867479647        1.45725029270062        2.93542876888760
H            1.99950816819271       -0.60650267879548        2.90693289241446
H            0.34517609384525       -1.00788065229334        3.39387696835739
H            1.13690380392848       -1.93828268145602        2.10796352059726
H            0.98031335747102       -0.20277214853428       -0.54567800921873
H            6.40687128919292        1.73158565233510       -2.87568591085837
H            5.98353606442774        0.58890212852611       -4.17375589710704
H            6.81086864198127        0.02331918542224       -2.70484010793765
H           -1.68830004846609       -0.24021145131485        2.91207511777385
H           -4.96648174844826       -2.18279084440711        0.76363324034149

          :  Hamiltonian                  GFN1-xTB          :
         :: total energy             -83.129802506573 Eh    ::
         :: gradient norm              0.000449107639 Eh/a0 ::
         :: HOMO-LUMO gap              0.728640807290 eV    ::
         :: SCC energy               -83.930977338024 Eh    ::
         :: -> Gsolv                  -0.113070624557 Eh    ::
         :: repulsion energy           0.828590926405 Eh    ::

    * Orbital Energies and Occupations

         #    Occupation            Energy/Eh            Energy/eV
      -------------------------------------------------------------
         1        2.0000           -0.9213229             -25.0705
       ...           ...                  ...                  ...
        55        2.0000           -0.5359554             -14.5841
        56        2.0000           -0.5309877             -14.4489
        57        2.0000           -0.5270568             -14.3419
        58        2.0000           -0.5195743             -14.1383
        59        2.0000           -0.5129418             -13.9579
        60        2.0000           -0.5113677             -13.9150
        61        2.0000           -0.5011941             -13.6382
        62        2.0000           -0.4977403             -13.5442
        63        2.0000           -0.4885926             -13.2953
        64        2.0000           -0.4729411             -12.8694
        65        2.0000           -0.4686146             -12.7517
        66        2.0000           -0.4584697             -12.4756
        67        2.0000           -0.4556455             -12.3987 (HOMO)
        68        0.0000           -0.4288685             -11.6701 (LUMO)
        69                         -0.3406732              -9.2702
        70                         -0.3178580              -8.6494
        71                         -0.3123473              -8.4994
        72                         -0.2724582              -7.4140
        73                         -0.2619487              -7.1280
        74                         -0.2053677              -5.5883
        75                         -0.1683375              -4.5807
        76                         -0.1620481              -4.4096
        77                         -0.1570629              -4.2739
        78                         -0.1534819              -4.1765
       ...                                ...                  ...
       136                          0.7486067              20.3706
      -------------------------------------------------------------
                  HL-Gap            0.0267771 Eh            0.7286 eV

Wiberg/Mayer (AO) data.
largest (>0.10) Wiberg bond orders for each atom

     #   Z sym  total        # sym  WBO       # sym  WBO       # sym  WBO
 ---------------------------------------------------------------------------
     1   6 C    3.814 --    28 H    0.980    26 H    0.979    27 H    0.976
                             2 O    0.834
     2   8 O    2.254 --     3 C    1.223     1 C    0.834     4 O    0.149
     3   6 C    3.857 --     4 O    1.754     2 O    1.223     5 C    0.696
     4   8 O    2.098 --     3 C    1.754     2 O    0.149
     5   6 C    3.954 --    24 C    1.110     7 N    1.019     6 C    0.955
                             3 C    0.696
     6   6 C    3.966 --    30 H    0.980    31 H    0.980    29 H    0.977
                             5 C    0.955
     7   7 N    3.047 --     8 C    1.685     5 C    1.019
     8   6 C    3.911 --     7 N    1.685    21 N    1.099     9 C    0.985
     9   6 C    3.938 --     8 C    0.985    11 C    0.971    10 C    0.971
                            12 N    0.944
    10   6 C    3.984 --    33 H    0.985    34 H    0.982    32 H    0.974
                             9 C    0.971
    11   6 C    3.983 --    37 H    0.984    36 H    0.983    35 H    0.975
                             9 C    0.971
    12   7 N    3.336 --    13 C    1.240     9 C    0.944    38 H    0.879
                            14 O    0.175
    13   6 C    3.915 --    14 O    1.599    12 N    1.240    15 C    0.992
    14   8 O    1.918 --    13 C    1.599    12 N    0.175
    15   6 C    3.877 --    16 N    1.607    20 O    1.066    13 C    0.992
    16   7 N    3.016 --    15 C    1.607    17 N    1.203
    17   7 N    2.980 --    18 C    1.601    16 N    1.203
    18   6 C    3.869 --    17 N    1.601    20 O    1.084    19 C    1.032
    19   6 C    3.986 --    18 C    1.032    40 H    0.982    39 H    0.964
                            41 H    0.961
    20   8 O    2.333 --    18 C    1.084    15 C    1.066
    21   7 N    3.480 --    22 C    1.196     8 C    1.099    42 H    0.864
                            23 O    0.166
    22   6 C    3.921 --    23 O    1.645    21 N    1.196    24 C    0.971
    23   8 O    1.982 --    22 C    1.645    21 N    0.166
    24   6 C    3.805 --    25 O    1.366     5 C    1.110    22 C    0.971
    25   8 O    2.285 --    24 C    1.366    43 H    0.741
    26   1 H    0.997 --     1 C    0.979
    27   1 H    0.997 --     1 C    0.976
    28   1 H    1.002 --     1 C    0.980
    29   1 H    0.994 --     6 C    0.977
    30   1 H    0.997 --     6 C    0.980
    31   1 H    0.998 --     6 C    0.980
    32   1 H    1.004 --    10 C    0.974
    33   1 H    1.000 --    10 C    0.985
    34   1 H    0.997 --    10 C    0.982
    35   1 H    1.005 --    11 C    0.975
    36   1 H    0.997 --    11 C    0.983
    37   1 H    0.999 --    11 C    0.984
    38   1 H    0.962 --    12 N    0.879
    39   1 H    0.996 --    19 C    0.964
    40   1 H    0.998 --    19 C    0.982
    41   1 H    0.996 --    19 C    0.961
    42   1 H    0.910 --    21 N    0.864
    43   1 H    0.784 --    25 O    0.741
 ---------------------------------------------------------------------------

           -------------------------------------------------
          | TOTAL ENERGY              -83.129802506573 Eh   |
          | GRADIENT NORM               0.000449107639 Eh/α |
          | HOMO-LUMO GAP               0.728640807290 eV   |
           -------------------------------------------------

 * finished run on 2023/06/20 at 15:29:32.664
