   * xtb version 6.5.1 (579679a) compiled by 'ehlert@majestix' on 2022-07-11
          program call               : /lustre/hpc/kemi/ree/PhD/git/ReactivityQM/dep/xtb-6.5.1/bin/xtb --gfn 1 /lustre/hpc/kemi/ree/PhD/git/ReactivityQM/calculations/R02/reac01prodE08/conf13/R02_reac01prodE08_conf13_gfn1.xyz --opt --vfukui --chrg -1 --uhf 0 --alpb DMSO

   ID    Z sym.   atoms
    1    6 C      1, 3, 5, 7-10, 12, 14, 15, 18, 19, 22, 24
    2    8 O      2, 4, 13, 20, 23, 25
    3    7 N      6, 11, 16, 17, 21
    4    1 H      26-43

      * Solvation model:               ALPB
        Solvent                        DMSO
        Solvent mass                       7.8130E+01 g/mol
          :  Hamiltonian                  GFN1-xTB          :
 * total energy  :   -83.8429478 Eh     change       -0.4845901E-10 Eh
 * total energy  :   -83.8557138 Eh     change       -0.1276592E-01 Eh
 * total energy  :   -83.8614085 Eh     change       -0.5694705E-02 Eh
 * total energy  :   -83.8626361 Eh     change       -0.1227651E-02 Eh
 * total energy  :   -83.8634310 Eh     change       -0.7948927E-03 Eh
 * total energy  :   -83.8637938 Eh     change       -0.3628140E-03 Eh
 * total energy  :   -83.8640562 Eh     change       -0.2624149E-03 Eh
 * total energy  :   -83.8642622 Eh     change       -0.2059140E-03 Eh
 * total energy  :   -83.8644440 Eh     change       -0.1818627E-03 Eh
 * total energy  :   -83.8646154 Eh     change       -0.1713511E-03 Eh
 * total energy  :   -83.8658971 Eh     change       -0.1083624E-04 Eh
 * total energy  :   -83.8659207 Eh     change       -0.2352406E-04 Eh
 * total energy  :   -83.8659406 Eh     change       -0.1996106E-04 Eh
 * total energy  :   -83.8659564 Eh     change       -0.1577403E-04 Eh
 * total energy  :   -83.8659729 Eh     change       -0.1646162E-04 Eh
 * total energy  :   -83.8659821 Eh     change       -0.9275102E-05 Eh
 * total energy  :   -83.8659898 Eh     change       -0.7634151E-05 Eh
 * total energy  :   -83.8659996 Eh     change       -0.9859006E-05 Eh
 * total energy  :   -83.8660041 Eh     change       -0.4502798E-05 Eh
   *** GEOMETRY OPTIMIZATION CONVERGED AFTER 37 ITERATIONS ***

 final structure:
================
43
 xtb: 6.5.1 (579679a)
C            5.99096933554745       -1.05307914374880        2.22349492010372
O            4.88432978572370       -1.32928209173041        1.36303176277045
C            4.03032858796158       -0.29025987608448        1.15571778473513
O            4.21437390827593        0.79607172808423        1.67763442208854
C            2.91120696104919       -0.61172665623636        0.26731396784596
N            2.06626501007974        0.45820909156499        0.05334941470103
C            1.03871680130974        0.32414111656114       -0.71260395425688
C            0.13205323977004        1.52292148193149       -0.96192118423764
C            0.14115696085771        1.88340590154948       -2.45489093835925
C            0.63046809943395        2.71123076920237       -0.13593006838156
N           -1.22690619752003        1.22537186582215       -0.51487469818446
C           -2.13324372293672        0.43932635557246       -1.10336556571268
O           -1.93712062663890       -0.27235236561466       -2.08467958223781
C           -3.52100907050050        0.52537485206195       -0.38049459172451
C           -4.57958359449957        0.89062797201601       -1.43110782301217
N           -3.45209632012286        1.49327496549005        0.69962728648648
N           -3.66794618782378        0.79190472291837        1.85039695626920
C           -3.87312651767059       -0.44522085408560        1.56941609722198
C           -4.15716226890652       -1.55095222487139        2.52214314790652
O           -3.81710598849793       -0.73266537572107        0.21831313648532
N            0.74359921022577       -0.85133268453138       -1.33296179479871
C            1.50601425455985       -2.00299651371086       -1.20134096004386
O            1.18415900470340       -3.03225882383628       -1.79141968500232
C            2.65713492702323       -1.83714364732644       -0.33613859456943
O            3.41603372449459       -2.94798703762260       -0.18864080212826
H            6.55865253742545       -0.19805880799590        1.84736287708127
H            5.63797953035681       -0.83389466304113        3.23470453619690
H            6.61595774632819       -1.94303179605469        2.23072623997433
H            1.15435957360831        2.14157905554665       -2.75877722107876
H           -0.20655742164214        1.04988594320642       -3.06204039021288
H           -0.50950686062644        2.73912292607968       -2.62794791531906
H            1.64836604461736        2.96165662159225       -0.43002297232390
H           -0.01018512714004        3.57515997128897       -0.30297282794780
H            0.62792096495963        2.46225270648213        0.92484908146744
H           -1.61827050447318        1.77885896292819        0.25820246864837
H           -4.54770489227291        0.17845750885947       -2.25464014755139
H           -4.37955429243554        1.89162721507244       -1.80741233908307
H           -5.56503678759606        0.87056322689735       -0.97069333555923
H           -3.37829520598242       -2.31436366580099        2.47520615858007
H           -4.20356301038032       -1.15237889757400        3.53343330148547
H           -5.10842734852903       -2.02882400896713        2.28258949551946
H           -0.08080536255035       -0.90637525722837       -1.92843379521701
H            4.18316110043758       -2.79144456892863        0.38579713136278

          :  Hamiltonian                  GFN1-xTB          :
         :: total energy             -83.866004121413 Eh    ::
         :: gradient norm              0.000644246734 Eh/a0 ::
         :: HOMO-LUMO gap              0.086928810803 eV    ::
         :: SCC energy               -84.619917596922 Eh    ::
         :: -> Gsolv                  -0.108076525919 Eh    ::
         :: repulsion energy           0.780898061530 Eh    ::

    * Orbital Energies and Occupations

         #    Occupation            Energy/Eh            Energy/eV
      -------------------------------------------------------------
         1        2.0000           -0.8215801             -22.3563
       ...           ...                  ...                  ...
        56        2.0000           -0.4780729             -13.0090
        57        2.0000           -0.4724249             -12.8553
        58        2.0000           -0.4619502             -12.5703
        59        2.0000           -0.4599845             -12.5168
        60        2.0000           -0.4405724             -11.9886
        61        2.0000           -0.4312187             -11.7341
        62        2.0000           -0.4281098             -11.6495
        63        2.0000           -0.4239706             -11.5368
        64        2.0000           -0.4230532             -11.5119
        65        2.0000           -0.4091271             -11.1329
        66        2.0000           -0.4065123             -11.0618
        67        2.0000           -0.3829913             -10.4217
        68        1.6861           -0.3090121              -8.4086 (HOMO)
        69        0.3139           -0.3058175              -8.3217 (LUMO)
        70                         -0.2594812              -7.0608
        71                         -0.2310776              -6.2879
        72                         -0.2171436              -5.9088
        73                         -0.1925113              -5.2385
        74                         -0.1349324              -3.6717
        75                         -0.1294090              -3.5214
        76                         -0.1197059              -3.2574
        77                         -0.1180763              -3.2130
        78                         -0.1159105              -3.1541
        79                         -0.1020665              -2.7774
       ...                                ...                  ...
       136                          0.7146760              19.4473
      -------------------------------------------------------------
                  HL-Gap            0.0031946 Eh            0.0869 eV

Wiberg/Mayer (AO) data.
largest (>0.10) Wiberg bond orders for each atom

     #   Z sym  total        # sym  WBO       # sym  WBO       # sym  WBO
 ---------------------------------------------------------------------------
     1   6 C    3.878 --    28 H    0.987    27 H    0.981    26 H    0.980
                             2 O    0.902
     2   8 O    2.155 --     3 C    1.035     1 C    0.902     4 O    0.113
     3   6 C    3.776 --     4 O    1.605     5 C    1.069     2 O    1.035
     4   8 O    1.840 --     3 C    1.605     2 O    0.113
     5   6 C    3.878 --    24 C    1.406     6 N    1.157     3 C    1.069
     6   7 N    3.013 --     7 C    1.597     5 C    1.157
     7   6 C    3.916 --     6 N    1.597    21 N    1.175     8 C    0.968
     8   6 C    3.947 --    10 C    1.001     9 C    0.983     7 C    0.968
                            11 N    0.927
     9   6 C    3.991 --    29 H    0.986    31 H    0.984     8 C    0.983
                            30 H    0.979
    10   6 C    3.993 --     8 C    1.001    33 H    0.986    32 H    0.984
                            34 H    0.984
    11   7 N    3.345 --    12 C    1.306     8 C    0.927    35 H    0.857
                            13 O    0.167
    12   6 C    3.851 --    13 O    1.567    11 N    1.306    14 C    0.885
    13   8 O    1.898 --    12 C    1.567    11 N    0.167
    14   6 C    3.893 --    16 N    1.019    15 C    0.968    20 O    0.913
                            12 C    0.885
    15   6 C    3.977 --    37 H    0.987    36 H    0.985    38 H    0.985
                            14 C    0.968
    16   7 N    2.509 --    17 N    1.185    14 C    1.019    18 C    0.112
    17   7 N    2.988 --    18 C    1.641    16 N    1.185
    18   6 C    3.777 --    17 N    1.641    19 C    1.021    20 O    0.978
                            16 N    0.112
    19   6 C    3.995 --    18 C    1.021    40 H    0.986    41 H    0.974
                            39 H    0.973
    20   8 O    2.078 --    18 C    0.978    14 C    0.913
    21   7 N    3.401 --     7 C    1.175    22 C    1.096    42 H    0.860
                            23 O    0.119
    22   6 C    3.868 --    23 O    1.544    24 C    1.115    21 N    1.096
    23   8 O    1.817 --    22 C    1.544    21 N    0.119
    24   6 C    3.800 --     5 C    1.406    22 C    1.115    25 O    1.070
    25   8 O    2.030 --    24 C    1.070    43 H    0.812
    26   1 H    1.010 --     1 C    0.980
    27   1 H    1.009 --     1 C    0.981
    28   1 H    1.012 --     1 C    0.987
    29   1 H    1.003 --     9 C    0.986
    30   1 H    1.012 --     9 C    0.979
    31   1 H    1.002 --     9 C    0.984
    32   1 H    1.011 --    10 C    0.984
    33   1 H    1.001 --    10 C    0.986
    34   1 H    1.008 --    10 C    0.984
    35   1 H    0.975 --    11 N    0.857
    36   1 H    1.009 --    15 C    0.985
    37   1 H    1.009 --    15 C    0.987
    38   1 H    1.011 --    15 C    0.985
    39   1 H    1.002 --    19 C    0.973
    40   1 H    1.007 --    19 C    0.986
    41   1 H    1.002 --    19 C    0.974
    42   1 H    0.946 --    21 N    0.860
    43   1 H    0.866 --    25 O    0.812
 ---------------------------------------------------------------------------

           -------------------------------------------------
          | TOTAL ENERGY              -83.866004121413 Eh   |
          | GRADIENT NORM               0.000644246734 Eh/α |
          | HOMO-LUMO GAP               0.086928810803 eV   |
           -------------------------------------------------

 * finished run on 2023/06/20 at 15:06:35.852
