   * xtb version 6.5.1 (579679a) compiled by 'ehlert@majestix' on 2022-07-11
          program call               : /lustre/hpc/kemi/ree/PhD/git/ReactivityQM/dep/xtb-6.5.1/bin/xtb --gfn 1 /lustre/hpc/kemi/ree/PhD/git/ReactivityQM/calculations/R01/reac01prodN01/conf10/R01_reac01prodN01_conf10_gfn1.xyz --opt --vfukui --chrg 1 --uhf 0 --alpb DMSO

   ID    Z sym.   atoms
    1    6 C      1, 3, 5, 8, 9, 11
    2    8 O      2, 4, 10
    3    7 N      6, 7
    4    1 H      12-20

      * Solvation model:               ALPB
        Solvent                        DMSO
        Solvent mass                       7.8130E+01 g/mol
          :  Hamiltonian                  GFN1-xTB          :
 * total energy  :   -37.5501692 Eh     change       -0.1300293E-10 Eh
 * total energy  :   -37.5658508 Eh     change       -0.1568163E-01 Eh
 * total energy  :   -37.5729882 Eh     change       -0.7137437E-02 Eh
 * total energy  :   -37.5749490 Eh     change       -0.1960791E-02 Eh
 * total energy  :   -37.5761877 Eh     change       -0.1238725E-02 Eh
 * total energy  :   -37.5767371 Eh     change       -0.5493919E-03 Eh
 * total energy  :   -37.5771946 Eh     change       -0.4574403E-03 Eh
 * total energy  :   -37.5775279 Eh     change       -0.3333533E-03 Eh
 * total energy  :   -37.5777071 Eh     change       -0.1791699E-03 Eh
 * total energy  :   -37.5778370 Eh     change       -0.1299181E-03 Eh
 * total energy  :   -37.5794454 Eh     change       -0.2884443E-04 Eh
 * total energy  :   -37.5794795 Eh     change       -0.3407139E-04 Eh
 * total energy  :   -37.5794980 Eh     change       -0.1850626E-04 Eh
 * total energy  :   -37.5795122 Eh     change       -0.1425169E-04 Eh
 * total energy  :   -37.5795176 Eh     change       -0.5400713E-05 Eh
 * total energy  :   -37.5795211 Eh     change       -0.3468926E-05 Eh
 * total energy  :   -37.5795268 Eh     change       -0.5656924E-05 Eh
 * total energy  :   -37.5795298 Eh     change       -0.3030871E-05 Eh
 * total energy  :   -37.5795317 Eh     change       -0.1875052E-05 Eh
   *** GEOMETRY OPTIMIZATION CONVERGED AFTER 42 ITERATIONS ***

 final structure:
================
20
 xtb: 6.5.1 (579679a)
C            3.75182162683062       -0.71836764819317       -0.93108026399292
O            2.68861444722353       -0.06165341662739       -0.21254352215411
C            1.46481840005086       -0.41300933779753       -0.51030618067088
O            1.12767501748602       -1.23168668757269       -1.32340228718071
C            0.48285880737852        0.35807021287780        0.31763294499123
N            0.67879814442430        1.26096329720355        1.20169409358444
N           -0.52749559414809        1.67064491261044        1.68622877021330
C           -1.45886217108707        1.01851428448717        1.09943918902219
C           -2.91430736321988        1.10808776548171        1.28235138748733
O           -0.88933340440759        0.13147544793198        0.18043101113093
C           -1.54067262630819       -0.82149307556024       -0.72352212249513
H            3.68323911084804       -1.79566503010471       -0.77568373009890
H            4.67960355913585       -0.32341746591437       -0.52415573975718
H            3.66356608450206       -0.49189580023881       -1.99428813998641
H           -3.32061831393227        0.14347814154144        1.58744743853974
H           -3.39677532992126        1.40193800557858        0.34967408199551
H           -3.12371190931437        1.85101033302454        2.05025432834344
H           -1.16811029717947       -1.81188781472488       -0.47224838135297
H           -2.60831351928143       -0.73577263645620       -0.54859888097916
H           -1.27279466908017       -0.53933348754739       -1.73932399663967

          :  Hamiltonian                  GFN1-xTB          :
         :: total energy             -37.579531662829 Eh    ::
         :: gradient norm              0.000838026731 Eh/a0 ::
         :: HOMO-LUMO gap              3.706895547990 eV    ::
         :: SCC energy               -37.929265879706 Eh    ::
         :: -> Gsolv                  -0.089855160774 Eh    ::
         :: repulsion energy           0.358455888253 Eh    ::

    * Orbital Energies and Occupations

         #    Occupation            Energy/Eh            Energy/eV
      -------------------------------------------------------------
         1        2.0000           -0.9755062             -26.5449
       ...           ...                  ...                  ...
        18        2.0000           -0.6071630             -16.5217
        19        2.0000           -0.6031975             -16.4138
        20        2.0000           -0.5993622             -16.3095
        21        2.0000           -0.5934469             -16.1485
        22        2.0000           -0.5858141             -15.9408
        23        2.0000           -0.5723629             -15.5748
        24        2.0000           -0.5624594             -15.3053
        25        2.0000           -0.5501852             -14.9713
        26        2.0000           -0.5416744             -14.7397
        27        2.0000           -0.5294511             -14.4071
        28        2.0000           -0.5288305             -14.3902
        29        2.0000           -0.5195639             -14.1381
        30        2.0000           -0.5141356             -13.9903 (HOMO)
        31                         -0.3779097             -10.2834 (LUMO)
        32                         -0.3209352              -8.7331
        33                         -0.2590307              -7.0486
        34                         -0.1947957              -5.3007
        35                         -0.1789351              -4.8691
        36                         -0.1550506              -4.2191
        37                         -0.1278923              -3.4801
        38                         -0.1185334              -3.2255
        39                         -0.1177603              -3.2044
        40                         -0.1042573              -2.8370
        41                         -0.0900956              -2.4516
       ...                                ...                  ...
        62                          0.7193874              19.5755
      -------------------------------------------------------------
                  HL-Gap            0.1362259 Eh            3.7069 eV

Wiberg/Mayer (AO) data.
largest (>0.10) Wiberg bond orders for each atom

     #   Z sym  total        # sym  WBO       # sym  WBO       # sym  WBO
 ---------------------------------------------------------------------------
     1   6 C    3.832 --    13 H    0.984    12 H    0.977    14 H    0.976
                             2 O    0.862
     2   8 O    2.245 --     3 C    1.178     1 C    0.862     4 O    0.154
     3   6 C    3.879 --     4 O    1.670     2 O    1.178     5 C    0.962
     4   8 O    1.976 --     3 C    1.670     2 O    0.154
     5   6 C    3.810 --     6 N    1.708     3 C    0.962    10 O    0.884
     6   7 N    3.040 --     5 C    1.708     7 N    1.159
     7   7 N    3.024 --     8 C    1.684     6 N    1.159
     8   6 C    3.800 --     7 N    1.684     9 C    1.046    10 O    0.881
     9   6 C    3.967 --     8 C    1.046    17 H    0.969    15 H    0.948
                            16 H    0.948
    10   8 O    2.653 --     5 C    0.884     8 C    0.881    11 C    0.741
    11   6 C    3.717 --    19 H    0.973    20 H    0.967    18 H    0.967
                            10 O    0.741
    12   1 H    0.999 --     1 C    0.977
    13   1 H    1.005 --     1 C    0.984
    14   1 H    0.999 --     1 C    0.976
    15   1 H    0.987 --     9 C    0.948
    16   1 H    0.987 --     9 C    0.948
    17   1 H    0.988 --     9 C    0.969
    18   1 H    0.996 --    11 C    0.967
    19   1 H    0.989 --    11 C    0.973
    20   1 H    0.996 --    11 C    0.967
 ---------------------------------------------------------------------------

           -------------------------------------------------
          | TOTAL ENERGY              -37.579531662829 Eh   |
          | GRADIENT NORM               0.000838026731 Eh/α |
          | HOMO-LUMO GAP               3.706895547990 eV   |
           -------------------------------------------------

 * finished run on 2023/06/20 at 14:54:43.176
