   * xtb version 6.5.1 (579679a) compiled by 'ehlert@majestix' on 2022-07-11
          program call               : /lustre/hpc/kemi/ree/PhD/git/ReactivityQM/dep/xtb-6.5.1/bin/xtb --gfn 1 /lustre/hpc/kemi/ree/PhD/git/ReactivityQM/calculations/R02methylcation/reac01prodN13/conf15/R02methylcation_reac01prodN13_conf15_gfn1.xyz --opt --vfukui --chrg 0 --uhf 0 --alpb DMSO

   ID    Z sym.   atoms
    1    6 C      1, 3, 5, 7-10, 12, 14, 17-19, 22, 24
    2    8 O      2, 4, 13, 20, 23, 25
    3    7 N      6, 11, 15, 16, 21
    4    1 H      26-42

      * Solvation model:               ALPB
        Solvent                        DMSO
        Solvent mass                       7.8130E+01 g/mol
          :  Hamiltonian                  GFN1-xTB          :
 * total energy  :   -82.9254650 Eh     change       -0.1472245E-10 Eh
 * total energy  :   -82.9354658 Eh     change       -0.1000087E-01 Eh
 * total energy  :   -82.9394465 Eh     change       -0.3980637E-02 Eh
 * total energy  :   -82.9401337 Eh     change       -0.6872008E-03 Eh
 * total energy  :   -82.9406915 Eh     change       -0.5577846E-03 Eh
 * total energy  :   -82.9410216 Eh     change       -0.3301391E-03 Eh
 * total energy  :   -82.9412850 Eh     change       -0.2633669E-03 Eh
 * total energy  :   -82.9414873 Eh     change       -0.2023197E-03 Eh
 * total energy  :   -82.9416402 Eh     change       -0.1528887E-03 Eh
 * total energy  :   -82.9417375 Eh     change       -0.9729478E-04 Eh
 * total energy  :   -82.9425625 Eh     change       -0.9466001E-05 Eh
 * total energy  :   -82.9425749 Eh     change       -0.1240685E-04 Eh
 * total energy  :   -82.9425882 Eh     change       -0.1327802E-04 Eh
 * total energy  :   -82.9425982 Eh     change       -0.1002835E-04 Eh
 * total energy  :   -82.9426068 Eh     change       -0.8622627E-05 Eh
 * total energy  :   -82.9426150 Eh     change       -0.8191180E-05 Eh
 * total energy  :   -82.9426226 Eh     change       -0.7631618E-05 Eh
 * total energy  :   -82.9426288 Eh     change       -0.6145927E-05 Eh
 * total energy  :   -82.9426327 Eh     change       -0.3943785E-05 Eh
   *** GEOMETRY OPTIMIZATION CONVERGED AFTER 37 ITERATIONS ***

 final structure:
================
42
 xtb: 6.5.1 (579679a)
C            6.19989609800615        2.46982057020724       -0.82630045496938
O            5.27906461753037        1.71046969876540       -0.04206522152029
C            4.30916210822247        1.08533403453170       -0.71074227340538
O            4.20012977538804        1.14394505884466       -1.91874349336728
C            3.37772526658216        0.31445794788058        0.15330410183403
N            2.35154211670264       -0.23420101458010       -0.52696305641098
C            1.44107180390331       -0.94486441746551        0.07811922396078
C            0.31453863054308       -1.54708530507203       -0.74441770055246
C            0.50999012079439       -1.18682991618051       -2.21750341748618
C            0.25630406217312       -3.06935022077636       -0.57597575867744
N           -0.95396770722046       -0.92892204571513       -0.32180448905053
C           -1.60629289637708       -1.17412322333183        0.82919796676436
O           -1.23702022243340       -1.91626197558516        1.72860587907632
C           -2.87267489181287       -0.41168840617884        0.93093095906010
N           -3.72130600618115       -0.45549215707189        1.96947479571297
N           -4.70165969876685        0.33486848040073        1.72998581494242
C           -4.50995287494065        0.95539178438008        0.44616727127274
C           -5.63759062884082        0.56727747060838       -0.51228429575608
C           -4.36803058234373        2.47162208993679        0.60212799961307
O           -3.27260497177641        0.40550147906867       -0.01775677405128
N            1.47382842877828       -1.15826916884884        1.41441364422585
C            2.44380718098821       -0.64719900252576        2.25825340426768
O            2.39241318130771       -0.86262523432870        3.45354142756711
C            3.53036168637316        0.16245138579369        1.57827702452364
O            4.44442281084884        0.62951856117146        2.25375606256667
H            6.92985287041611        2.88783739515703       -0.13598853473320
H            6.69447798144401        1.82563809647888       -1.55737033790621
H            5.67491822550450        3.27073615489773       -1.35230461509461
H            0.53865945591521       -0.10548066569622       -2.34191055873908
H            1.45167084553722       -1.60199744534654       -2.57310040830444
H           -0.30683269090521       -1.59569779584998       -2.80807611127791
H            1.16985283867215       -3.50654272691357       -0.97617405004914
H            0.15891954928585       -3.35252545010466        0.46939132935880
H           -0.59632836128183       -3.46009574638303       -1.12799347021906
H           -1.38043490982611       -0.28887864444335       -0.97237268858920
H           -6.58134601528078        0.94131804443603       -0.12335728334195
H           -5.68020771037082       -0.51622782923492       -0.59900772053415
H           -5.44223200515749        1.00270278289322       -1.48901366951727
H           -3.56765229581149        2.68815188573764        1.30683221073397
H           -5.30398790429606        2.88265784202800        0.97182732530265
H           -4.12910710415911        2.90758143293965       -0.36474948556036
H            0.72662082283969       -1.69292380450716        1.84915742832986

          :  Hamiltonian                  GFN1-xTB          :
         :: total energy             -82.942632718712 Eh    ::
         :: gradient norm              0.000417907161 Eh/a0 ::
         :: HOMO-LUMO gap              0.051176763057 eV    ::
         :: SCC energy               -83.707260125408 Eh    ::
         :: -> Gsolv                  -0.069437718182 Eh    ::
         :: repulsion energy           0.790293841340 Eh    ::

    * Orbital Energies and Occupations

         #    Occupation            Energy/Eh            Energy/eV
      -------------------------------------------------------------
         1        2.0000           -0.8812945             -23.9812
       ...           ...                  ...                  ...
        55        2.0000           -0.5158877             -14.0380
        56        2.0000           -0.5109563             -13.9038
        57        2.0000           -0.5076030             -13.8126
        58        2.0000           -0.5032572             -13.6943
        59        2.0000           -0.4912658             -13.3680
        60        2.0000           -0.4857642             -13.2183
        61        2.0000           -0.4825105             -13.1298
        62        2.0000           -0.4762016             -12.9581
        63        2.0000           -0.4732293             -12.8772
        64        2.0000           -0.4668482             -12.7036
        65        2.0000           -0.4575283             -12.4500
        66        2.0000           -0.4233849             -11.5209
        67        1.4581           -0.4075689             -11.0905 (HOMO)
        68        0.5419           -0.4056882             -11.0393 (LUMO)
        69                         -0.3227485              -8.7824
        70                         -0.3094858              -8.4215
        71                         -0.2849263              -7.7532
        72                         -0.2349944              -6.3945
        73                         -0.2231742              -6.0729
        74                         -0.1572371              -4.2786
        75                         -0.1431552              -3.8955
        76                         -0.1377116              -3.7473
        77                         -0.1341486              -3.6504
        78                         -0.1322200              -3.5979
       ...                                ...                  ...
       134                          0.7469243              20.3248
      -------------------------------------------------------------
                  HL-Gap            0.0018807 Eh            0.0512 eV

Wiberg/Mayer (AO) data.
largest (>0.10) Wiberg bond orders for each atom

     #   Z sym  total        # sym  WBO       # sym  WBO       # sym  WBO
 ---------------------------------------------------------------------------
     1   6 C    3.875 --    26 H    0.986    27 H    0.979    28 H    0.979
                             2 O    0.902
     2   8 O    2.194 --     3 C    1.109     1 C    0.902     4 O    0.132
     3   6 C    3.842 --     4 O    1.635     2 O    1.109     5 C    1.020
     4   8 O    1.879 --     3 C    1.635     2 O    0.132
     5   6 C    3.714 --     6 N    1.305    24 C    1.159     3 C    1.020
     6   7 N    2.984 --     7 C    1.464     5 C    1.305
     7   6 C    3.791 --     6 N    1.464    21 N    1.212     8 C    0.969
     8   6 C    3.925 --     9 C    1.001    10 C    0.984     7 C    0.969
                            11 N    0.909
     9   6 C    3.988 --     8 C    1.001    31 H    0.984    29 H    0.982
                            30 H    0.982
    10   6 C    3.980 --     8 C    0.984    32 H    0.984    34 H    0.982
                            33 H    0.978
    11   7 N    3.341 --    12 C    1.270     8 C    0.909    35 H    0.887
                            13 O    0.187
    12   6 C    3.909 --    13 O    1.553    11 N    1.270    14 C    0.999
    13   8 O    1.892 --    12 C    1.553    11 N    0.187
    14   6 C    3.628 --    15 N    1.316    20 O    1.169    12 C    0.999
    15   7 N    3.000 --    16 N    1.543    14 C    1.316
    16   7 N    2.686 --    15 N    1.543    17 C    1.023
    17   6 C    3.834 --    16 N    1.023    18 C    0.940    19 C    0.939
                            20 O    0.870
    18   6 C    3.938 --    37 H    0.982    36 H    0.982    38 H    0.980
                            17 C    0.940
    19   6 C    3.938 --    39 H    0.982    40 H    0.982    41 H    0.980
                            17 C    0.939
    20   8 O    2.194 --    14 C    1.169    17 C    0.870
    21   7 N    3.432 --     7 C    1.212    22 C    1.112    42 H    0.854
                            23 O    0.110
    22   6 C    3.840 --    23 O    1.650    21 N    1.112    24 C    0.948
    23   8 O    1.868 --    22 C    1.650    21 N    0.110
    24   6 C    3.862 --    25 O    1.616     5 C    1.159    22 C    0.948
    25   8 O    1.791 --    24 C    1.616
    26   1 H    1.011 --     1 C    0.986
    27   1 H    1.007 --     1 C    0.979
    28   1 H    1.007 --     1 C    0.979
    29   1 H    1.005 --     9 C    0.982
    30   1 H    1.005 --     9 C    0.982
    31   1 H    0.998 --     9 C    0.984
    32   1 H    0.999 --    10 C    0.984
    33   1 H    1.007 --    10 C    0.978
    34   1 H    0.998 --    10 C    0.982
    35   1 H    0.930 --    11 N    0.887
    36   1 H    0.997 --    18 C    0.982
    37   1 H    0.996 --    18 C    0.982
    38   1 H    0.996 --    18 C    0.980
    39   1 H    0.997 --    19 C    0.982
    40   1 H    0.997 --    19 C    0.982
    41   1 H    0.996 --    19 C    0.980
    42   1 H    0.933 --    21 N    0.854
 ---------------------------------------------------------------------------

           -------------------------------------------------
          | TOTAL ENERGY              -82.942632718712 Eh   |
          | GRADIENT NORM               0.000417907161 Eh/α |
          | HOMO-LUMO GAP               0.051176763057 eV   |
           -------------------------------------------------

 * finished run on 2023/06/21 at 17:46:58.859
