   * xtb version 6.5.1 (579679a) compiled by 'ehlert@majestix' on 2022-07-11
          program call               : /lustre/hpc/kemi/ree/PhD/git/ReactivityQM/dep/xtb-6.5.1/bin/xtb --gfn 1 /lustre/hpc/kemi/ree/PhD/git/ReactivityQM/calculations/RaltegravirCLI/reac01prodN08/conf11/RaltegravirCLI_reac01prodN08_conf11_gfn1.xyz --opt --vfukui --chrg 1 --uhf 0 --alpb DMSO

   ID    Z sym.   atoms
    1    6 C      1, 3, 5, 8, 9
    2   17 Cl     2
    3    8 O      4, 10
    4    7 N      6, 7
    5    1 H      11-16

      * Solvation model:               ALPB
        Solvent                        DMSO
        Solvent mass                       7.8130E+01 g/mol
          :  Hamiltonian                  GFN1-xTB          :
 * total energy  :   -33.3906263 Eh     change       -0.9464429E-11 Eh
 * total energy  :   -33.3947707 Eh     change       -0.4144416E-02 Eh
 * total energy  :   -33.3964256 Eh     change       -0.1654897E-02 Eh
 * total energy  :   -33.3972270 Eh     change       -0.8013557E-03 Eh
 * total energy  :   -33.3978242 Eh     change       -0.5972329E-03 Eh
 * total energy  :   -33.3982413 Eh     change       -0.4170906E-03 Eh
 * total energy  :   -33.3984668 Eh     change       -0.2255129E-03 Eh
 * total energy  :   -33.3985611 Eh     change       -0.9432949E-04 Eh
 * total energy  :   -33.3985953 Eh     change       -0.3420326E-04 Eh
 * total energy  :   -33.3986093 Eh     change       -0.1396492E-04 Eh
 * total energy  :   -33.3986148 Eh     change       -0.5460818E-05 Eh
 * total energy  :   -33.3986167 Eh     change       -0.1898201E-05 Eh
   *** GEOMETRY OPTIMIZATION CONVERGED AFTER 12 ITERATIONS ***

 final structure:
================
16
 xtb: 6.5.1 (579679a)
C           -3.61088537433123        0.60673894802361       -0.00014688541971
Cl          -1.83838793886800        0.82372161667098       -0.00624898534614
C           -1.22976999753720       -0.88308955498356       -0.32991089412151
O           -2.02909590710154       -1.73685624259930       -0.48532877213090
C            0.19664676863454       -0.89696443802338       -0.34322593144225
N            0.98893533035849       -1.92546443949907       -0.54034962925923
N            2.23686807220025       -1.47383456727384       -0.46257262913660
C            2.17397887019880       -0.18195393968747       -0.22095716034024
C            3.29378015120335        0.76032263253169       -0.05430667474031
O            0.91197443100628        0.23047105127299       -0.13688764095661
H           -3.84587053492909       -0.33111622853200       -0.50123652349445
H           -4.03495146908610        1.44845803436307       -0.53921366684472
H           -3.95466302813024        0.58703486156830        1.03034629431850
H            3.81177277806702        0.88621789636031       -1.00675451406606
H            4.00878545958518        0.36198259236372        0.66571308198296
H            2.92088238872897        1.72433177744493        0.28214753099751

          :  Hamiltonian                  GFN1-xTB          :
         :: total energy             -33.398616667583 Eh    ::
         :: gradient norm              0.000670342553 Eh/a0 ::
         :: HOMO-LUMO gap              2.754490971947 eV    ::
         :: SCC energy               -33.693108726362 Eh    ::
         :: -> Gsolv                  -0.088033097391 Eh    ::
         :: repulsion energy           0.301277305067 Eh    ::

    * Orbital Energies and Occupations

         #    Occupation            Energy/Eh            Energy/eV
      -------------------------------------------------------------
         1        2.0000           -1.0681142             -29.0649
       ...           ...                  ...                  ...
        15        2.0000           -0.6277136             -17.0810
        16        2.0000           -0.6105905             -16.6150
        17        2.0000           -0.6048803             -16.4596
        18        2.0000           -0.5844055             -15.9025
        19        2.0000           -0.5772325             -15.7073
        20        2.0000           -0.5729503             -15.5908
        21        2.0000           -0.5589886             -15.2109
        22        2.0000           -0.5555226             -15.1165
        23        2.0000           -0.5495617             -14.9543
        24        2.0000           -0.5439574             -14.8018
        25        2.0000           -0.5264253             -14.3248
        26        2.0000           -0.5000580             -13.6073
        27        2.0000           -0.4958679             -13.4933 (HOMO)
        28                         -0.3946422             -10.7388 (LUMO)
        29                         -0.3168066              -8.6207
        30                         -0.3005051              -8.1772
        31                         -0.2976653              -8.0999
        32                         -0.2713675              -7.3843
        33                         -0.1858079              -5.0561
        34                         -0.1806879              -4.9168
        35                         -0.1628374              -4.4310
        36                         -0.1598035              -4.3485
        37                         -0.1596304              -4.3438
        38                         -0.1104177              -3.0046
       ...                                ...                  ...
        57                          0.7708339              20.9755
      -------------------------------------------------------------
                  HL-Gap            0.1012257 Eh            2.7545 eV

Wiberg/Mayer (AO) data.
largest (>0.10) Wiberg bond orders for each atom

     #   Z sym  total        # sym  WBO       # sym  WBO       # sym  WBO
 ---------------------------------------------------------------------------
     1   6 C    3.860 --    13 H    0.980    12 H    0.976    11 H    0.969
                             2 Cl   0.912
     2  17 Cl   1.919 --     1 C    0.912     3 C    0.786     4 O    0.146
     3   6 C    3.871 --     4 O    1.836     5 C    1.116     2 Cl   0.786
     4   8 O    2.156 --     3 C    1.836     2 Cl   0.146
     5   6 C    3.883 --     6 N    1.496     3 C    1.116    10 O    1.037
     6   7 N    3.023 --     5 C    1.496     7 N    1.312
     7   7 N    2.997 --     8 C    1.490     6 N    1.312
     8   6 C    3.845 --     7 N    1.490    10 O    1.114     9 C    1.044
     9   6 C    3.974 --     8 C    1.044    16 H    0.978    15 H    0.955
                            14 H    0.944
    10   8 O    2.339 --     8 C    1.114     5 C    1.037
    11   1 H    0.994 --     1 C    0.969
    12   1 H    0.993 --     1 C    0.976
    13   1 H    0.994 --     1 C    0.980
    14   1 H    0.986 --     9 C    0.944
    15   1 H    0.988 --     9 C    0.955
    16   1 H    0.992 --     9 C    0.978
 ---------------------------------------------------------------------------

           -------------------------------------------------
          | TOTAL ENERGY              -33.398616667583 Eh   |
          | GRADIENT NORM               0.000670342553 Eh/α |
          | HOMO-LUMO GAP               2.754490971947 eV   |
           -------------------------------------------------

 * finished run on 2023/06/20 at 14:55:57.820
