   * xtb version 6.5.1 (579679a) compiled by 'ehlert@majestix' on 2022-07-11
          program call               : /lustre/hpc/kemi/ree/PhD/git/ReactivityQM/dep/xtb-6.5.1/bin/xtb --gfn 1 /lustre/hpc/kemi/ree/PhD/git/ReactivityQM/calculations/R02deprot/reac01prodE11/conf18/R02deprot_reac01prodE11_conf18_gfn1.xyz --opt --vfukui --chrg -2 --uhf 0 --alpb DMSO

   ID    Z sym.   atoms
    1    6 C      1, 3, 5, 7-10, 12, 14, 17-19, 22, 24
    2    8 O      2, 4, 13, 20, 23, 25
    3    7 N      6, 11, 15, 16, 21
    4    1 H      26-42

      * Solvation model:               ALPB
        Solvent                        DMSO
        Solvent mass                       7.8130E+01 g/mol
          :  Hamiltonian                  GFN1-xTB          :
 * total energy  :   -83.6420252 Eh     change       -0.4135359E-11 Eh
 * total energy  :   -83.6517896 Eh     change       -0.9764389E-02 Eh
 * total energy  :   -83.6543837 Eh     change       -0.2594044E-02 Eh
 * total energy  :   -83.6548100 Eh     change       -0.4263833E-03 Eh
 * total energy  :   -83.6551765 Eh     change       -0.3664283E-03 Eh
 * total energy  :   -83.6553570 Eh     change       -0.1805485E-03 Eh
 * total energy  :   -83.6555723 Eh     change       -0.2152390E-03 Eh
 * total energy  :   -83.6557220 Eh     change       -0.1496916E-03 Eh
 * total energy  :   -83.6558383 Eh     change       -0.1163000E-03 Eh
 * total energy  :   -83.6559093 Eh     change       -0.7102513E-04 Eh
 * total energy  :   -83.6562063 Eh     change       -0.1541550E-04 Eh
 * total energy  :   -83.6562201 Eh     change       -0.1372035E-04 Eh
 * total energy  :   -83.6562360 Eh     change       -0.1592802E-04 Eh
 * total energy  :   -83.6562528 Eh     change       -0.1683005E-04 Eh
 * total energy  :   -83.6562651 Eh     change       -0.1228882E-04 Eh
 * total energy  :   -83.6562741 Eh     change       -0.9027461E-05 Eh
 * total energy  :   -83.6562811 Eh     change       -0.6947553E-05 Eh
 * total energy  :   -83.6562855 Eh     change       -0.4384502E-05 Eh
 * total energy  :   -83.6562893 Eh     change       -0.3831643E-05 Eh
   *** GEOMETRY OPTIMIZATION CONVERGED AFTER 25 ITERATIONS ***

 final structure:
================
42
 xtb: 6.5.1 (579679a)
C            2.80634964979193       -1.44132636327415       -3.20353777200388
O            2.49837334590351       -0.91464327731627       -1.91849049798469
C            3.29764378352123        0.08012102091424       -1.48238821001438
O            4.21481526219783        0.50025000968036       -2.16226572447457
C            2.93964425544784        0.55190663311833       -0.12836330741660
N            1.81357164508599        0.02486783038546        0.44319484121803
C            1.50963389439065        0.41610135567106        1.66508694206670
C            0.26570953654689       -0.22450502499724        2.28148045637481
C           -0.09370253493729        0.47408209027678        3.59814211262316
C            0.58592072906763       -1.71252869580840        2.52628903548751
N           -0.81864238299123       -0.07612726970968        1.31275936771493
C           -2.06399394817518       -0.66840704106914        1.50064735557263
O           -2.42704021120467       -1.11749284944017        2.61212658847748
C           -2.90066114025453       -0.65811155523595        0.35585357530440
N           -4.15114977462403       -1.08634986952672        0.28913801314744
N           -4.64926147728864       -0.91467819423319       -0.90238941670519
C           -3.60191223017565       -0.29915705079553       -1.73364923315254
C           -3.27375041994699       -1.22603623791222       -2.91696195346898
C           -4.07973626828431        1.07309767819572       -2.24202817188842
O           -2.46998992784652       -0.14551337464744       -0.88919031515387
N            2.18631202693098        1.27850165952003        2.42474262601014
C            3.30502467158504        1.84916981173060        1.92507185428047
O            4.01426199098238        2.67179979521164        2.54506722973282
C            3.69442358621255        1.46052044078437        0.56981989912385
O            4.82586485120912        2.04307256179336        0.10538162903934
H            2.14981122926091       -2.29447029078329       -3.36610192882294
H            2.63765369120016       -0.68760062299108       -3.97808681273532
H            3.85093716542746       -1.76269842506238       -3.24590665359293
H           -0.94163586977355       -0.01349497843438        4.07652858226053
H            0.76013869163745        0.43904465854561        4.27441512840288
H           -0.34277285329947        1.51869937536287        3.40879735368050
H            1.43656156498503       -1.79754822653504        3.20221956396094
H           -0.26784848716038       -2.22374743924521        2.96986208814660
H            0.84043102992873       -2.19214812592614        1.58100938999020
H           -0.50509465351208       -0.01258553266394        0.35003286924776
H           -2.50270943963396       -0.78447165767681       -3.54559586585565
H           -4.17144630760837       -1.38719891409277       -3.51026707602983
H           -2.92300730640105       -2.18502485731953       -2.53912848223117
H           -4.31417642000447        1.71270494300815       -1.39239072430177
H           -3.30362087643216        1.54641605842352       -2.84112307520585
H           -4.97466574076372        0.94633614865755       -2.84762662277801
H            5.14373666899999        2.62303380341579        0.82782634195243

          :  Hamiltonian                  GFN1-xTB          :
         :: total energy             -83.656289296668 Eh    ::
         :: gradient norm              0.000752783520 Eh/a0 ::
         :: HOMO-LUMO gap              0.989325187881 eV    ::
         :: SCC energy               -84.386975896266 Eh    ::
         :: -> Gsolv                  -0.255847430097 Eh    ::
         :: repulsion energy           0.756061443953 Eh    ::

    * Orbital Energies and Occupations

         #    Occupation            Energy/Eh            Energy/eV
      -------------------------------------------------------------
         1        2.0000           -0.8079110             -21.9844
       ...           ...                  ...                  ...
        56        2.0000           -0.4398588             -11.9692
        57        2.0000           -0.4396764             -11.9642
        58        2.0000           -0.4257725             -11.5859
        59        2.0000           -0.4242802             -11.5453
        60        2.0000           -0.4102209             -11.1627
        61        2.0000           -0.4034257             -10.9778
        62        2.0000           -0.3941916             -10.7265
        63        2.0000           -0.3901942             -10.6177
        64        2.0000           -0.3783079             -10.2943
        65        2.0000           -0.3623625              -9.8604
        66        2.0000           -0.3616521              -9.8411
        67        2.0000           -0.3603256              -9.8050
        68        2.0000           -0.3053526              -8.3091 (HOMO)
        69                         -0.2689956              -7.3197 (LUMO)
        70                         -0.2268543              -6.1730
        71                         -0.2171677              -5.9094
        72                         -0.1817181              -4.9448
        73                         -0.1235097              -3.3609
        74                         -0.1159669              -3.1556
        75                         -0.1004715              -2.7340
        76                         -0.0962032              -2.6178
        77                         -0.0943440              -2.5672
        78                         -0.0913930              -2.4869
        79                         -0.0859672              -2.3393
       ...                                ...                  ...
       134                          0.7519730              20.4622
      -------------------------------------------------------------
                  HL-Gap            0.0363570 Eh            0.9893 eV

Wiberg/Mayer (AO) data.
largest (>0.10) Wiberg bond orders for each atom

     #   Z sym  total        # sym  WBO       # sym  WBO       # sym  WBO
 ---------------------------------------------------------------------------
     1   6 C    3.891 --    26 H    0.987    28 H    0.980    27 H    0.980
                             2 O    0.917
     2   8 O    2.179 --     3 C    1.075     1 C    0.917     4 O    0.122
     3   6 C    3.835 --     4 O    1.630     2 O    1.075     5 C    1.032
     4   8 O    1.895 --     3 C    1.630     2 O    0.122
     5   6 C    3.965 --    24 C    1.470     6 N    1.209     3 C    1.032
     6   7 N    2.998 --     7 C    1.458     5 C    1.209
     7   6 C    3.953 --     6 N    1.458    21 N    1.364     8 C    0.970
     8   6 C    3.954 --     9 C    0.999    10 C    0.977     7 C    0.970
                            11 N    0.946
     9   6 C    3.995 --     8 C    0.999    31 H    0.986    30 H    0.986
                            29 H    0.982
    10   6 C    3.994 --    32 H    0.988    34 H    0.986    33 H    0.983
                             8 C    0.977
    11   7 N    3.221 --    12 C    1.110     8 C    0.946    35 H    0.911
                            13 O    0.109
    12   6 C    3.926 --    13 O    1.438    14 C    1.208    11 N    1.110
    13   8 O    1.774 --    12 C    1.438    11 N    0.109
    14   6 C    3.842 --    15 N    1.416    12 C    1.208    20 O    0.920
                            16 N    0.166
    15   7 N    3.022 --    16 N    1.448    14 C    1.416
    16   7 N    2.861 --    15 N    1.448    17 C    0.983    14 C    0.166
    17   6 C    3.901 --    16 N    0.983    18 C    0.977    19 C    0.977
                            20 O    0.926
    18   6 C    3.994 --    37 H    0.988    36 H    0.987    38 H    0.985
                            17 C    0.977
    19   6 C    3.994 --    41 H    0.988    40 H    0.987    39 H    0.986
                            17 C    0.977
    20   8 O    2.050 --    17 C    0.926    14 C    0.920
    21   7 N    2.985 --     7 C    1.364    22 C    1.258    23 O    0.124
    22   6 C    3.932 --    23 O    1.455    21 N    1.258    24 C    1.081
    23   8 O    1.791 --    22 C    1.455    21 N    0.124
    24   6 C    3.904 --     5 C    1.470    22 C    1.081    25 O    1.064
    25   8 O    2.043 --    24 C    1.064    42 H    0.820
    26   1 H    1.014 --     1 C    0.987
    27   1 H    1.011 --     1 C    0.980
    28   1 H    1.013 --     1 C    0.980
    29   1 H    1.025 --     9 C    0.982
    30   1 H    1.022 --     9 C    0.986
    31   1 H    1.016 --     9 C    0.986
    32   1 H    1.007 --    10 C    0.988
    33   1 H    1.018 --    10 C    0.983
    34   1 H    1.015 --    10 C    0.986
    35   1 H    0.983 --    11 N    0.911
    36   1 H    1.008 --    18 C    0.987
    37   1 H    1.012 --    18 C    0.988
    38   1 H    1.016 --    18 C    0.985
    39   1 H    1.016 --    19 C    0.986
    40   1 H    1.009 --    19 C    0.987
    41   1 H    1.011 --    19 C    0.988
    42   1 H    0.880 --    25 O    0.820
 ---------------------------------------------------------------------------

           -------------------------------------------------
          | TOTAL ENERGY              -83.656289296668 Eh   |
          | GRADIENT NORM               0.000752783520 Eh/α |
          | HOMO-LUMO GAP               0.989325187881 eV   |
           -------------------------------------------------

 * finished run on 2023/06/20 at 17:55:02.808
