   * xtb version 6.5.1 (579679a) compiled by 'ehlert@majestix' on 2022-07-11
          program call               : /lustre/hpc/kemi/ree/PhD/git/ReactivityQM/dep/xtb-6.5.1/bin/xtb --gfn 1 /lustre/hpc/kemi/ree/PhD/git/ReactivityQM/calculations/R02oxygendeprot/reac01prodN14/conf07/R02oxygendeprot_reac01prodN14_conf07_gfn1.xyz --opt --vfukui --chrg 0 --uhf 0 --alpb DMSO

   ID    Z sym.   atoms
    1    6 C      1, 3, 5, 6, 8, 9, 12-15, 17, 19, 22, 23
    2    8 O      2, 4, 7, 10, 18, 24
    3    7 N      11, 16, 20, 21, 25
    4    1 H      26-42

      * Solvation model:               ALPB
        Solvent                        DMSO
        Solvent mass                       7.8130E+01 g/mol
          :  Hamiltonian                  GFN1-xTB          :
 * total energy  :   -82.8923166 Eh     change       -0.2700062E-12 Eh
 * total energy  :   -82.9084732 Eh     change       -0.1615668E-01 Eh
 * total energy  :   -82.9186067 Eh     change       -0.1013346E-01 Eh
 * total energy  :   -82.9206271 Eh     change       -0.2020415E-02 Eh
 * total energy  :   -82.9223065 Eh     change       -0.1679415E-02 Eh
 * total energy  :   -82.9232300 Eh     change       -0.9234624E-03 Eh
 * total energy  :   -82.9241994 Eh     change       -0.9694337E-03 Eh
 * total energy  :   -82.9248775 Eh     change       -0.6780406E-03 Eh
 * total energy  :   -82.9254609 Eh     change       -0.5834021E-03 Eh
 * total energy  :   -82.9259913 Eh     change       -0.5303813E-03 Eh
 * total energy  :   -82.9769774 Eh     change       -0.3515077E-04 Eh
 * total energy  :   -82.9770000 Eh     change       -0.2261406E-04 Eh
 * total energy  :   -82.9770129 Eh     change       -0.1292635E-04 Eh
 * total energy  :   -82.9770216 Eh     change       -0.8651906E-05 Eh
 * total energy  :   -82.9770271 Eh     change       -0.5545297E-05 Eh
 * total energy  :   -82.9770314 Eh     change       -0.4348176E-05 Eh
 * total energy  :   -82.9770348 Eh     change       -0.3392087E-05 Eh
 * total energy  :   -82.9770383 Eh     change       -0.3492741E-05 Eh
 * total energy  :   -82.9770407 Eh     change       -0.2342076E-05 Eh
   *** GEOMETRY OPTIMIZATION CONVERGED AFTER 93 ITERATIONS ***

 final structure:
================
42
 xtb: 6.5.1 (579679a)
C           -5.37779168080935        3.05534928396403       -0.02876102664875
O           -4.21719530096275        2.22594380864228        0.04203071012407
C           -4.11774770307303        1.26618783774716       -0.89694067543213
O           -4.95341321841520        1.10679164148131       -1.76391784291344
C           -2.91515894553142        0.46291722310824       -0.73517551595104
C           -2.53446841186064       -0.59299588381109       -1.54418858842728
O           -2.89809192800168       -1.21921441623087       -2.49638093138457
C           -1.21606204252423       -2.47915364322196       -0.45755812047979
C           -2.40396720736321       -2.81794014633999        0.36461371780275
O           -0.38021879823555       -3.22134309379619       -0.86625009455155
N           -1.13005118051745       -1.05881260206514       -0.85316120006185
C           -1.01263992723696       -0.07349162685183        0.24826389771172
C            0.18291121321554       -0.05242497250997        1.15804314315571
C            0.19683463572258       -1.28955719817763        2.06725262056467
C            0.13241755918883        1.23468551778799        1.99136281155972
N            1.38179170521269       -0.04861949383404        0.30841741658649
C            2.63861650031105       -0.03044337290346        0.81313702639946
O            2.93293850343059       -0.13247618179145        1.98871704652620
C            3.63663821737071        0.11411930656115       -0.27606446180492
N            3.37727109477203        0.22296076760206       -1.54477497695585
N            4.57487815219800        0.34224540461124       -2.18140141839625
C            5.48985323186247        0.30004650199642       -1.25992809840963
C            6.95541012088157        0.39742665665993       -1.43618731144608
O            4.95922929178377        0.15657382522172       -0.03704637501897
N           -1.99786811147421        0.72349775292016        0.27731480682294
H           -5.41741113934369        3.57390333690114       -0.99071649867324
H           -5.29506301946909        3.77595968021624        0.78296851179767
H           -6.28230193095495        2.45304647765833        0.09347140044801
H           -2.19908094059888       -3.71153818863333        0.94969666984421
H           -3.22489376908646       -3.03483617169409       -0.32271399014071
H           -2.69991236676987       -1.99291475683921        1.00731031443808
H           -0.38061112126696       -0.97318586608197       -1.53638311404848
H            0.36023300701237       -2.18938848299119        1.47812617149840
H            0.99335980596381       -1.20229047855408        2.80366187518579
H           -0.75600571193578       -1.36675244564449        2.58752582389913
H            0.15495659711656        2.10394652164976        1.33655686530675
H           -0.78745589045128        1.25271235438527        2.57326064907527
H            0.98519880783682        1.27039058836079        2.66636188386465
H            1.27621563952790        0.17840419091701       -0.66832619552103
H            7.44397892857817       -0.46749481534593       -0.98810430393405
H            7.33049402917258        1.29148541024729       -0.93756696436925
H            7.19418230468992        0.44628274868582       -2.49576565801505

          :  Hamiltonian                  GFN1-xTB          :
         :: total energy             -82.977040671487 Eh    ::
         :: gradient norm              0.000682138007 Eh/a0 ::
         :: HOMO-LUMO gap              2.610768777348 eV    ::
         :: SCC energy               -83.774832212718 Eh    ::
         :: -> Gsolv                  -0.058243242423 Eh    ::
         :: repulsion energy           0.824481552051 Eh    ::

    * Orbital Energies and Occupations

         #    Occupation            Energy/Eh            Energy/eV
      -------------------------------------------------------------
         1        2.0000           -0.8674114             -23.6035
       ...           ...                  ...                  ...
        55        2.0000           -0.5083991             -13.8342
        56        2.0000           -0.5079747             -13.8227
        57        2.0000           -0.5065412             -13.7837
        58        2.0000           -0.4948714             -13.4661
        59        2.0000           -0.4877224             -13.2716
        60        2.0000           -0.4853081             -13.2059
        61        2.0000           -0.4726585             -12.8617
        62        2.0000           -0.4681708             -12.7396
        63        2.0000           -0.4648224             -12.6485
        64        2.0000           -0.4615924             -12.5606
        65        2.0000           -0.4551971             -12.3865
        66        2.0000           -0.4520356             -12.3005
        67        2.0000           -0.4209115             -11.4536 (HOMO)
        68                         -0.3249675              -8.8428 (LUMO)
        69                         -0.3149362              -8.5699
        70                         -0.3056261              -8.3165
        71                         -0.2753618              -7.4930
        72                         -0.2589570              -7.0466
        73                         -0.2026594              -5.5146
        74                         -0.1687888              -4.5930
        75                         -0.1612537              -4.3879
        76                         -0.1481792              -4.0322
        77                         -0.1431798              -3.8961
        78                         -0.1418366              -3.8596
       ...                                ...                  ...
       134                          0.8437971              22.9609
      -------------------------------------------------------------
                  HL-Gap            0.0959440 Eh            2.6108 eV

Wiberg/Mayer (AO) data.
largest (>0.10) Wiberg bond orders for each atom

     #   Z sym  total        # sym  WBO       # sym  WBO       # sym  WBO
 ---------------------------------------------------------------------------
     1   6 C    3.879 --    27 H    0.986    28 H    0.980    26 H    0.980
                             2 O    0.906
     2   8 O    2.171 --     3 C    1.074     1 C    0.906     4 O    0.120
     3   6 C    3.865 --     4 O    1.614     5 C    1.082     2 O    1.074
     4   8 O    1.891 --     3 C    1.614     2 O    0.120
     5   6 C    3.885 --     6 C    1.351    25 N    1.111     3 C    1.082
                             7 O    0.139
     6   6 C    3.866 --     7 O    1.687     5 C    1.351    11 N    0.661
     7   8 O    2.034 --     6 C    1.687     5 C    0.139
     8   6 C    3.830 --    10 O    1.811     9 C    1.026    11 N    0.893
     9   6 C    3.983 --     8 C    1.026    31 H    0.972    29 H    0.969
                            30 H    0.932
    10   8 O    2.040 --     8 C    1.811
    11   7 N    3.548 --     8 C    0.893    32 H    0.869    12 C    0.863
                             6 C    0.661
    12   6 C    3.889 --    25 N    1.781    13 C    0.990    11 N    0.863
    13   6 C    3.935 --    12 C    0.990    15 C    0.985    14 C    0.979
                            16 N    0.919
    14   6 C    3.986 --    35 H    0.985    33 H    0.981    13 C    0.979
                            34 H    0.975
    15   6 C    3.987 --    36 H    0.985    13 C    0.985    37 H    0.984
                            38 H    0.981
    16   7 N    3.324 --    17 C    1.234    13 C    0.919    39 H    0.895
                            18 O    0.173
    17   6 C    3.914 --    18 O    1.606    16 N    1.234    19 C    0.991
    18   8 O    1.921 --    17 C    1.606    16 N    0.173
    19   6 C    3.876 --    20 N    1.607    24 O    1.065    17 C    0.991
    20   7 N    3.019 --    19 C    1.607    21 N    1.203
    21   7 N    2.981 --    22 C    1.602    20 N    1.203
    22   6 C    3.870 --    21 N    1.602    24 O    1.084    23 C    1.032
    23   6 C    3.986 --    22 C    1.032    42 H    0.982    40 H    0.965
                            41 H    0.961
    24   8 O    2.332 --    22 C    1.084    19 C    1.065
    25   7 N    3.063 --    12 C    1.781     5 C    1.111
    26   1 H    1.009 --     1 C    0.980
    27   1 H    1.012 --     1 C    0.986
    28   1 H    1.009 --     1 C    0.980
    29   1 H    0.994 --     9 C    0.969
    30   1 H    0.991 --     9 C    0.932
    31   1 H    0.997 --     9 C    0.972
    32   1 H    0.920 --    11 N    0.869
    33   1 H    1.003 --    14 C    0.981
    34   1 H    1.009 --    14 C    0.975
    35   1 H    1.002 --    14 C    0.985
    36   1 H    1.004 --    15 C    0.985
    37   1 H    1.005 --    15 C    0.984
    38   1 H    1.006 --    15 C    0.981
    39   1 H    0.951 --    16 N    0.895
    40   1 H    0.996 --    23 C    0.965
    41   1 H    0.996 --    23 C    0.961
    42   1 H    0.998 --    23 C    0.982
 ---------------------------------------------------------------------------

           -------------------------------------------------
          | TOTAL ENERGY              -82.977040671487 Eh   |
          | GRADIENT NORM               0.000682138007 Eh/α |
          | HOMO-LUMO GAP               2.610768777348 eV   |
           -------------------------------------------------

 * finished run on 2023/06/21 at 17:33:21.356
