   * xtb version 6.5.1 (579679a) compiled by 'ehlert@majestix' on 2022-07-11
          program call               : /lustre/hpc/kemi/ree/PhD/git/ReactivityQM/dep/xtb-6.5.1/bin/xtb --gfn 1 /lustre/hpc/kemi/ree/PhD/git/ReactivityQM/calculations/RaltegravirCLI/reac02prodN09/conf15/RaltegravirCLI_reac02prodN09_conf15_gfn1.xyz --opt --vfukui --chrg 1 --uhf 0 --alpb DMSO

   ID    Z sym.   atoms
    1    6 C      1-4, 6-9, 11, 13, 15-18, 21, 22, 24
    2    9 F      5
    3    7 N      10, 14, 19, 20
    4    8 O      12, 23, 25
    5    1 H      26-47

      * Solvation model:               ALPB
        Solvent                        DMSO
        Solvent mass                       7.8130E+01 g/mol
          :  Hamiltonian                  GFN1-xTB          :
 * total energy  :   -79.4670673 Eh     change       -0.1608086E-08 Eh
 * total energy  :   -79.4760647 Eh     change       -0.8997423E-02 Eh
 * total energy  :   -79.4787622 Eh     change       -0.2697493E-02 Eh
 * total energy  :   -79.4793157 Eh     change       -0.5534600E-03 Eh
 * total energy  :   -79.4797291 Eh     change       -0.4134236E-03 Eh
 * total energy  :   -79.4799018 Eh     change       -0.1727260E-03 Eh
 * total energy  :   -79.4800229 Eh     change       -0.1211152E-03 Eh
 * total energy  :   -79.4801171 Eh     change       -0.9415196E-04 Eh
 * total energy  :   -79.4801947 Eh     change       -0.7766620E-04 Eh
 * total energy  :   -79.4802811 Eh     change       -0.8637204E-04 Eh
 * total energy  :   -79.4818741 Eh     change       -0.3529647E-04 Eh
 * total energy  :   -79.4819157 Eh     change       -0.4158934E-04 Eh
 * total energy  :   -79.4819425 Eh     change       -0.2684184E-04 Eh
 * total energy  :   -79.4819647 Eh     change       -0.2213147E-04 Eh
 * total energy  :   -79.4819762 Eh     change       -0.1148254E-04 Eh
 * total energy  :   -79.4820012 Eh     change       -0.2507693E-04 Eh
 * total energy  :   -79.4820106 Eh     change       -0.9338280E-05 Eh
 * total energy  :   -79.4820244 Eh     change       -0.1386155E-04 Eh
 * total energy  :   -79.4820283 Eh     change       -0.3889587E-05 Eh
   *** GEOMETRY OPTIMIZATION CONVERGED AFTER 48 ITERATIONS ***

 final structure:
================
47
 xtb: 6.5.1 (579679a)
C            3.98202131790637        1.66861101777664        0.07306433298785
C            4.53293692904110        0.27921601304661       -0.32927239625775
C            5.16649462307135       -0.41980716593819        0.80360554953710
C            4.97108638031478       -1.75345174793478        0.98660718404463
F            5.56392038824421       -2.37088152548174        2.00069489176831
C            4.14177160836419       -2.51319965061138        0.14926957839889
C            3.48606231503406       -1.89771078964912       -0.90947311273394
C            3.62763114947022       -0.54423287027393       -1.15865454650566
C            2.82425490830204        0.09782587492221       -2.25483213570005
N            1.61636549135108        0.62917347222881       -1.63746884608130
C            0.62439503414233       -0.21858992852501       -1.25809221460331
O            0.65280676350562       -1.40984199652176       -1.52119930095018
C           -0.50611284406661        0.42133620614307       -0.51906077445877
N           -1.67568025909003       -0.27769230826100       -0.55078193657065
C           -2.73513776102414        0.13643926709616        0.07362580720976
C           -3.96204751317084       -0.75881351201189       -0.04354839941935
C           -4.01413495666390       -1.68825315823521        1.17814832464618
C           -3.84471706903345       -1.60531150939567       -1.32359690750189
N           -5.17791667117073        0.03845991362205       -0.10231352596961
N           -2.72781506910213        1.27819076776350        0.83297177229763
C           -3.89244722439659        1.76312010603678        1.58083965414429
C           -1.59680562021241        2.06845493606313        0.92025210654023
O           -1.55457750726933        3.10962710850288        1.56955990428384
C           -0.43891622595601        1.58290262564561        0.19243871805633
O            0.66996660449089        2.34463931572630        0.30420660974025
H            4.71366615433224        2.18301080474055        0.69289244353653
H            3.78906959928744        2.26671790730756       -0.81319624880648
H            3.05652152948693        1.54142828876700        0.63077240780191
H            5.37558229892723        0.51864336335158       -1.00894445539498
H            5.80186886265377        0.15033837945788        1.46952727362078
H            4.01404877856288       -3.57137378160439        0.34577891495856
H            2.82664313245028       -2.48621976243811       -1.53781351920458
H            2.53937347844204       -0.64418118623736       -3.00552002256627
H            3.35845590395331        0.92338703153036       -2.72341645459254
H            1.62673137935972        1.58998975041806       -1.34176695008693
H           -4.14072439668978       -1.11984768581883        2.09776091499544
H           -3.08994427030117       -2.26124612170433        1.24430419014235
H           -4.85123951744093       -2.37754905996876        1.07638672044172
H           -4.74213166064616       -2.21066235682477       -1.43814861106417
H           -2.97561212645659       -2.25915764858024       -1.26643314789592
H           -3.73995987556581       -0.95693076790391       -2.19202149141120
H           -5.23732767802477        0.52321427165632       -0.98729068844362
H           -5.98738641204450       -0.55769071399245       -0.00594601326815
H           -4.56854403579369        2.28389613377589        0.90477365345362
H           -3.53772366824630        2.45114355648467        2.34786962234448
H           -4.41337906870410        0.93153217621081        2.04364997936473
H            0.44860880037444        3.12134895963827        0.85690514517697

          :  Hamiltonian                  GFN1-xTB          :
         :: total energy             -79.482028321451 Eh    ::
         :: gradient norm              0.000950842302 Eh/a0 ::
         :: HOMO-LUMO gap              0.178391340517 eV    ::
         :: SCC energy               -80.363174840448 Eh    ::
         :: -> Gsolv                  -0.103532541035 Eh    ::
         :: repulsion energy           0.912352253650 Eh    ::

    * Orbital Energies and Occupations

         #    Occupation            Energy/Eh            Energy/eV
      -------------------------------------------------------------
         1        2.0000           -0.9143075             -24.8796
       ...           ...                  ...                  ...
        55        2.0000           -0.5205137             -14.1639
        56        2.0000           -0.5164326             -14.0528
        57        2.0000           -0.5093789             -13.8609
        58        2.0000           -0.5021059             -13.6630
        59        2.0000           -0.5017351             -13.6529
        60        2.0000           -0.4939866             -13.4421
        61        2.0000           -0.4834449             -13.1552
        62        2.0000           -0.4769012             -12.9771
        63        2.0000           -0.4670543             -12.7092
        64        2.0000           -0.4610352             -12.5454
        65        2.0000           -0.4481314             -12.1943
        66        2.0000           -0.4325574             -11.7705
        67        1.9385           -0.4224318             -11.4950 (HOMO)
        68        0.0615           -0.4158760             -11.3166 (LUMO)
        69                         -0.3262782              -8.8785
        70                         -0.3229393              -8.7876
        71                         -0.2854762              -7.7682
        72                         -0.2467204              -6.7136
        73                         -0.2395249              -6.5178
        74                         -0.1651595              -4.4942
        75                         -0.1596486              -4.3443
        76                         -0.1507437              -4.1019
        77                         -0.1439083              -3.9159
        78                         -0.1372299              -3.7342
       ...                                ...                  ...
       144                          0.7043833              19.1672
      -------------------------------------------------------------
                  HL-Gap            0.0065558 Eh            0.1784 eV

Wiberg/Mayer (AO) data.
largest (>0.10) Wiberg bond orders for each atom

     #   Z sym  total        # sym  WBO       # sym  WBO       # sym  WBO
 ---------------------------------------------------------------------------
     1   6 C    3.964 --    27 H    0.981    26 H    0.980    28 H    0.978
                             2 C    0.925
     2   6 C    3.986 --     3 C    1.084     8 C    1.082     1 C    0.925
                            29 H    0.825
     3   6 C    3.934 --     4 C    1.537     2 C    1.084    30 H    0.960
     4   6 C    3.882 --     3 C    1.537     6 C    1.290     5 F    0.964
     5   9 F    1.106 --     4 C    0.964
     6   6 C    3.916 --     7 C    1.422     4 C    1.290    31 H    0.961
     7   6 C    3.981 --     8 C    1.470     6 C    1.422    32 H    0.955
     8   6 C    3.903 --     7 C    1.470     2 C    1.082     9 C    1.011
     9   6 C    3.948 --     8 C    1.011    34 H    0.967    33 H    0.966
                            10 N    0.936
    10   7 N    3.329 --    11 C    1.215     9 C    0.936    35 H    0.880
                            12 O    0.154
    11   6 C    3.896 --    12 O    1.603    10 N    1.215    13 C    0.992
    12   8 O    1.910 --    11 C    1.603    10 N    0.154
    13   6 C    3.962 --    24 C    1.502    14 N    1.203    11 C    0.992
    14   7 N    3.026 --    15 C    1.554    13 C    1.203
    15   6 C    3.917 --    14 N    1.554    20 N    1.180    16 C    0.976
    16   6 C    3.958 --    19 N    0.985    18 C    0.982    17 C    0.980
                            15 C    0.976
    17   6 C    3.992 --    37 H    0.985    38 H    0.982    16 C    0.980
                            36 H    0.980
    18   6 C    3.983 --    39 H    0.985    41 H    0.985    16 C    0.982
                            40 H    0.982
    19   7 N    2.953 --    16 C    0.985    42 H    0.935    43 H    0.931
    20   7 N    3.519 --    15 C    1.180    22 C    1.135    21 C    0.924
                            23 O    0.133
    21   6 C    3.915 --    46 H    0.978    45 H    0.975    44 H    0.975
                            20 N    0.924
    22   6 C    3.916 --    23 O    1.547    20 N    1.135    24 C    1.086
    23   8 O    1.894 --    22 C    1.547    20 N    0.133
    24   6 C    3.910 --    13 C    1.502    22 C    1.086    25 O    1.070
    25   8 O    2.069 --    24 C    1.070    47 H    0.795
    26   1 H    0.993 --     1 C    0.980
    27   1 H    0.995 --     1 C    0.981
    28   1 H    1.009 --     1 C    0.978
    29   1 H    0.970 --     2 C    0.825
    30   1 H    0.986 --     3 C    0.960
    31   1 H    0.988 --     6 C    0.961
    32   1 H    1.006 --     7 C    0.955
    33   1 H    1.000 --     9 C    0.966
    34   1 H    0.995 --     9 C    0.967
    35   1 H    0.937 --    10 N    0.880
    36   1 H    1.003 --    17 C    0.980
    37   1 H    1.003 --    17 C    0.985
    38   1 H    0.999 --    17 C    0.982
    39   1 H    1.002 --    18 C    0.985
    40   1 H    1.012 --    18 C    0.982
    41   1 H    1.006 --    18 C    0.985
    42   1 H    0.951 --    19 N    0.935
    43   1 H    0.947 --    19 N    0.931
    44   1 H    1.013 --    21 C    0.975
    45   1 H    1.007 --    21 C    0.975
    46   1 H    1.019 --    21 C    0.978
    47   1 H    0.840 --    25 O    0.795
 ---------------------------------------------------------------------------

           -------------------------------------------------
          | TOTAL ENERGY              -79.482028321451 Eh   |
          | GRADIENT NORM               0.000950842302 Eh/α |
          | HOMO-LUMO GAP               0.178391340517 eV   |
           -------------------------------------------------

 * finished run on 2023/06/20 at 15:28:51.297
