                         Program Version 5.0.1 -  RELEASE  -
|  1> # ORCA input file
|  2> ! SP r2SCAN-3c CPCM
|  3>
|  4> %maxcore 1875.0
|  5> %pal nprocs 4 end
|  6> %cpcm smd true SMDsolvent "DMSO" end
|  7>
|  8> *xyz -2 1
|  9> C      -6.016467   -1.499950   -1.129612
| 10> O      -4.847724   -0.905219   -0.590607
| 11> C      -4.893512   -0.619368    0.752091
| 12> O      -5.901002   -0.879319    1.395943
| 13> C      -3.667647   -0.015907    1.235160
| 14> N      -2.683527    0.172104    0.278521
| 15> C      -1.557391    0.700270    0.597344
| 16> C      -0.492735    0.931716   -0.468569
| 17> C      -0.955245    0.264056   -1.767960
| 18> C      -0.325850    2.443025   -0.709662
| 19> N       0.770960    0.292591   -0.090169
| 20> C       1.716178    0.882408    0.757349
| 21> O       1.404263    1.758504    1.600949
| 22> C       3.015775    0.354492    0.620330
| 23> N       4.091138    0.678903    1.326227
| 24> N       5.131632    0.011347    0.934083
| 25> C       4.710025   -0.867123   -0.168616
| 26> C       4.948636   -2.336285    0.217337
| 27> C       5.486914   -0.505609   -1.444890
| 28> O       3.321857   -0.624626   -0.349856
| 29> N      -1.283396    1.102739    1.881288
| 30> C      -2.153641    0.978757    2.923092
| 31> O      -1.833856    1.361673    4.051287
| 32> C      -3.493322    0.356124    2.594180
| 33> O      -4.329834    0.212868    3.508510
| 34> H      -6.231692   -2.454998   -0.638969
| 35> H      -6.882257   -0.840827   -1.008753
| 36> H      -5.831210   -1.667968   -2.189389
| 37> H      -1.916167    0.675333   -2.074940
| 38> H      -0.228610    0.438195   -2.559325
| 39> H      -1.071258   -0.809333   -1.620069
| 40> H      -1.264061    2.852660   -1.082099
| 41> H       0.451957    2.615240   -1.452104
| 42> H      -0.057919    2.963048    0.208618
| 43> H       1.191868   -0.223420   -0.850213
| 44> H       6.009678   -2.500529    0.392602
| 45> H       4.397380   -2.565800    1.128173
| 46> H       4.608873   -2.994618   -0.580107
| 47> H       6.553806   -0.631910   -1.272212
| 48> H       5.289053    0.532970   -1.704951
| 49> H       5.177384   -1.144076   -2.269992
| 50> H      -0.359056    1.507858    2.061541
| 51> **                         ****END OF INPUT****

CARTESIAN COORDINATES (ANGSTROEM)
---------------------------------
  C     -6.016467   -1.499950   -1.129612
  O     -4.847724   -0.905219   -0.590607
  C     -4.893512   -0.619368    0.752091
  O     -5.901002   -0.879319    1.395943
  C     -3.667647   -0.015907    1.235160
  N     -2.683527    0.172104    0.278521
  C     -1.557391    0.700270    0.597344
  C     -0.492735    0.931716   -0.468569
  C     -0.955245    0.264056   -1.767960
  C     -0.325850    2.443025   -0.709662
  N      0.770960    0.292591   -0.090169
  C      1.716178    0.882408    0.757349
  O      1.404263    1.758504    1.600949
  C      3.015775    0.354492    0.620330
  N      4.091138    0.678903    1.326227
  N      5.131632    0.011347    0.934083
  C      4.710025   -0.867123   -0.168616
  C      4.948636   -2.336285    0.217337
  C      5.486914   -0.505609   -1.444890
  O      3.321857   -0.624626   -0.349856
  N     -1.283396    1.102739    1.881288
  C     -2.153641    0.978757    2.923092
  O     -1.833856    1.361673    4.051287
  C     -3.493322    0.356124    2.594180
  O     -4.329834    0.212868    3.508510
  H     -6.231692   -2.454998   -0.638969
  H     -6.882257   -0.840827   -1.008753
  H     -5.831210   -1.667968   -2.189389
  H     -1.916167    0.675333   -2.074940
  H     -0.228610    0.438195   -2.559325
  H     -1.071258   -0.809333   -1.620069
  H     -1.264061    2.852660   -1.082099
  H      0.451957    2.615240   -1.452104
  H     -0.057919    2.963048    0.208618
  H      1.191868   -0.223420   -0.850213
  H      6.009678   -2.500529    0.392602
  H      4.397380   -2.565800    1.128173
  H      4.608873   -2.994618   -0.580107
  H      6.553806   -0.631910   -1.272212
  H      5.289053    0.532970   -1.704951
  H      5.177384   -1.144076   -2.269992
  H     -0.359056    1.507858    2.061541

 Total Charge           Charge          ....   -2
 Multiplicity           Mult            ....    1
 Number of Electrons    NEL             ....  186
 Basis Dimension        Dim             ....  615

ORBITAL ENERGIES
----------------

  NO   OCC          E(Eh)            E(eV)
   0   2.0000     -18.961319      -515.9637
   1   2.0000     -18.953369      -515.7474
   2   2.0000     -18.897300      -514.2217
   3   2.0000     -18.895068      -514.1609
   4   2.0000     -18.891474      -514.0631
   5   2.0000     -18.870041      -513.4799
   6   2.0000     -14.178590      -385.8190
   7   2.0000     -14.165758      -385.4699
   8   2.0000     -14.158174      -385.2635
   9   2.0000     -14.129510      -384.4835
  10   2.0000     -14.125609      -384.3773
  11   2.0000     -10.118078      -275.3269
  12   2.0000     -10.104085      -274.9461
  13   2.0000     -10.102736      -274.9094
  14   2.0000     -10.089827      -274.5582
  15   2.0000     -10.075750      -274.1751
  16   2.0000     -10.075200      -274.1601
  17   2.0000     -10.063710      -273.8475
  18   2.0000     -10.059015      -273.7197
  19   2.0000     -10.057840      -273.6877
  20   2.0000     -10.027154      -272.8527
  21   2.0000     -10.008588      -272.3475
  22   2.0000     -10.006132      -272.2807
  23   2.0000     -10.002925      -272.1934
  24   2.0000     -10.002900      -272.1927
  25   2.0000      -1.034254       -28.1435
  26   2.0000      -1.030857       -28.0510
  27   2.0000      -0.984853       -26.7992
  28   2.0000      -0.966758       -26.3068
  29   2.0000      -0.940889       -25.6029
  30   2.0000      -0.926336       -25.2069
  31   2.0000      -0.920312       -25.0430
  32   2.0000      -0.912411       -24.8280
  33   2.0000      -0.866923       -23.5902
  34   2.0000      -0.834259       -22.7013
  35   2.0000      -0.767450       -20.8834
  36   2.0000      -0.742030       -20.1917
  37   2.0000      -0.696924       -18.9643
  38   2.0000      -0.669135       -18.2081
  39   2.0000      -0.661445       -17.9988
  40   2.0000      -0.647324       -17.6146
  41   2.0000      -0.644093       -17.5267
  42   2.0000      -0.609342       -16.5811
  43   2.0000      -0.598226       -16.2786
  44   2.0000      -0.582456       -15.8494
  45   2.0000      -0.540049       -14.6955
  46   2.0000      -0.528333       -14.3767
  47   2.0000      -0.515827       -14.0364
  48   2.0000      -0.506669       -13.7872
  49   2.0000      -0.484961       -13.1965
  50   2.0000      -0.476689       -12.9714
  51   2.0000      -0.466831       -12.7031
  52   2.0000      -0.444258       -12.0889
  53   2.0000      -0.424939       -11.5632
  54   2.0000      -0.420494       -11.4422
  55   2.0000      -0.418115       -11.3775
  56   2.0000      -0.408579       -11.1180
  57   2.0000      -0.407575       -11.0907
  58   2.0000      -0.399158       -10.8616
  59   2.0000      -0.396265       -10.7829
  60   2.0000      -0.378038       -10.2869
  61   2.0000      -0.374648       -10.1947
  62   2.0000      -0.372565       -10.1380
  63   2.0000      -0.364128        -9.9084
  64   2.0000      -0.357684        -9.7331
  65   2.0000      -0.348949        -9.4954
  66   2.0000      -0.348326        -9.4784
  67   2.0000      -0.345212        -9.3937
  68   2.0000      -0.343067        -9.3353
  69   2.0000      -0.340453        -9.2642
  70   2.0000      -0.337268        -9.1775
  71   2.0000      -0.336776        -9.1641
  72   2.0000      -0.328518        -8.9394
  73   2.0000      -0.322737        -8.7821
  74   2.0000      -0.315557        -8.5867
  75   2.0000      -0.309040        -8.4094
  76   2.0000      -0.301119        -8.1939
  77   2.0000      -0.296754        -8.0751
  78   2.0000      -0.295435        -8.0392
  79   2.0000      -0.294531        -8.0146
  80   2.0000      -0.269219        -7.3258
  81   2.0000      -0.264904        -7.2084
  82   2.0000      -0.243193        -6.6176
  83   2.0000      -0.232281        -6.3207
  84   2.0000      -0.231604        -6.3023
  85   2.0000      -0.221708        -6.0330
  86   2.0000      -0.216698        -5.8967
  87   2.0000      -0.211280        -5.7492
  88   2.0000      -0.202172        -5.5014
  89   2.0000      -0.195977        -5.3328
  90   2.0000      -0.158967        -4.3257
  91   2.0000      -0.149098        -4.0572
  92   2.0000      -0.124777        -3.3953
  93   0.0000      -0.043502        -1.1837
  94   0.0000      -0.031859        -0.8669
  95   0.0000       0.003909         0.1064
  96   0.0000       0.052121         1.4183
  97   0.0000       0.066003         1.7960

MULLIKEN ATOMIC CHARGES
-----------------------
   0 C :   -0.325469
   1 O :   -0.196775
   2 C :    0.081685
   3 O :   -0.406809
   4 C :    0.008123
   5 N :   -0.125099
   6 C :   -0.025561
   7 C :    0.324389
   8 C :   -0.643778
   9 C :   -0.607979
  10 N :   -0.232412
  11 C :   -0.226915
  12 O :   -0.545508
  13 C :    0.217414
  14 N :   -0.138297
  15 N :   -0.361214
  16 C :    0.227800
  17 C :   -0.565149
  18 C :   -0.565623
  19 O :   -0.172188
  20 N :   -0.016526
  21 C :   -0.004585
  22 O :   -0.409240
  23 C :   -0.121726
  24 O :   -0.370220
  25 H :    0.160731
  26 H :    0.160725
  27 H :    0.160489
  28 H :    0.188733
  29 H :    0.175064
  30 H :    0.182928
  31 H :    0.174272
  32 H :    0.182932
  33 H :    0.193241
  34 H :    0.322668
  35 H :    0.170047
  36 H :    0.164462
  37 H :    0.166124
  38 H :    0.170941
  39 H :    0.164243
  40 H :    0.165779
  41 H :    0.298285
Sum of atomic charges:   -2.0000000

LOEWDIN ATOMIC CHARGES
----------------------
   0 C :   -0.058358
   1 O :   -0.624005
   2 C :    0.384798
   3 O :   -0.476039
   4 C :    0.114243
   5 N :   -0.618888
   6 C :    0.313408
   7 C :    0.096929
   8 C :   -0.351912
   9 C :   -0.361824
  10 N :   -0.636071
  11 C :    0.344651
  12 O :   -0.595155
  13 C :    0.314707
  14 N :   -0.429031
  15 N :   -0.477918
  16 C :    0.237734
  17 C :   -0.371182
  18 C :   -0.371555
  19 O :   -0.572763
  20 N :   -0.489588
  21 C :    0.349377
  22 O :   -0.495385
  23 C :    0.225562
  24 O :   -0.579865
  25 H :    0.171301
  26 H :    0.171184
  27 H :    0.175632
  28 H :    0.176082
  29 H :    0.162021
  30 H :    0.171399
  31 H :    0.165543
  32 H :    0.167023
  33 H :    0.178914
  34 H :    0.290146
  35 H :    0.167251
  36 H :    0.165566
  37 H :    0.162534
  38 H :    0.167413
  39 H :    0.165483
  40 H :    0.162341
  41 H :    0.308297

  Mayer bond orders larger than 0.100000
B(  0-C ,  1-O ) :   0.8550 B(  0-C , 25-H ) :   0.9639 B(  0-C , 26-H ) :   0.9638
B(  0-C , 27-H ) :   0.9688 B(  1-O ,  2-C ) :   1.0446 B(  2-C ,  3-O ) :   1.9015
B(  2-C ,  4-C ) :   1.0840 B(  4-C ,  5-N ) :   0.9344 B(  4-C , 23-C ) :   1.0237
B(  4-C , 24-O ) :  -0.1462 B(  5-N ,  6-C ) :   1.8634 B(  5-N ,  7-C ) :  -0.1016
B(  6-C ,  7-C ) :   0.9867 B(  6-C , 20-N ) :   1.1082 B(  7-C ,  8-C ) :   0.8700
B(  7-C ,  9-C ) :   0.8632 B(  7-C , 10-N ) :   0.7637 B(  8-C , 28-H ) :   0.9724
B(  8-C , 29-H ) :   0.9767 B(  8-C , 30-H ) :   0.9716 B(  9-C , 31-H ) :   0.9645
B(  9-C , 32-H ) :   0.9825 B(  9-C , 33-H ) :   0.9601 B( 10-N , 11-C ) :   1.0409
B( 10-N , 34-H ) :   0.8759 B( 11-C , 12-O ) :   1.7216 B( 11-C , 13-C ) :   1.0768
B( 11-C , 15-N ) :   0.1857 B( 13-C , 14-N ) :   1.5353 B( 13-C , 19-O ) :   0.9595
B( 14-N , 15-N ) :   1.6521 B( 15-N , 16-C ) :   0.8359 B( 16-C , 17-C ) :   0.9341
B( 16-C , 18-C ) :   0.9317 B( 16-C , 19-O ) :   0.7823 B( 17-C , 35-H ) :   0.9654
B( 17-C , 36-H ) :   0.9705 B( 17-C , 37-H ) :   0.9764 B( 18-C , 38-H ) :   0.9665
B( 18-C , 39-H ) :   0.9701 B( 18-C , 40-H ) :   0.9762 B( 20-N , 21-C ) :   1.0338
B( 20-N , 41-H ) :   0.8309 B( 21-C , 22-O ) :   2.0713 B( 21-C , 23-C ) :   0.8786
B( 23-C , 24-O ) :   1.9703

Dispersion correction           -0.018922420
FINAL SINGLE POINT ENERGY     -1268.897474743943

DIPOLE MOMENT
-------------
                                X             Y             Z
Electronic contribution:    -14.83328       4.89568      18.54375
Nuclear contribution   :     15.70466      -6.47146     -25.68195
                        -----------------------------------------
Total Dipole Moment    :      0.87138      -1.57578      -7.13821
                        -----------------------------------------
Magnitude (a.u.)       :      7.36182
Magnitude (Debye)      :     18.71225

Rotational constants in cm-1:     0.014525     0.003336     0.003029
Rotational constants in MHz :   435.445133    99.996084    90.819368

                             ****ORCA TERMINATED NORMALLY****
TOTAL RUN TIME: 0 days 0 hours 2 minutes 40 seconds 723 msec
