   * xtb version 6.5.1 (579679a) compiled by 'ehlert@majestix' on 2022-07-11
          program call               : /lustre/hpc/kemi/ree/PhD/git/ReactivityQM/dep/xtb-6.5.1/bin/xtb --gfn 1 /lustre/hpc/kemi/ree/PhD/git/ReactivityQM/calculations/R02methylcation/reac01prodE11/conf14/R02methylcation_reac01prodE11_conf14_gfn1.xyz --opt --vfukui --chrg -2 --uhf 0 --alpb DMSO

   ID    Z sym.   atoms
    1    6 C      1, 3, 5, 7-10, 12, 14, 17-19, 22, 24
    2    8 O      2, 4, 13, 20, 23, 25
    3    7 N      6, 11, 15, 16, 21
    4    1 H      26-42

      * Solvation model:               ALPB
        Solvent                        DMSO
        Solvent mass                       7.8130E+01 g/mol
          :  Hamiltonian                  GFN1-xTB          :
 * total energy  :   -83.6552549 Eh     change       -0.3907985E-11 Eh
 * total energy  :   -83.6642089 Eh     change       -0.8953989E-02 Eh
 * total energy  :   -83.6668744 Eh     change       -0.2665413E-02 Eh
 * total energy  :   -83.6674747 Eh     change       -0.6003235E-03 Eh
 * total energy  :   -83.6681354 Eh     change       -0.6607670E-03 Eh
 * total energy  :   -83.6684886 Eh     change       -0.3531550E-03 Eh
 * total energy  :   -83.6687596 Eh     change       -0.2709741E-03 Eh
 * total energy  :   -83.6689838 Eh     change       -0.2242255E-03 Eh
 * total energy  :   -83.6691332 Eh     change       -0.1493827E-03 Eh
 * total energy  :   -83.6692228 Eh     change       -0.8959585E-04 Eh
 * total energy  :   -83.6704797 Eh     change       -0.2759183E-04 Eh
 * total energy  :   -83.6705025 Eh     change       -0.2274543E-04 Eh
 * total energy  :   -83.6705228 Eh     change       -0.2035590E-04 Eh
 * total energy  :   -83.6705478 Eh     change       -0.2494071E-04 Eh
 * total energy  :   -83.6705783 Eh     change       -0.3050177E-04 Eh
 * total energy  :   -83.6705952 Eh     change       -0.1692037E-04 Eh
 * total energy  :   -83.6706024 Eh     change       -0.7230960E-05 Eh
 * total energy  :   -83.6706097 Eh     change       -0.7299772E-05 Eh
 * total energy  :   -83.6706130 Eh     change       -0.3259186E-05 Eh
   *** GEOMETRY OPTIMIZATION CONVERGED AFTER 40 ITERATIONS ***

 final structure:
================
42
 xtb: 6.5.1 (579679a)
C           -6.01646720705417       -1.49994964471791       -1.12961206711396
O           -4.84772389193643       -0.90521879106711       -0.59060667747898
C           -4.89351171732310       -0.61936756122867        0.75209082622479
O           -5.90100226614351       -0.87931934871001        1.39594339744258
C           -3.66764688378028       -0.01590722421272        1.23516024504796
N           -2.68352747905618        0.17210415974674        0.27852105887418
C           -1.55739105282681        0.70026991413551        0.59734359926860
C           -0.49273484112720        0.93171628884274       -0.46856875297945
C           -0.95524513449326        0.26405612091060       -1.76795984421322
C           -0.32585022136943        2.44302538628235       -0.70966240188848
N            0.77095990411664        0.29259137985779       -0.09016922532923
C            1.71617805109424        0.88240795541341        0.75734885440336
O            1.40426259314435        1.75850381793042        1.60094853908335
C            3.01577532315571        0.35449167164435        0.62032980472059
N            4.09113849695445        0.67890320061564        1.32622738831290
N            5.13163200987603        0.01134716434037        0.93408322653350
C            4.71002500573674       -0.86712336379748       -0.16861643498446
C            4.94863561931374       -2.33628465737836        0.21733674137758
C            5.48691423268142       -0.50560864529188       -1.44489032082799
O            3.32185719699120       -0.62462612500195       -0.34985606488316
N           -1.28339550788900        1.10273915876929        1.88128793042496
C           -2.15364145625828        0.97875666957394        2.92309198377267
O           -1.83385620674642        1.36167310163301        4.05128712990384
C           -3.49332153288360        0.35612385321363        2.59418010277011
O           -4.32983443439693        0.21286754999036        3.50851043332142
H           -6.23169203903407       -2.45499792378163       -0.63896856565503
H           -6.88225669504127       -0.84082651834457       -1.00875342450270
H           -5.83121032489738       -1.66796752329387       -2.18938870895638
H           -1.91616704517538        0.67533296310847       -2.07493958543855
H           -0.22861043598222        0.43819500538764       -2.55932472375231
H           -1.07125766138965       -0.80933315056002       -1.62006886196580
H           -1.26406071729512        2.85265975816097       -1.08209949604173
H            0.45195741478957        2.61523998917717       -1.45210427260101
H           -0.05791939795454        2.96304818913896        0.20861756710227
H            1.19186783759719       -0.22342030524682       -0.85021322084361
H            6.00967813576553       -2.50052871004011        0.39260209920746
H            4.39738044036098       -2.56579972307071        1.12817320051650
H            4.60887340238265       -2.99461807050823       -0.58010739065605
H            6.55380552238066       -0.63191033302272       -1.27221170588031
H            5.28905348447920        0.53297007440740       -1.70495128264356
H            5.17738435864034       -1.14407583174085       -2.26999196786335
H           -0.35905587941124        1.50785807873212        2.06154086818745

          :  Hamiltonian                  GFN1-xTB          :
         :: total energy             -83.670612999703 Eh    ::
         :: gradient norm              0.000924033104 Eh/a0 ::
         :: HOMO-LUMO gap              1.486521626293 eV    ::
         :: SCC energy               -84.406049324807 Eh    ::
         :: -> Gsolv                  -0.262885771161 Eh    ::
         :: repulsion energy           0.761122942369 Eh    ::

    * Orbital Energies and Occupations

         #    Occupation            Energy/Eh            Energy/eV
      -------------------------------------------------------------
         1        2.0000           -0.7894816             -21.4829
       ...           ...                  ...                  ...
        56        2.0000           -0.4438540             -12.0779
        57        2.0000           -0.4407787             -11.9942
        58        2.0000           -0.4309005             -11.7254
        59        2.0000           -0.4287448             -11.6667
        60        2.0000           -0.4218108             -11.4781
        61        2.0000           -0.4104219             -11.1681
        62        2.0000           -0.4053846             -11.0311
        63        2.0000           -0.3981283             -10.8336
        64        2.0000           -0.3885532             -10.5731
        65        2.0000           -0.3663988              -9.9702
        66        2.0000           -0.3634647              -9.8904
        67        2.0000           -0.3521801              -9.5833
        68        2.0000           -0.3124044              -8.5010 (HOMO)
        69                         -0.2577757              -7.0144 (LUMO)
        70                         -0.2348003              -6.3892
        71                         -0.2217280              -6.0335
        72                         -0.1841773              -5.0117
        73                         -0.1225129              -3.3337
        74                         -0.1186283              -3.2280
        75                         -0.1034497              -2.8150
        76                         -0.1015558              -2.7635
        77                         -0.1001056              -2.7240
        78                         -0.0954772              -2.5981
        79                         -0.0948015              -2.5797
       ...                                ...                  ...
       134                          0.7708156              20.9750
      -------------------------------------------------------------
                  HL-Gap            0.0546287 Eh            1.4865 eV

Wiberg/Mayer (AO) data.
largest (>0.10) Wiberg bond orders for each atom

     #   Z sym  total        # sym  WBO       # sym  WBO       # sym  WBO
 ---------------------------------------------------------------------------
     1   6 C    3.904 --    28 H    0.987    27 H    0.980    26 H    0.980
                             2 O    0.932
     2   8 O    2.131 --     3 C    1.015     1 C    0.932     4 O    0.105
     3   6 C    3.848 --     4 O    1.581     5 C    1.132     2 O    1.015
     4   8 O    1.859 --     3 C    1.581     2 O    0.105
     5   6 C    3.918 --    24 C    1.271     6 N    1.147     3 C    1.132
                            25 O    0.128
     6   7 N    3.022 --     7 C    1.626     5 C    1.147
     7   6 C    3.933 --     6 N    1.626    21 N    1.117     8 C    0.971
     8   6 C    3.957 --     9 C    1.001    10 C    0.981     7 C    0.971
                            11 N    0.944
     9   6 C    3.996 --     8 C    1.001    30 H    0.987    31 H    0.985
                            29 H    0.984
    10   6 C    3.992 --    32 H    0.987    33 H    0.986     8 C    0.981
                            34 H    0.980
    11   7 N    3.190 --    12 C    1.086     8 C    0.944    35 H    0.916
    12   6 C    3.924 --    13 O    1.414    14 C    1.239    11 N    1.086
    13   8 O    1.808 --    12 C    1.414
    14   6 C    3.843 --    15 N    1.391    12 C    1.239    20 O    0.922
                            16 N    0.154
    15   7 N    3.025 --    16 N    1.477    14 C    1.391
    16   7 N    2.881 --    15 N    1.477    17 C    0.981    14 C    0.154
    17   6 C    3.899 --    16 N    0.981    19 C    0.978    18 C    0.978
                            20 O    0.923
    18   6 C    3.994 --    36 H    0.988    38 H    0.987    37 H    0.986
                            17 C    0.978
    19   6 C    3.994 --    39 H    0.988    41 H    0.987    40 H    0.985
                            17 C    0.978
    20   8 O    2.052 --    17 C    0.923    14 C    0.922
    21   7 N    3.447 --    22 C    1.189     7 C    1.117    42 H    0.845
                            23 O    0.137
    22   6 C    3.886 --    23 O    1.555    21 N    1.189    24 C    0.971
    23   8 O    1.833 --    22 C    1.555    21 N    0.137
    24   6 C    3.943 --    25 O    1.511     5 C    1.271    22 C    0.971
    25   8 O    1.813 --    24 C    1.511     5 C    0.128
    26   1 H    1.015 --     1 C    0.980
    27   1 H    1.015 --     1 C    0.980
    28   1 H    1.017 --     1 C    0.987
    29   1 H    1.017 --     9 C    0.984
    30   1 H    1.003 --     9 C    0.987
    31   1 H    1.011 --     9 C    0.985
    32   1 H    1.006 --    10 C    0.987
    33   1 H    1.004 --    10 C    0.986
    34   1 H    1.018 --    10 C    0.980
    35   1 H    0.966 --    11 N    0.916
    36   1 H    1.010 --    18 C    0.988
    37   1 H    1.015 --    18 C    0.986
    38   1 H    1.008 --    18 C    0.987
    39   1 H    1.011 --    19 C    0.988
    40   1 H    1.014 --    19 C    0.985
    41   1 H    1.008 --    19 C    0.987
    42   1 H    0.952 --    21 N    0.845
 ---------------------------------------------------------------------------

           -------------------------------------------------
          | TOTAL ENERGY              -83.670612999703 Eh   |
          | GRADIENT NORM               0.000924033104 Eh/α |
          | HOMO-LUMO GAP               1.486521626293 eV   |
           -------------------------------------------------

 * finished run on 2023/06/21 at 17:22:35.885
