   * xtb version 6.5.1 (579679a) compiled by 'ehlert@majestix' on 2022-07-11
          program call               : /lustre/hpc/kemi/ree/PhD/git/ReactivityQM/dep/xtb-6.5.1/bin/xtb --gfn 1 /lustre/hpc/kemi/ree/PhD/git/ReactivityQM/calculations/R03/reac02prodE14/conf13/R03_reac02prodE14_conf13_gfn1.xyz --opt --vfukui --chrg -1 --uhf 0 --alpb DMSO

   ID    Z sym.   atoms
    1    6 C      1, 3, 5, 7-10, 12, 14, 17, 18, 21, 22, 24, 25
    2    8 O      2, 4, 13, 19, 23, 26
    3    7 N      6, 11, 15, 16, 20
    4    1 H      27-46

      * Solvation model:               ALPB
        Solvent                        DMSO
        Solvent mass                       7.8130E+01 g/mol
          :  Hamiltonian                  GFN1-xTB          :
 * total energy  :   -87.0474035 Eh     change       -0.9795542E-10 Eh
 * total energy  :   -87.0615585 Eh     change       -0.1415507E-01 Eh
 * total energy  :   -87.0670267 Eh     change       -0.5468140E-02 Eh
 * total energy  :   -87.0677507 Eh     change       -0.7240308E-03 Eh
 * total energy  :   -87.0682378 Eh     change       -0.4870515E-03 Eh
 * total energy  :   -87.0684668 Eh     change       -0.2290213E-03 Eh
 * total energy  :   -87.0687140 Eh     change       -0.2471711E-03 Eh
 * total energy  :   -87.0689090 Eh     change       -0.1950020E-03 Eh
 * total energy  :   -87.0690316 Eh     change       -0.1226818E-03 Eh
 * total energy  :   -87.0691075 Eh     change       -0.7589011E-04 Eh
 * total energy  :   -87.0693013 Eh     change       -0.6455026E-04 Eh
 * total energy  :   -87.0693510 Eh     change       -0.4966575E-04 Eh
 * total energy  :   -87.0693779 Eh     change       -0.2693857E-04 Eh
 * total energy  :   -87.0693963 Eh     change       -0.1838673E-04 Eh
 * total energy  :   -87.0694085 Eh     change       -0.1221492E-04 Eh
 * total energy  :   -87.0694200 Eh     change       -0.1153902E-04 Eh
 * total energy  :   -87.0694265 Eh     change       -0.6457891E-05 Eh
 * total energy  :   -87.0694352 Eh     change       -0.8690470E-05 Eh
 * total energy  :   -87.0694401 Eh     change       -0.4932495E-05 Eh
   *** GEOMETRY OPTIMIZATION CONVERGED AFTER 21 ITERATIONS ***

 final structure:
================
46
 xtb: 6.5.1 (579679a)
C           -5.06092617663990        2.95901480295767        1.42118058856910
O           -4.23720152274403        2.16916692946507        0.57928579618820
C           -3.15318208986498        1.55556435634108        1.22024354309797
O           -2.97081919691776        1.76864822127714        2.42588794162506
C           -2.37804355814697        0.74816618785305        0.36424206719991
N           -1.29031857830805        0.15515293291736        0.92294910322977
C           -0.44956307494865       -0.57323399501280        0.28229314052838
C            0.65977408169157       -1.23259542207490        1.08632791739814
C            0.52205085492622       -2.76344324204533        1.08053649243743
C            0.58703517449698       -0.72675137126420        2.53624662113312
N            1.96735291196262       -0.81685004452215        0.53378685785152
C            3.15059241035306       -1.29513582783117        0.95139677638042
O            3.32035169694211       -2.19558953076578        1.76020333092734
C            4.30557732428102       -0.61536754979016        0.29982116798545
N            5.56750387697673       -0.82425657710331        0.51599628635935
N            6.25379908759426        0.03120344896285       -0.29556973370169
C            5.36816103216754        0.70904300926458       -0.95643503920059
C            5.60352218600666        1.76201786723593       -1.96837143429012
O            4.11603699723012        0.35025873853829       -0.62688556748478
N           -0.60208671805710       -0.80629093916542       -1.11784803994604
C            0.32866925321083       -1.61689179838625       -1.90161059857672
C           -1.65057281162728       -0.30751033727460       -1.82070595760270
O           -1.76893765871199       -0.54890314724009       -3.02442305368751
C           -2.71847859997996        0.53446323747565       -1.09548377313592
C           -4.05476831632830       -0.22198909758921       -1.28013531382636
O           -2.77993517237346        1.77249513122109       -1.81635546671499
H           -5.87141788329232        3.34958676234442        0.80598990899649
H           -5.48038352227450        2.35792892876738        2.23650946587584
H           -4.49703379441736        3.79312691381825        1.85483810486418
H            0.81780986491596       -3.18952938215746        0.12541546414753
H           -0.51952458184949       -3.02036006535900        1.27150488337486
H            1.13902037717840       -3.20818847903691        1.85987639535198
H            1.39125961106254       -1.16716189744308        3.12355905531811
H            0.67872981031059        0.35852577684965        2.55959603072347
H           -0.37000857010021       -1.00668356042349        2.97438096290002
H            1.97577081706280        0.00677267421027       -0.04695319812092
H            6.66915826884088        1.96114102043730       -2.04722461596704
H            5.22249970523566        1.43901630267807       -2.93716124355280
H            5.07906258660126        2.67455355514657       -1.68611665654861
H            0.44399391737015       -1.16184926121605       -2.88689038222474
H           -0.06811197223691       -2.62649496172345       -2.02906423150720
H            1.30116670555472       -1.66370034592788       -1.42367256074360
H           -4.23548247994087       -0.38379384926355       -2.34256499691985
H           -4.87616449174439        0.35766825361735       -0.86621819675031
H           -4.00565584168265       -1.18423892114431       -0.77197472888171
H           -3.43028793978111        2.34329755238240       -1.38152711308447

          :  Hamiltonian                  GFN1-xTB          :
         :: total energy             -87.069440116745 Eh    ::
         :: gradient norm              0.000789892343 Eh/a0 ::
         :: HOMO-LUMO gap              0.729221585109 eV    ::
         :: SCC energy               -87.867033132022 Eh    ::
         :: -> Gsolv                  -0.113906920863 Eh    ::
         :: repulsion energy           0.827049888059 Eh    ::

    * Orbital Energies and Occupations

         #    Occupation            Energy/Eh            Energy/eV
      -------------------------------------------------------------
         1        2.0000           -0.8609385             -23.4273
       ...           ...                  ...                  ...
        59        2.0000           -0.4694766             -12.7751
        60        2.0000           -0.4675140             -12.7217
        61        2.0000           -0.4565170             -12.4225
        62        2.0000           -0.4535189             -12.3409
        63        2.0000           -0.4454560             -12.1215
        64        2.0000           -0.4450937             -12.1116
        65        2.0000           -0.4427789             -12.0486
        66        2.0000           -0.4349610             -11.8359
        67        2.0000           -0.4208754             -11.4526
        68        2.0000           -0.4161878             -11.3250
        69        2.0000           -0.4042611             -11.0005
        70        2.0000           -0.3833286             -10.4309
        71        2.0000           -0.3297009              -8.9716 (HOMO)
        72        0.0000           -0.3029025              -8.2424 (LUMO)
        73                         -0.2530937              -6.8870
        74                         -0.2434341              -6.6242
        75                         -0.2012012              -5.4750
        76                         -0.1914318              -5.2091
        77                         -0.1429118              -3.8888
        78                         -0.1410608              -3.8385
        79                         -0.1235932              -3.3631
        80                         -0.1116461              -3.0380
        81                         -0.1095647              -2.9814
        82                         -0.1026125              -2.7922
       ...                                ...                  ...
       144                          0.7336153              19.9627
      -------------------------------------------------------------
                  HL-Gap            0.0267984 Eh            0.7292 eV

Wiberg/Mayer (AO) data.
largest (>0.10) Wiberg bond orders for each atom

     #   Z sym  total        # sym  WBO       # sym  WBO       # sym  WBO
 ---------------------------------------------------------------------------
     1   6 C    3.907 --    27 H    0.987    28 H    0.981    29 H    0.981
                             2 O    0.935
     2   8 O    2.104 --     3 C    0.946     1 C    0.935
     3   6 C    3.863 --     4 O    1.494     5 C    1.292     2 O    0.946
     4   8 O    1.797 --     3 C    1.494     5 C    0.108
     5   6 C    3.860 --     3 C    1.292     6 N    1.219    24 C    0.975
                             7 C    0.113     4 O    0.108
     6   7 N    3.064 --     7 C    1.607     5 C    1.219
     7   6 C    3.897 --     6 N    1.607     8 C    0.981    20 N    0.978
                             5 C    0.113
     8   6 C    3.924 --    10 C    0.991     9 C    0.988     7 C    0.981
                            11 N    0.900
     9   6 C    3.990 --     8 C    0.988    31 H    0.986    30 H    0.982
                            32 H    0.981
    10   6 C    3.992 --     8 C    0.991    33 H    0.985    34 H    0.985
                            35 H    0.984
    11   7 N    3.370 --    12 C    1.280     8 C    0.900    36 H    0.899
                            13 O    0.181
    12   6 C    3.921 --    13 O    1.572    11 N    1.280    14 C    0.985
    13   8 O    1.891 --    12 C    1.572    11 N    0.181
    14   6 C    3.868 --    15 N    1.627    19 O    1.047    12 C    0.985
    15   7 N    2.996 --    14 C    1.627    16 N    1.193
    16   7 N    2.981 --    17 C    1.616    15 N    1.193
    17   6 C    3.870 --    16 N    1.616    19 O    1.072    18 C    1.031
    18   6 C    3.987 --    17 C    1.031    37 H    0.983    39 H    0.966
                            38 H    0.962
    19   8 O    2.315 --    17 C    1.072    14 C    1.047
    20   7 N    3.429 --    22 C    1.242     7 C    0.978    21 C    0.946
                            23 O    0.147
    21   6 C    3.949 --    41 H    0.981    42 H    0.980    40 H    0.978
                            20 N    0.946
    22   6 C    3.889 --    23 O    1.563    20 N    1.242    24 C    0.936
    23   8 O    1.861 --    22 C    1.563    20 N    0.147
    24   6 C    3.912 --     5 C    0.975    25 C    0.970    22 C    0.936
                            26 O    0.929
    25   6 C    3.995 --    45 H    0.988    43 H    0.985    44 H    0.983
                            24 C    0.970
    26   8 O    1.880 --    24 C    0.929    46 H    0.858
    27   1 H    1.017 --     1 C    0.987
    28   1 H    1.017 --     1 C    0.981
    29   1 H    1.018 --     1 C    0.981
    30   1 H    1.005 --     9 C    0.982
    31   1 H    1.007 --     9 C    0.986
    32   1 H    1.015 --     9 C    0.981
    33   1 H    1.009 --    10 C    0.985
    34   1 H    1.016 --    10 C    0.985
    35   1 H    1.016 --    10 C    0.984
    36   1 H    0.949 --    11 N    0.899
    37   1 H    0.999 --    18 C    0.983
    38   1 H    0.997 --    18 C    0.962
    39   1 H    0.997 --    18 C    0.966
    40   1 H    1.015 --    21 C    0.978
    41   1 H    1.008 --    21 C    0.981
    42   1 H    1.013 --    21 C    0.980
    43   1 H    1.015 --    25 C    0.985
    44   1 H    1.017 --    25 C    0.983
    45   1 H    1.011 --    25 C    0.988
    46   1 H    0.900 --    26 O    0.858
 ---------------------------------------------------------------------------

           -------------------------------------------------
          | TOTAL ENERGY              -87.069440116745 Eh   |
          | GRADIENT NORM               0.000789892343 Eh/α |
          | HOMO-LUMO GAP               0.729221585109 eV   |
           -------------------------------------------------

 * finished run on 2023/06/20 at 15:34:47.686
