   * xtb version 6.5.1 (579679a) compiled by 'ehlert@majestix' on 2022-07-11
          program call               : /lustre/hpc/kemi/ree/PhD/git/ReactivityQM/dep/xtb-6.5.1/bin/xtb --gfn 1 /lustre/hpc/kemi/ree/PhD/git/ReactivityQM/calculations/R03/reac01prodN04/conf06/R03_reac01prodN04_conf06_gfn1.xyz --opt --vfukui --chrg 1 --uhf 0 --alpb DMSO

   ID    Z sym.   atoms
    1    6 C      1-5, 7-9
    2    7 N      6
    3    9 F      10
    4    1 H      11-21

      * Solvation model:               ALPB
        Solvent                        DMSO
        Solvent mass                       7.8130E+01 g/mol
          :  Hamiltonian                  GFN1-xTB          :
 * total energy  :   -30.7636611 Eh     change       -0.1770353E-09 Eh
 * total energy  :   -30.7679905 Eh     change       -0.4329401E-02 Eh
 * total energy  :   -30.7691785 Eh     change       -0.1187951E-02 Eh
 * total energy  :   -30.7693602 Eh     change       -0.1816945E-03 Eh
 * total energy  :   -30.7695336 Eh     change       -0.1734234E-03 Eh
 * total energy  :   -30.7696190 Eh     change       -0.8541205E-04 Eh
 * total energy  :   -30.7697534 Eh     change       -0.1344333E-03 Eh
 * total energy  :   -30.7698571 Eh     change       -0.1036721E-03 Eh
 * total energy  :   -30.7699118 Eh     change       -0.5470790E-04 Eh
 * total energy  :   -30.7699467 Eh     change       -0.3486926E-04 Eh
 * total energy  :   -30.7699726 Eh     change       -0.2592498E-04 Eh
 * total energy  :   -30.7699889 Eh     change       -0.1626873E-04 Eh
 * total energy  :   -30.7700037 Eh     change       -0.1478117E-04 Eh
 * total energy  :   -30.7700092 Eh     change       -0.5502825E-05 Eh
 * total energy  :   -30.7700159 Eh     change       -0.6789556E-05 Eh
 * total energy  :   -30.7700208 Eh     change       -0.4821628E-05 Eh
   *** GEOMETRY OPTIMIZATION CONVERGED AFTER 16 ITERATIONS ***

 final structure:
================
21
 xtb: 6.5.1 (579679a)
C            2.66042205324791       -0.99593499190119        0.60456516687906
C            1.56704393165309       -0.39145518508954       -0.31425313976840
C            0.21064873895923       -0.88837517928224       -0.02013230517213
C           -0.87176459390127       -0.05663112741509        0.07570938900360
C           -2.25901045471759       -0.56854357177638        0.37224280856785
N           -3.23570319718502        0.25663543493670       -0.32710455937860
C           -0.69212032628490        1.33394969206877       -0.08500025453324
C            0.55504886373024        1.90032352448525       -0.33251265167501
C            1.64179960318645        1.07019299573211       -0.42188041245528
F            2.82891081376511        1.57150584887490       -0.63816001720454
H            2.48203372066834       -0.68393678316358        1.63101952378930
H            3.63814925551853       -0.64663071145323        0.27961441506294
H            2.62114547639952       -2.08064969426512        0.54223154562398
H            1.81681612174802       -0.77286814134355       -1.32290205260345
H            0.10409027178788       -1.95918518340671        0.10937068240476
H           -2.43615914041964       -0.47565234530231        1.44839998109352
H           -2.33816895048055       -1.62814732114789        0.10057890928122
H           -3.24392625007395        0.00237202894346       -1.30467436528626
H           -4.15351601713002        0.07184491945915        0.05231710930827
H           -1.56995746975107        1.96929989728194       -0.01145768940774
H            0.67421854927957        2.97188789376438       -0.43797108352973

          :  Hamiltonian                  GFN1-xTB          :
         :: total energy             -30.770020770493 Eh    ::
         :: gradient norm              0.000569288784 Eh/a0 ::
         :: HOMO-LUMO gap              0.376898938050 eV    ::
         :: SCC energy               -31.162343218033 Eh    ::
         :: -> Gsolv                  -0.082255152281 Eh    ::
         :: repulsion energy           0.402161935128 Eh    ::

    * Orbital Energies and Occupations

         #    Occupation            Energy/Eh            Energy/eV
      -------------------------------------------------------------
         1        2.0000           -0.9466346             -25.7592
       ...           ...                  ...                  ...
        15        2.0000           -0.6001464             -16.3308
        16        2.0000           -0.5958468             -16.2138
        17        2.0000           -0.5858581             -15.9420
        18        2.0000           -0.5804010             -15.7935
        19        2.0000           -0.5601150             -15.2415
        20        2.0000           -0.5540247             -15.0758
        21        2.0000           -0.5507744             -14.9873
        22        2.0000           -0.5460238             -14.8581
        23        2.0000           -0.5337331             -14.5236
        24        2.0000           -0.5285599             -14.3828
        25        2.0000           -0.5187262             -14.1153
        26        2.0000           -0.4973490             -13.5336
        27        1.9986           -0.4304020             -11.7118 (HOMO)
        28        0.0014           -0.4165512             -11.3349 (LUMO)
        29                         -0.3265795              -8.8867
        30                         -0.2460615              -6.6957
        31                         -0.1586226              -4.3163
        32                         -0.1515421              -4.1237
        33                         -0.1474932              -4.0135
        34                         -0.1381751              -3.7599
        35                         -0.1226343              -3.3371
        36                         -0.1175388              -3.1984
        37                         -0.1056402              -2.8746
        38                         -0.0917599              -2.4969
       ...                                ...                  ...
        62                          0.5433885              14.7864
      -------------------------------------------------------------
                  HL-Gap            0.0138508 Eh            0.3769 eV

Wiberg/Mayer (AO) data.
largest (>0.10) Wiberg bond orders for each atom

     #   Z sym  total        # sym  WBO       # sym  WBO       # sym  WBO
 ---------------------------------------------------------------------------
     1   6 C    3.963 --    11 H    0.983    13 H    0.983    12 H    0.982
                             2 C    0.915
     2   6 C    3.988 --     3 C    1.083     9 C    1.069     1 C    0.915
                            14 H    0.836
     3   6 C    3.961 --     4 C    1.561     2 C    1.083    15 H    0.963
     4   6 C    3.977 --     3 C    1.561     7 C    1.303     5 C    1.003
     5   6 C    3.976 --     4 C    1.003     6 N    1.002    17 H    0.968
                            16 H    0.955
     6   7 N    2.970 --     5 C    1.002    18 H    0.940    19 H    0.931
     7   6 C    3.935 --     8 C    1.404     4 C    1.303    20 H    0.958
     8   6 C    3.982 --     9 C    1.468     7 C    1.404    21 H    0.956
     9   6 C    3.840 --     8 C    1.468     2 C    1.069    10 F    1.032
    10   9 F    1.199 --     9 C    1.032
    11   1 H    0.994 --     1 C    0.983
    12   1 H    0.995 --     1 C    0.982
    13   1 H    0.993 --     1 C    0.983
    14   1 H    0.977 --     2 C    0.836
    15   1 H    0.989 --     3 C    0.963
    16   1 H    1.003 --     5 C    0.955
    17   1 H    0.997 --     5 C    0.968
    18   1 H    0.951 --     6 N    0.940
    19   1 H    0.945 --     6 N    0.931
    20   1 H    1.011 --     7 C    0.958
    21   1 H    0.985 --     8 C    0.956
 ---------------------------------------------------------------------------

           -------------------------------------------------
          | TOTAL ENERGY              -30.770020770493 Eh   |
          | GRADIENT NORM               0.000569288784 Eh/α |
          | HOMO-LUMO GAP               0.376898938050 eV   |
           -------------------------------------------------

 * finished run on 2023/06/20 at 15:14:34.400
