   * xtb version 6.5.1 (579679a) compiled by 'ehlert@majestix' on 2022-07-11
          program call               : /lustre/hpc/kemi/ree/PhD/git/ReactivityQM/dep/xtb-6.5.1/bin/xtb --gfn 1 /lustre/hpc/kemi/ree/PhD/git/ReactivityQM/calculations/R02oxygendeprot/reac01prodE10/conf05/R02oxygendeprot_reac01prodE10_conf05_gfn1.xyz --opt --vfukui --chrg -2 --uhf 0 --alpb DMSO

   ID    Z sym.   atoms
    1    6 C      1, 3, 5, 7-10, 12, 14, 17-19, 22, 24
    2    8 O      2, 4, 13, 20, 23, 25
    3    7 N      6, 11, 15, 16, 21
    4    1 H      26-42

      * Solvation model:               ALPB
        Solvent                        DMSO
        Solvent mass                       7.8130E+01 g/mol
          :  Hamiltonian                  GFN1-xTB          :
 * total energy  :   -83.5618711 Eh     change       -0.6508571E-11 Eh
 * total energy  :   -83.5790734 Eh     change       -0.1720231E-01 Eh
 * total energy  :   -83.5863082 Eh     change       -0.7234767E-02 Eh
 * total energy  :   -83.5874905 Eh     change       -0.1182320E-02 Eh
 * total energy  :   -83.5882133 Eh     change       -0.7228273E-03 Eh
 * total energy  :   -83.5884044 Eh     change       -0.1910864E-03 Eh
 * total energy  :   -83.5885247 Eh     change       -0.1202758E-03 Eh
 * total energy  :   -83.5885837 Eh     change       -0.5900186E-04 Eh
 * total energy  :   -83.5886188 Eh     change       -0.3511725E-04 Eh
 * total energy  :   -83.5886423 Eh     change       -0.2353910E-04 Eh
 * total energy  :   -83.5886944 Eh     change       -0.1801288E-04 Eh
 * total energy  :   -83.5887005 Eh     change       -0.6009826E-05 Eh
 * total energy  :   -83.5887148 Eh     change       -0.1435651E-04 Eh
 * total energy  :   -83.5887256 Eh     change       -0.1081757E-04 Eh
 * total energy  :   -83.5887418 Eh     change       -0.1612484E-04 Eh
 * total energy  :   -83.5887667 Eh     change       -0.2490398E-04 Eh
 * total energy  :   -83.5887800 Eh     change       -0.1329993E-04 Eh
 * total energy  :   -83.5887899 Eh     change       -0.9944906E-05 Eh
 * total energy  :   -83.5887946 Eh     change       -0.4678639E-05 Eh
   *** GEOMETRY OPTIMIZATION CONVERGED AFTER 22 ITERATIONS ***

 final structure:
================
42
 xtb: 6.5.1 (579679a)
C           -6.89413716689524        0.58864931712328       -1.76402641551426
O           -5.69892154341400       -0.17059669386713       -1.74235422042060
C           -4.76140080539997        0.22911363855595       -0.82653540676009
O           -4.99606284451528        1.19271257487088       -0.09457514154203
C           -3.54944741987372       -0.55770100295669       -0.81011876776481
N           -2.63916179237323       -0.12378776405254        0.14656735989376
C           -1.51666119206883       -0.72520572356901        0.29561858123774
C           -0.53302162899403       -0.31889768818211        1.38165968411195
C           -0.85039774030506       -1.18809268793638        2.61323519322263
C           -0.72245702636958        1.17160983957543        1.71129073615238
N            0.81081439440380       -0.61601647306689        0.87934564887103
C            1.93885627994768       -0.11765694774278        1.68720914013106
O            1.85125142717173       -0.07394550347009        2.96268268949136
C            3.01632173389775        0.18227332671851        0.90799642901532
N            3.09006676010754        0.16326259208552       -0.50568681717922
N            4.31137689804969        0.61834894246314       -0.75713765912941
C            4.74345556601739        0.74985067081753       -2.12792906177425
C            5.01651991060587        0.91906842289558        0.31111734864032
C            6.41142266031157        1.42410874326282        0.36879767728359
O            4.29190661457566        0.66686138908671        1.43875822659198
N           -1.17751760614726       -1.82403026779169       -0.46391793006140
C           -1.96884380186535       -2.34870941768063       -1.45287892566773
O           -1.57090496042381       -3.32889896461868       -2.09738173722912
C           -3.29087595138763       -1.66902495691748       -1.66309376448278
O           -4.06092142248365       -2.11006252236091       -2.54842285397365
H           -7.39443988658838        0.56299952658292       -0.78957222502548
H           -7.54424345311010        0.14594794240828       -2.51852554993624
H           -6.69127927948207        1.63346141139727       -2.02398430094701
H           -0.66752093742938       -2.23715475744114        2.37944343260351
H           -0.22621134846894       -0.90371672493269        3.45888383664793
H           -1.89813004781640       -1.06483467784803        2.88946132258954
H           -1.76956015193393        1.36507383670217        1.94668640215464
H           -0.43922102570412        1.78340707476038        0.85425279871332
H           -0.10775349720222        1.45103266895786        2.56607202757828
H            0.90960480706120       -0.22375036597075       -0.05717816627726
H            3.95505433168893        0.36341581703460       -2.77025448983960
H            4.92772400067906        1.79870661242012       -2.35855564758791
H            5.66105494467315        0.18386595304243       -2.28264843873723
H            7.12611615371780        0.66207318521648        0.04815952316544
H            6.64431405106117        1.70893476625188        1.39307926208926
H            6.54014354795525        2.29262125392405       -0.27868006971065
H           -0.27691455167852       -2.25531736574912       -0.30685773064271

          :  Hamiltonian                  GFN1-xTB          :
         :: total energy             -83.588794580756 Eh    ::
         :: gradient norm              0.000698606645 Eh/a0 ::
         :: HOMO-LUMO gap              0.138490289721 eV    ::
         :: SCC energy               -84.325663080634 Eh    ::
         :: -> Gsolv                  -0.284302636272 Eh    ::
         :: repulsion energy           0.761992079283 Eh    ::

    * Orbital Energies and Occupations

         #    Occupation            Energy/Eh            Energy/eV
      -------------------------------------------------------------
         1        2.0000           -0.8039159             -21.8757
       ...           ...                  ...                  ...
        56        2.0000           -0.4468815             -12.1603
        57        2.0000           -0.4429062             -12.0521
        58        2.0000           -0.4331828             -11.7875
        59        2.0000           -0.4192997             -11.4097
        60        2.0000           -0.4161799             -11.3248
        61        2.0000           -0.4059598             -11.0467
        62        2.0000           -0.3929312             -10.6922
        63        2.0000           -0.3748833             -10.2011
        64        2.0000           -0.3714568             -10.1079
        65        2.0000           -0.3595009              -9.7825
        66        2.0000           -0.3491281              -9.5003
        67        2.0000           -0.3449628              -9.3869
        68        1.8715           -0.2588002              -7.0423 (HOMO)
        69        0.1285           -0.2537107              -6.9038 (LUMO)
        70                         -0.2259171              -6.1475
        71                         -0.2135843              -5.8119
        72                         -0.1785161              -4.8577
        73                         -0.1396436              -3.7999
        74                         -0.1242906              -3.3821
        75                         -0.1154400              -3.1413
        76                         -0.1056205              -2.8741
        77                         -0.0917853              -2.4976
        78                         -0.0878139              -2.3895
        79                         -0.0867646              -2.3610
       ...                                ...                  ...
       134                          0.7510264              20.4365
      -------------------------------------------------------------
                  HL-Gap            0.0050894 Eh            0.1385 eV

Wiberg/Mayer (AO) data.
largest (>0.10) Wiberg bond orders for each atom

     #   Z sym  total        # sym  WBO       # sym  WBO       # sym  WBO
 ---------------------------------------------------------------------------
     1   6 C    3.908 --    27 H    0.987    28 H    0.980    26 H    0.980
                             2 O    0.936
     2   8 O    2.133 --     3 C    1.017     1 C    0.936     4 O    0.101
     3   6 C    3.814 --     4 O    1.541     5 C    1.151     2 O    1.017
     4   8 O    1.808 --     3 C    1.541     2 O    0.101
     5   6 C    3.901 --    24 C    1.258     3 C    1.151     6 N    1.136
                            25 O    0.123
     6   7 N    3.009 --     7 C    1.633     5 C    1.136
     7   6 C    3.927 --     6 N    1.633    21 N    1.100     8 C    0.975
     8   6 C    3.967 --    10 C    0.987     9 C    0.980     7 C    0.975
                            11 N    0.970
     9   6 C    3.993 --    31 H    0.989    29 H    0.987     8 C    0.980
                            30 H    0.976
    10   6 C    3.996 --     8 C    0.987    33 H    0.987    32 H    0.985
                            34 H    0.984
    11   7 N    3.051 --     8 C    0.970    35 H    0.942    12 C    0.923
    12   6 C    3.891 --    14 C    1.499    13 O    1.313    11 N    0.923
    13   8 O    1.644 --    12 C    1.313    14 C    0.144
    14   6 C    3.665 --    12 C    1.499    15 N    1.078    20 O    0.840
                            13 O    0.144
    15   7 N    2.745 --    16 N    1.176    14 C    1.078    18 C    0.298
    16   7 N    3.636 --    18 C    1.382    15 N    1.176    17 C    0.950
    17   6 C    3.953 --    36 H    0.985    38 H    0.982    37 H    0.980
                            16 N    0.950
    18   6 C    3.846 --    16 N    1.382    20 O    1.043    19 C    1.025
                            15 N    0.298
    19   6 C    3.993 --    18 C    1.025    40 H    0.983    41 H    0.975
                            39 H    0.969
    20   8 O    2.090 --    18 C    1.043    14 C    0.840
    21   7 N    3.414 --    22 C    1.155     7 C    1.100    42 H    0.895
                            23 O    0.127
    22   6 C    3.840 --    23 O    1.529    21 N    1.155    24 C    0.996
    23   8 O    1.793 --    22 C    1.529    21 N    0.127
    24   6 C    3.914 --    25 O    1.483     5 C    1.258    22 C    0.996
    25   8 O    1.770 --    24 C    1.483     5 C    0.123
    26   1 H    1.017 --     1 C    0.980
    27   1 H    1.017 --     1 C    0.987
    28   1 H    1.016 --     1 C    0.980
    29   1 H    1.013 --     9 C    0.987
    30   1 H    1.034 --     9 C    0.976
    31   1 H    1.010 --     9 C    0.989
    32   1 H    1.021 --    10 C    0.985
    33   1 H    1.009 --    10 C    0.987
    34   1 H    1.021 --    10 C    0.984
    35   1 H    0.993 --    11 N    0.942
    36   1 H    1.012 --    17 C    0.985
    37   1 H    1.003 --    17 C    0.980
    38   1 H    1.002 --    17 C    0.982
    39   1 H    1.002 --    19 C    0.969
    40   1 H    1.002 --    19 C    0.983
    41   1 H    1.003 --    19 C    0.975
    42   1 H    0.968 --    21 N    0.895
 ---------------------------------------------------------------------------

           -------------------------------------------------
          | TOTAL ENERGY              -83.588794580756 Eh   |
          | GRADIENT NORM               0.000698606645 Eh/α |
          | HOMO-LUMO GAP               0.138490289721 eV   |
           -------------------------------------------------

 * finished run on 2023/06/21 at 17:12:37.151
