   * xtb version 6.5.1 (579679a) compiled by 'ehlert@majestix' on 2022-07-11
          program call               : /lustre/hpc/kemi/ree/PhD/git/ReactivityQM/dep/xtb-6.5.1/bin/xtb --gfn 1 /lustre/hpc/kemi/ree/PhD/git/ReactivityQM/calculations/R03/reac01/conf04/R03_reac01_conf04_gfn1.xyz --opt --vfukui --chrg 0 --uhf 0 --alpb DMSO

   ID    Z sym.   atoms
    1    7 N      1
    2    6 C      2-6, 8, 9
    3    9 F      7
    4    1 H      10-17

      * Solvation model:               ALPB
        Solvent                        DMSO
        Solvent mass                       7.8130E+01 g/mol
          :  Hamiltonian                  GFN1-xTB          :
 * total energy  :   -27.4607132 Eh     change       -0.2548717E-10 Eh
 * total energy  :   -27.4627380 Eh     change       -0.2024815E-02 Eh
 * total energy  :   -27.4630742 Eh     change       -0.3362198E-03 Eh
 * total energy  :   -27.4631079 Eh     change       -0.3366302E-04 Eh
 * total energy  :   -27.4631294 Eh     change       -0.2153082E-04 Eh
 * total energy  :   -27.4631331 Eh     change       -0.3638044E-05 Eh
 * total energy  :   -27.4631363 Eh     change       -0.3261620E-05 Eh
   *** GEOMETRY OPTIMIZATION CONVERGED AFTER 7 ITERATIONS ***

 final structure:
================
17
 xtb: 6.5.1 (579679a)
N           -2.60580850347178        0.28169406571639       -0.64368597170157
C           -1.88150834396007       -0.12194721975356        0.56276920383504
C           -0.38647185949776       -0.09233774526008        0.32870207661691
C            0.35732221465459        1.04400824255472        0.64393441644199
C            1.72043887129829        1.09637996493575        0.38621265691327
C            2.32057381074565       -0.00613199406058       -0.19404817517120
F            3.64130276053269        0.03475844959359       -0.44599541377258
C            1.61625425734785       -1.15009299170109       -0.52349159349265
C            0.25457372186075       -1.18350551367843       -0.25745997799584
H           -2.30103684913091        1.20827213769578       -0.91340829999241
H           -2.36115150309453       -0.34723850673505       -1.39786635955982
H           -2.20451314313900       -1.13201429403079        0.83506532358393
H           -2.15436980726932        0.56129365196098        1.37326454238164
H           -0.13049365136886        1.89835081522076        1.09913219813497
H            2.30672752292025        1.97309438422795        0.63022935966132
H            2.12268995208510       -1.99299662890723       -0.97620981155637
H           -0.31452745051297       -2.07158681777913       -0.50714517432662

          :  Hamiltonian                  GFN1-xTB          :
         :: total energy             -27.463136326178 Eh    ::
         :: gradient norm              0.000807498152 Eh/a0 ::
         :: HOMO-LUMO gap              3.707812561410 eV    ::
         :: SCC energy               -27.818618315145 Eh    ::
         :: -> Gsolv                  -0.015192505204 Eh    ::
         :: repulsion energy           0.363225246621 Eh    ::

    * Orbital Energies and Occupations

         #    Occupation            Energy/Eh            Energy/eV
      -------------------------------------------------------------
         1        2.0000           -0.8586353             -23.3647
       ...           ...                  ...                  ...
        12        2.0000           -0.5567686             -15.1504
        13        2.0000           -0.5530044             -15.0480
        14        2.0000           -0.5361606             -14.5897
        15        2.0000           -0.5306620             -14.4400
        16        2.0000           -0.5245077             -14.2726
        17        2.0000           -0.5188163             -14.1177
        18        2.0000           -0.5004368             -13.6176
        19        2.0000           -0.4925129             -13.4020
        20        2.0000           -0.4844114             -13.1815
        21        2.0000           -0.4668109             -12.7026
        22        2.0000           -0.4456250             -12.1261
        23        2.0000           -0.4317837             -11.7494
        24        2.0000           -0.4040235             -10.9940 (HOMO)
        25                         -0.2677639              -7.2862 (LUMO)
        26                         -0.2599251              -7.0729
        27                         -0.1398904              -3.8066
        28                         -0.1091212              -2.9693
        29                         -0.1070127              -2.9120
        30                         -0.0948473              -2.5809
        31                         -0.0900393              -2.4501
        32                         -0.0888555              -2.4179
        33                         -0.0676663              -1.8413
        34                         -0.0472059              -1.2845
        35                         -0.0238268              -0.6484
       ...                                ...                  ...
        52                          0.6500942              17.6900
      -------------------------------------------------------------
                  HL-Gap            0.1362596 Eh            3.7078 eV

Wiberg/Mayer (AO) data.
largest (>0.10) Wiberg bond orders for each atom

     #   Z sym  total        # sym  WBO       # sym  WBO       # sym  WBO
 ---------------------------------------------------------------------------
     1   7 N    2.956 --     2 C    0.987    11 H    0.949    10 H    0.949
     2   6 C    3.978 --     3 C    0.997     1 N    0.987    13 H    0.979
                            12 H    0.978
     3   6 C    3.987 --     4 C    1.415     9 C    1.413     2 C    0.997
     4   6 C    3.994 --     5 C    1.443     3 C    1.415    14 H    0.972
                             8 C    0.110
     5   6 C    3.992 --     4 C    1.443     6 C    1.402    15 H    0.970
                             9 C    0.110
     6   6 C    3.860 --     5 C    1.402     8 C    1.400     7 F    0.920
     7   9 F    1.047 --     6 C    0.920
     8   6 C    3.992 --     9 C    1.445     6 C    1.400    16 H    0.970
                             4 C    0.110
     9   6 C    3.994 --     8 C    1.445     3 C    1.413    17 H    0.972
                             5 C    0.110
    10   1 H    0.963 --     1 N    0.949
    11   1 H    0.964 --     1 N    0.949
    12   1 H    1.010 --     2 C    0.978
    13   1 H    1.010 --     2 C    0.979
    14   1 H    1.000 --     4 C    0.972
    15   1 H    0.999 --     5 C    0.970
    16   1 H    0.999 --     8 C    0.970
    17   1 H    1.000 --     9 C    0.972
 ---------------------------------------------------------------------------

           -------------------------------------------------
          | TOTAL ENERGY              -27.463136326178 Eh   |
          | GRADIENT NORM               0.000807498152 Eh/α |
          | HOMO-LUMO GAP               3.707812561410 eV   |
           -------------------------------------------------

 * finished run on 2023/06/20 at 15:12:17.822
