   * xtb version 6.5.1 (579679a) compiled by 'ehlert@majestix' on 2022-07-11
          program call               : /lustre/hpc/kemi/ree/PhD/git/ReactivityQM/dep/xtb-6.5.1/bin/xtb --gfn 1 /lustre/hpc/kemi/ree/PhD/git/ReactivityQM/calculations/R03/reac01prodN06/conf09/R03_reac01prodN06_conf09_gfn1.xyz --opt --vfukui --chrg 1 --uhf 0 --alpb DMSO

   ID    Z sym.   atoms
    1    6 C      1, 3-7, 9, 10
    2    9 F      2
    3    7 N      8
    4    1 H      11-21

      * Solvation model:               ALPB
        Solvent                        DMSO
        Solvent mass                       7.8130E+01 g/mol
          :  Hamiltonian                  GFN1-xTB          :
 * total energy  :   -30.7198983 Eh     change       -0.2028600E-11 Eh
 * total energy  :   -30.7307866 Eh     change       -0.1088835E-01 Eh
 * total energy  :   -30.7340382 Eh     change       -0.3251559E-02 Eh
 * total energy  :   -30.7344704 Eh     change       -0.4322539E-03 Eh
 * total energy  :   -30.7347094 Eh     change       -0.2390065E-03 Eh
 * total energy  :   -30.7348633 Eh     change       -0.1538791E-03 Eh
 * total energy  :   -30.7349865 Eh     change       -0.1231507E-03 Eh
 * total energy  :   -30.7350852 Eh     change       -0.9878145E-04 Eh
 * total energy  :   -30.7351675 Eh     change       -0.8229891E-04 Eh
 * total energy  :   -30.7352401 Eh     change       -0.7251420E-04 Eh
 * total energy  :   -30.7353468 Eh     change       -0.8439821E-05 Eh
 * total energy  :   -30.7353548 Eh     change       -0.7906174E-05 Eh
 * total energy  :   -30.7353640 Eh     change       -0.9254470E-05 Eh
 * total energy  :   -30.7353766 Eh     change       -0.1261843E-04 Eh
 * total energy  :   -30.7353905 Eh     change       -0.1386771E-04 Eh
 * total energy  :   -30.7354044 Eh     change       -0.1392187E-04 Eh
 * total energy  :   -30.7354023 Eh     change        0.2098628E-05 Eh
 * total energy  :   -30.7354122 Eh     change       -0.9897086E-05 Eh
 * total energy  :   -30.7354168 Eh     change       -0.4617548E-05 Eh
   *** GEOMETRY OPTIMIZATION CONVERGED AFTER 22 ITERATIONS ***

 final structure:
================
21
 xtb: 6.5.1 (579679a)
C           -3.87268475267000        0.07287881806233        0.03148631782527
F           -2.68119161676185       -0.19570366526637       -0.73135474022535
C           -1.28144852396009       -0.08547492978474       -0.29475934246536
C           -0.67029383474218        1.12268974327465       -0.50731520943585
C            0.66480799933534        1.20013054378542       -0.12638860406516
C            1.31429775561673        0.10314764144528        0.44170788204376
C            2.78388451247869        0.18456175530484        0.79049318477206
N            3.58625237906430       -0.28976893108573       -0.33328945152365
C            0.61741399053680       -1.09239116697409        0.62560746897933
C           -0.71819600237635       -1.20673658811801        0.25696167426428
H           -4.65682344540255        0.09815660672759       -0.71961974510297
H           -3.97161710431168       -0.75123409226591        0.73205978616838
H           -3.71137436940222        1.03111154635050        0.51642717407561
H           -1.19347641147789        1.96055577975402       -0.94552199131329
H            1.19672262184659        2.13251148748394       -0.27167721693311
H            3.06512125292312        1.21769221142487        1.01079891427849
H            3.00128607618725       -0.43845854704483        1.66197375274594
H            3.33591395028294       -1.24958306037883       -0.53043001194115
H            3.35422904007595        0.25637391159739       -1.15238842896565
H            1.11366067487180       -1.94869731950065        1.06580738092795
H           -1.27648319211408       -2.12176074479106        0.39307420589110

          :  Hamiltonian                  GFN1-xTB          :
         :: total energy             -30.735416833540 Eh    ::
         :: gradient norm              0.000431210216 Eh/a0 ::
         :: HOMO-LUMO gap              2.976629345790 eV    ::
         :: SCC energy               -31.144108122088 Eh    ::
         :: -> Gsolv                  -0.086025188832 Eh    ::
         :: repulsion energy           0.418238596071 Eh    ::

    * Orbital Energies and Occupations

         #    Occupation            Energy/Eh            Energy/eV
      -------------------------------------------------------------
         1        2.0000           -1.0060220             -27.3753
       ...           ...                  ...                  ...
        15        2.0000           -0.5901411             -16.0586
        16        2.0000           -0.5844226             -15.9029
        17        2.0000           -0.5740327             -15.6202
        18        2.0000           -0.5725591             -15.5801
        19        2.0000           -0.5675932             -15.4450
        20        2.0000           -0.5603365             -15.2475
        21        2.0000           -0.5346309             -14.5480
        22        2.0000           -0.5284320             -14.3794
        23        2.0000           -0.5149689             -14.0130
        24        2.0000           -0.4968909             -13.5211
        25        2.0000           -0.4871124             -13.2550
        26        2.0000           -0.4813114             -13.0971
        27        2.0000           -0.4212791             -11.4636 (HOMO)
        28                         -0.3118900              -8.4870 (LUMO)
        29                         -0.3097144              -8.4278
        30                         -0.2578701              -7.0170
        31                         -0.1886564              -5.1336
        32                         -0.1809584              -4.9241
        33                         -0.1411573              -3.8411
        34                         -0.1394511              -3.7947
        35                         -0.1290013              -3.5103
        36                         -0.1260243              -3.4293
        37                         -0.1235938              -3.3632
        38                         -0.1183027              -3.2192
       ...                                ...                  ...
        62                          0.6137794              16.7018
      -------------------------------------------------------------
                  HL-Gap            0.1093891 Eh            2.9766 eV

Wiberg/Mayer (AO) data.
largest (>0.10) Wiberg bond orders for each atom

     #   Z sym  total        # sym  WBO       # sym  WBO       # sym  WBO
 ---------------------------------------------------------------------------
     1   6 C    3.678 --    13 H    0.980    12 H    0.979    11 H    0.974
                             2 F    0.717
     2   9 F    1.436 --     1 C    0.717     3 C    0.632
     3   6 C    3.687 --     4 C    1.432    10 C    1.431     2 F    0.632
     4   6 C    3.984 --     3 C    1.432     5 C    1.424    14 H    0.961
                             9 C    0.109
     5   6 C    3.988 --     4 C    1.424     6 C    1.412    15 H    0.966
                            10 C    0.109
     6   6 C    3.979 --     5 C    1.412     9 C    1.410     7 C    0.997
     7   6 C    3.977 --     6 C    0.997     8 N    0.988    16 H    0.977
                            17 H    0.976
     8   7 N    2.969 --     7 C    0.988    18 H    0.945    19 H    0.945
     9   6 C    3.988 --    10 C    1.426     6 C    1.410    20 H    0.967
                             4 C    0.109
    10   6 C    3.984 --     3 C    1.431     9 C    1.426    21 H    0.961
                             5 C    0.109
    11   1 H    0.992 --     1 C    0.974
    12   1 H    0.993 --     1 C    0.979
    13   1 H    0.994 --     1 C    0.980
    14   1 H    0.990 --     4 C    0.961
    15   1 H    0.995 --     5 C    0.966
    16   1 H    1.007 --     7 C    0.977
    17   1 H    1.006 --     7 C    0.976
    18   1 H    0.958 --     8 N    0.945
    19   1 H    0.958 --     8 N    0.945
    20   1 H    0.994 --     9 C    0.967
    21   1 H    0.990 --    10 C    0.961
 ---------------------------------------------------------------------------

           -------------------------------------------------
          | TOTAL ENERGY              -30.735416833540 Eh   |
          | GRADIENT NORM               0.000431210216 Eh/α |
          | HOMO-LUMO GAP               2.976629345790 eV   |
           -------------------------------------------------

 * finished run on 2023/06/20 at 15:14:57.724
