   * xtb version 6.5.1 (579679a) compiled by 'ehlert@majestix' on 2022-07-11
          program call               : /lustre/hpc/kemi/ree/PhD/git/ReactivityQM/dep/xtb-6.5.1/bin/xtb --gfn 1 /lustre/hpc/kemi/ree/PhD/git/ReactivityQM/calculations/R01/reac01prodN04/conf05/R01_reac01prodN04_conf05_gfn1.xyz --opt --vfukui --chrg 1 --uhf 0 --alpb DMSO

   ID    Z sym.   atoms
    1    6 C      1, 3, 5, 8-10
    2    8 O      2, 4, 11
    3    7 N      6, 7
    4    1 H      12-20

      * Solvation model:               ALPB
        Solvent                        DMSO
        Solvent mass                       7.8130E+01 g/mol
          :  Hamiltonian                  GFN1-xTB          :
 * total energy  :   -37.6283999 Eh     change       -0.7815970E-11 Eh
 * total energy  :   -37.6403090 Eh     change       -0.1190912E-01 Eh
 * total energy  :   -37.6438389 Eh     change       -0.3529895E-02 Eh
 * total energy  :   -37.6444829 Eh     change       -0.6439142E-03 Eh
 * total energy  :   -37.6449386 Eh     change       -0.4557352E-03 Eh
 * total energy  :   -37.6451023 Eh     change       -0.1637360E-03 Eh
 * total energy  :   -37.6452590 Eh     change       -0.1566379E-03 Eh
 * total energy  :   -37.6453933 Eh     change       -0.1342827E-03 Eh
 * total energy  :   -37.6454606 Eh     change       -0.6738935E-04 Eh
 * total energy  :   -37.6454975 Eh     change       -0.3689407E-04 Eh
 * total energy  :   -37.6455072 Eh     change       -0.9675462E-05 Eh
 * total energy  :   -37.6455110 Eh     change       -0.3749864E-05 Eh
   *** GEOMETRY OPTIMIZATION CONVERGED AFTER 12 ITERATIONS ***

 final structure:
================
20
 xtb: 6.5.1 (579679a)
C            4.12494844357648       -0.03707844994834       -0.19105909398516
O            2.69661880105007       -0.22327866871691       -0.21104422060918
C            1.95298753388734        0.83646342620635       -0.01685732067284
O            2.32936829770067        1.95737094676883        0.18309051019984
C            0.48673199925079        0.48920305736995       -0.07385130105087
N           -0.50925157698758        1.30749286644833        0.07842837482776
N           -1.60723543920946        0.54761441461206       -0.06777004380341
C           -2.92267321774065        1.14912694436727        0.04163787641640
C           -1.26145723534922       -0.70316468410819       -0.30356341319389
C           -2.10971250326004       -1.88202364059069       -0.53180915962130
O            0.05397240024838       -0.76218049991410       -0.31118131052459
H            4.40655730665218        0.70422940573462       -0.94067517761939
H            4.43396554850417        0.30057372266095        0.79926897186902
H            4.55796074746137       -1.00712448936456       -0.42221111288176
H           -3.45537894396051        1.00858594091747       -0.89712959931211
H           -3.46507818840525        0.66732919505508        0.85302629913988
H           -2.78686133851902        2.20758674005529        0.24877258003528
H           -1.93867182885754       -2.25916955704869       -1.54242364989496
H           -1.82739628284149       -2.67124903880685        0.16720330070406
H           -3.15939452320049       -1.63030563169815       -0.40728451002285

          :  Hamiltonian                  GFN1-xTB          :
         :: total energy             -37.645510959877 Eh    ::
         :: gradient norm              0.000384556693 Eh/a0 ::
         :: HOMO-LUMO gap              4.080494235463 eV    ::
         :: SCC energy               -38.000509414605 Eh    ::
         :: -> Gsolv                  -0.086072784806 Eh    ::
         :: repulsion energy           0.363021615396 Eh    ::

    * Orbital Energies and Occupations

         #    Occupation            Energy/Eh            Energy/eV
      -------------------------------------------------------------
         1        2.0000           -0.9448513             -25.7107
       ...           ...                  ...                  ...
        18        2.0000           -0.6255949             -17.0233
        19        2.0000           -0.6140152             -16.7082
        20        2.0000           -0.6008010             -16.3486
        21        2.0000           -0.5946018             -16.1799
        22        2.0000           -0.5917632             -16.1027
        23        2.0000           -0.5820372             -15.8380
        24        2.0000           -0.5739517             -15.6180
        25        2.0000           -0.5675743             -15.4445
        26        2.0000           -0.5532994             -15.0560
        27        2.0000           -0.5396637             -14.6850
        28        2.0000           -0.5288199             -14.3899
        29        2.0000           -0.5251005             -14.2887
        30        2.0000           -0.5225155             -14.2184 (HOMO)
        31                         -0.3725601             -10.1379 (LUMO)
        32                         -0.3502566              -9.5310
        33                         -0.2566077              -6.9827
        34                         -0.1870225              -5.0891
        35                         -0.1758228              -4.7844
        36                         -0.1532574              -4.1703
        37                         -0.1200897              -3.2678
        38                         -0.1160099              -3.1568
        39                         -0.1064653              -2.8971
        40                         -0.0940573              -2.5594
        41                         -0.0891487              -2.4259
       ...                                ...                  ...
        62                          0.7346324              19.9904
      -------------------------------------------------------------
                  HL-Gap            0.1499554 Eh            4.0805 eV

Wiberg/Mayer (AO) data.
largest (>0.10) Wiberg bond orders for each atom

     #   Z sym  total        # sym  WBO       # sym  WBO       # sym  WBO
 ---------------------------------------------------------------------------
     1   6 C    3.837 --    14 H    0.984    12 H    0.977    13 H    0.976
                             2 O    0.865
     2   8 O    2.245 --     3 C    1.175     1 C    0.865     4 O    0.158
     3   6 C    3.878 --     4 O    1.692     2 O    1.175     5 C    0.946
     4   8 O    1.970 --     3 C    1.692     2 O    0.158
     5   6 C    3.854 --     6 N    1.618    11 O    1.064     3 C    0.946
     6   7 N    2.993 --     5 C    1.618     7 N    1.161
     7   7 N    3.630 --     9 C    1.416     6 N    1.161     8 C    0.905
     8   6 C    3.880 --    17 H    0.978    15 H    0.969    16 H    0.968
                             7 N    0.905
     9   6 C    3.839 --     7 N    1.416    11 O    1.154    10 C    1.044
    10   6 C    3.959 --     9 C    1.044    20 H    0.976    19 H    0.943
                            18 H    0.937
    11   8 O    2.387 --     9 C    1.154     5 C    1.064
    12   1 H    1.000 --     1 C    0.977
    13   1 H    1.000 --     1 C    0.976
    14   1 H    1.005 --     1 C    0.984
    15   1 H    0.989 --     8 C    0.969
    16   1 H    0.989 --     8 C    0.968
    17   1 H    0.992 --     8 C    0.978
    18   1 H    0.983 --    10 C    0.937
    19   1 H    0.983 --    10 C    0.943
    20   1 H    0.988 --    10 C    0.976
 ---------------------------------------------------------------------------

           -------------------------------------------------
          | TOTAL ENERGY              -37.645510959877 Eh   |
          | GRADIENT NORM               0.000384556693 Eh/α |
          | HOMO-LUMO GAP               4.080494235463 eV   |
           -------------------------------------------------

 * finished run on 2023/06/20 at 14:55:34.208
