   * xtb version 6.5.1 (579679a) compiled by 'ehlert@majestix' on 2022-07-11
          program call               : /lustre/hpc/kemi/ree/PhD/git/ReactivityQM/dep/xtb-6.5.1/bin/xtb --gfn 1 /lustre/hpc/kemi/ree/PhD/git/ReactivityQM/calculations/R02deprot/reac01prodN15/conf20/R02deprot_reac01prodN15_conf20_gfn1.xyz --opt --vfukui --chrg 0 --uhf 0 --alpb DMSO

   ID    Z sym.   atoms
    1    6 C      1, 3, 5, 6, 8, 9, 12-15, 17, 19, 22, 23
    2    8 O      2, 4, 7, 10, 18, 24
    3    7 N      11, 16, 20, 21, 25
    4    1 H      26-42

      * Solvation model:               ALPB
        Solvent                        DMSO
        Solvent mass                       7.8130E+01 g/mol
          :  Hamiltonian                  GFN1-xTB          :
 * total energy  :   -82.8610663 Eh     change       -0.1307399E-11 Eh
 * total energy  :   -82.8772284 Eh     change       -0.1616210E-01 Eh
 * total energy  :   -82.8924267 Eh     change       -0.1519832E-01 Eh
 * total energy  :   -82.9005807 Eh     change       -0.8153962E-02 Eh
 * total energy  :   -82.9264764 Eh     change       -0.2589575E-01 Eh
 * total energy  :   -82.9253160 Eh     change        0.1160409E-02 Eh
 * total energy  :   -82.9479540 Eh     change       -0.2263796E-01 Eh
 * total energy  :   -82.9537933 Eh     change       -0.5839396E-02 Eh
 * total energy  :   -82.9188988 Eh     change        0.3489452E-01 Eh
 * total energy  :   -82.9630215 Eh     change       -0.4412268E-01 Eh
 * total energy  :   -82.9825338 Eh     change       -0.1296990E-04 Eh
 * total energy  :   -82.9825474 Eh     change       -0.1360471E-04 Eh
 * total energy  :   -82.9825583 Eh     change       -0.1090399E-04 Eh
 * total energy  :   -82.9825705 Eh     change       -0.1224231E-04 Eh
 * total energy  :   -82.9825821 Eh     change       -0.1161413E-04 Eh
 * total energy  :   -82.9825989 Eh     change       -0.1672270E-04 Eh
 * total energy  :   -82.9826153 Eh     change       -0.1642434E-04 Eh
 * total energy  :   -82.9826309 Eh     change       -0.1565657E-04 Eh
 * total energy  :   -82.9826355 Eh     change       -0.4541100E-05 Eh
   *** GEOMETRY OPTIMIZATION CONVERGED AFTER 68 ITERATIONS ***

 final structure:
================
42
 xtb: 6.5.1 (579679a)
C           -4.90666483129980       -2.54357030885787        1.97582012313000
O           -3.83587128879219       -1.79063418830658        1.39739152444161
C           -3.94525579686105       -0.46937704400323        1.45112063543364
O           -4.91695122330609        0.09263517633598        1.95209164354021
C           -2.82503924551960        0.26300600911748        0.86159009875665
C           -2.82326082838596        1.63059993748994        0.95479422115908
O           -3.80786811607840        2.32636493062671        1.48197235877869
C           -1.48361782218650        2.18287345996423       -0.82904670044795
C           -1.71450109821044        3.37520093790695       -1.68617403465983
O           -1.77649661600787        2.39218454718933        0.52725848023666
N           -1.04681813696001        1.08688171547016       -1.26599859717437
C           -0.93501590809895       -0.07875960674501       -0.50581459881476
C            0.21680310362914       -0.98344087730687       -0.91789893163724
C            0.28113762873520       -1.08593571805356       -2.44642084496208
C            0.06482885755292       -2.36296532268820       -0.27157201512072
N            1.43603411769077       -0.33043932610883       -0.41577885321208
C            2.67244651949840       -0.84448042103678       -0.55400854651711
O            2.95750076080720       -1.87071538038834       -1.14702678270879
C            3.67815347913753        0.01080657715055        0.13246327040351
N            3.43367346842676        1.11131687839156        0.77816543587224
N            4.62636499897802        1.55210549119917        1.26961800910555
C            5.52170307859702        0.69007112173374        0.89373754078849
C            6.97242908015599        0.70973634415273        1.18306283562672
O            4.98511830185785       -0.30548741339851        0.17235904209138
N           -1.75581401982794       -0.49191078722938        0.37845137804728
H           -5.84743919130808       -2.30146897335661        1.47660758688449
H           -4.99251434797532       -2.31445272075552        3.04042476083249
H           -4.66076244065511       -3.59381214972185        1.83321686405486
H           -4.51637588332752        1.67813758578587        1.78735132675760
H           -1.40603232584772        3.16752953242380       -2.70733272497507
H           -1.15872158086406        4.22531068510837       -1.29137741941132
H           -2.77297465914734        3.63485397165161       -1.66648245756448
H            1.09606481344525       -1.74273505316561       -2.74520341942325
H           -0.65754684334029       -1.48936039328459       -2.82265864825200
H            0.43936677293603       -0.09834166143721       -2.87660743073590
H            0.06385659453620       -2.26767575556931        0.81328856878402
H            0.88025704265025       -3.01637713539974       -0.57529088384277
H           -0.88071125184175       -2.80257667674764       -0.58467446112699
H            1.33364870201042        0.52959734822711        0.10286304911965
H            7.53931019162396        0.66905488301397        0.25366503161239
H            7.22448399141140        1.61648816654099        1.72702092601394
H            7.24307595216901       -0.16023838592082        1.78155263911086

          :  Hamiltonian                  GFN1-xTB          :
         :: total energy             -82.982635477984 Eh    ::
         :: gradient norm              0.000524347776 Eh/a0 ::
         :: HOMO-LUMO gap              2.708418184863 eV    ::
         :: SCC energy               -83.760779971109 Eh    ::
         :: -> Gsolv                  -0.044769165402 Eh    ::
         :: repulsion energy           0.803276891954 Eh    ::

    * Orbital Energies and Occupations

         #    Occupation            Energy/Eh            Energy/eV
      -------------------------------------------------------------
         1        2.0000           -0.8639605             -23.5096
       ...           ...                  ...                  ...
        55        2.0000           -0.4995169             -13.5925
        56        2.0000           -0.4986752             -13.5696
        57        2.0000           -0.4974392             -13.5360
        58        2.0000           -0.4879296             -13.2772
        59        2.0000           -0.4843322             -13.1793
        60        2.0000           -0.4818205             -13.1110
        61        2.0000           -0.4760312             -12.9535
        62        2.0000           -0.4617316             -12.5644
        63        2.0000           -0.4599926             -12.5170
        64        2.0000           -0.4512361             -12.2788
        65        2.0000           -0.4454643             -12.1217
        66        2.0000           -0.4359349             -11.8624
        67        2.0000           -0.4173362             -11.3563 (HOMO)
        68                         -0.3178037              -8.6479 (LUMO)
        69                         -0.3095456              -8.4232
        70                         -0.2964508              -8.0668
        71                         -0.2574137              -7.0046
        72                         -0.2474424              -6.7333
        73                         -0.1977181              -5.3802
        74                         -0.1851470              -5.0381
        75                         -0.1437528              -3.9117
        76                         -0.1430188              -3.8917
        77                         -0.1372110              -3.7337
        78                         -0.1191434              -3.2421
       ...                                ...                  ...
       134                          0.7255165              19.7423
      -------------------------------------------------------------
                  HL-Gap            0.0995325 Eh            2.7084 eV

Wiberg/Mayer (AO) data.
largest (>0.10) Wiberg bond orders for each atom

     #   Z sym  total        # sym  WBO       # sym  WBO       # sym  WBO
 ---------------------------------------------------------------------------
     1   6 C    3.869 --    28 H    0.986    27 H    0.979    26 H    0.979
                             2 O    0.894
     2   8 O    2.211 --     3 C    1.128     1 C    0.894     4 O    0.116
     3   6 C    3.853 --     4 O    1.547     2 O    1.128     5 C    1.075
     4   8 O    1.943 --     3 C    1.547     2 O    0.116    29 H    0.109
     5   6 C    3.930 --     6 C    1.479    25 N    1.086     3 C    1.075
     6   6 C    3.851 --     5 C    1.479     7 O    1.166    10 O    0.988
     7   8 O    2.109 --     6 C    1.166    29 H    0.720
     8   6 C    3.877 --    11 N    1.780     9 C    1.027    10 O    0.903
     9   6 C    3.987 --     8 C    1.027    30 H    0.981    31 H    0.961
                            32 H    0.957
    10   8 O    2.111 --     6 C    0.988     8 C    0.903
    11   7 N    3.111 --     8 C    1.780    12 C    1.066
    12   6 C    3.940 --    25 N    1.714    11 N    1.066    13 C    0.970
    13   6 C    3.930 --    15 C    0.995    14 C    0.986    12 C    0.970
                            16 N    0.910
    14   6 C    3.989 --    13 C    0.986    34 H    0.986    35 H    0.984
                            33 H    0.981
    15   6 C    3.991 --    13 C    0.995    38 H    0.985    36 H    0.984
                            37 H    0.982
    16   7 N    3.352 --    17 C    1.263    13 C    0.910    39 H    0.897
                            18 O    0.181
    17   6 C    3.919 --    18 O    1.588    16 N    1.263    19 C    0.985
    18   8 O    1.906 --    17 C    1.588    16 N    0.181
    19   6 C    3.873 --    20 N    1.612    24 O    1.065    17 C    0.985
    20   7 N    3.016 --    19 C    1.612    21 N    1.197
    21   7 N    2.980 --    22 C    1.607    20 N    1.197
    22   6 C    3.871 --    21 N    1.607    24 O    1.082    23 C    1.031
    23   6 C    3.986 --    22 C    1.031    41 H    0.983    40 H    0.965
                            42 H    0.962
    24   8 O    2.330 --    22 C    1.082    19 C    1.065
    25   7 N    3.059 --    12 C    1.714     5 C    1.086
    26   1 H    1.007 --     1 C    0.979
    27   1 H    1.007 --     1 C    0.979
    28   1 H    1.011 --     1 C    0.986
    29   1 H    0.841 --     7 O    0.720     4 O    0.109
    30   1 H    1.001 --     9 C    0.981
    31   1 H    0.997 --     9 C    0.961
    32   1 H    0.997 --     9 C    0.957
    33   1 H    1.009 --    14 C    0.981
    34   1 H    1.002 --    14 C    0.986
    35   1 H    1.014 --    14 C    0.984
    36   1 H    1.011 --    15 C    0.984
    37   1 H    1.009 --    15 C    0.982
    38   1 H    1.008 --    15 C    0.985
    39   1 H    0.956 --    16 N    0.897
    40   1 H    0.997 --    23 C    0.965
    41   1 H    0.999 --    23 C    0.983
    42   1 H    0.997 --    23 C    0.962
 ---------------------------------------------------------------------------

           -------------------------------------------------
          | TOTAL ENERGY              -82.982635477984 Eh   |
          | GRADIENT NORM               0.000524347776 Eh/α |
          | HOMO-LUMO GAP               2.708418184863 eV   |
           -------------------------------------------------

 * finished run on 2023/06/20 at 18:24:13.404
