   * xtb version 6.5.1 (579679a) compiled by 'ehlert@majestix' on 2022-07-11
          program call               : /lustre/hpc/kemi/ree/PhD/git/ReactivityQM/dep/xtb-6.5.1/bin/xtb --gfn 1 /lustre/hpc/kemi/ree/PhD/git/ReactivityQM/calculations/R02methylcation/reac01prodN07/conf18/R02methylcation_reac01prodN07_conf18_gfn1.xyz --opt --vfukui --chrg 0 --uhf 0 --alpb DMSO

   ID    Z sym.   atoms
    1    6 C      1, 3, 5, 7-10, 12, 14, 17-19, 22, 24
    2    8 O      2, 4, 13, 20, 23, 25
    3    7 N      6, 11, 15, 16, 21
    4    1 H      26-42

      * Solvation model:               ALPB
        Solvent                        DMSO
        Solvent mass                       7.8130E+01 g/mol
          :  Hamiltonian                  GFN1-xTB          :
 * total energy  :   -82.9525214 Eh     change       -0.4651497E-09 Eh
 * total energy  :   -82.9689736 Eh     change       -0.1645222E-01 Eh
 * total energy  :   -82.9758760 Eh     change       -0.6902440E-02 Eh
 * total energy  :   -82.9770467 Eh     change       -0.1170636E-02 Eh
 * total energy  :   -82.9778545 Eh     change       -0.8077846E-03 Eh
 * total energy  :   -82.9781600 Eh     change       -0.3054979E-03 Eh
 * total energy  :   -82.9784585 Eh     change       -0.2985072E-03 Eh
 * total energy  :   -82.9786844 Eh     change       -0.2259200E-03 Eh
 * total energy  :   -82.9788454 Eh     change       -0.1609735E-03 Eh
 * total energy  :   -82.9789493 Eh     change       -0.1039460E-03 Eh
 * total energy  :   -82.9796156 Eh     change       -0.2448522E-04 Eh
 * total energy  :   -82.9796408 Eh     change       -0.2522995E-04 Eh
 * total energy  :   -82.9796682 Eh     change       -0.2739068E-04 Eh
 * total energy  :   -82.9797011 Eh     change       -0.3288539E-04 Eh
 * total energy  :   -82.9797247 Eh     change       -0.2368095E-04 Eh
 * total energy  :   -82.9797396 Eh     change       -0.1480519E-04 Eh
 * total energy  :   -82.9797492 Eh     change       -0.9689083E-05 Eh
 * total energy  :   -82.9797547 Eh     change       -0.5439312E-05 Eh
 * total energy  :   -82.9797597 Eh     change       -0.4997924E-05 Eh
   *** GEOMETRY OPTIMIZATION CONVERGED AFTER 40 ITERATIONS ***

 final structure:
================
42
 xtb: 6.5.1 (579679a)
C            6.60507241499834        2.14380227839879        0.51814150172717
O            5.60719583495195        1.42687069860069       -0.19636808858651
C            4.56054791170177        0.97912715391452        0.53936045283083
O            4.50276334278442        1.19963687689754        1.74301161652176
C            3.55892909263790        0.23787966691844       -0.21485655066244
N            2.52317954424916       -0.21638244434324        0.57867654045343
C            1.56131790413264       -0.90004997095002        0.08076093995725
C            0.45580852276394       -1.40683104531867        0.99120581932641
C            0.76346680708278       -0.99396079316488        2.43120797812645
C            0.29734073597457       -2.92781360426142        0.90317053064879
N           -0.82570789034081       -0.74429710499011        0.63882690670975
C           -1.58608971027165       -1.02810164083721       -0.41774977034872
O           -1.35673385313526       -1.81391655213877       -1.31834799970913
C           -2.86485611215989       -0.23402653698652       -0.43636564701216
N           -3.80009967955102       -0.29026014938777       -1.33607159998679
N           -4.74340155345601        0.56941861610233       -0.90946838444974
C           -5.95308515874172        0.76441995776404       -1.68037160019005
C           -4.36957879932689        1.12704134873173        0.22196532120077
C           -5.08101347413036        2.11685698644341        1.04609576022171
O           -3.18798959045305        0.63743431344732        0.54203514743249
N            1.51184195273824       -1.21442784050659       -1.26008797759030
C            2.45290494512160       -0.80594208976225       -2.17020143175487
O            2.32409081573903       -1.10090110096787       -3.35576845494513
C            3.61123164532538       -0.00672152967135       -1.61250083192945
O            4.50051667102828        0.37329607448176       -2.39435835003337
H            7.37129706076258        2.42955168426174       -0.20163414581474
H            6.18038814679305        3.03907619655666        0.98205808385218
H            7.04581882670705        1.51770502878217        1.29997024321268
H           -0.03433406390937       -1.32272669769590        3.09337809315160
H            0.86539082640823        0.08834052042544        2.49789614146675
H            1.70141014397112       -1.44871790555017        2.74693288698877
H           -0.54296941343862       -3.24436565053919        1.51804319677625
H            1.20566637485892       -3.40071792094699        1.27465979666752
H            0.12533543639819       -3.25469925772002       -0.11995368579321
H           -1.18109413356024       -0.08190272235750        1.30659465372922
H           -6.77860206004462        0.93694828778336       -0.99498189574759
H           -5.82343043701018        1.62855421392914       -2.33134695019817
H           -6.12375185324571       -0.13101439812244       -2.27309450735642
H           -6.00034024067745        1.67769837994625        1.43695898690192
H           -5.35528490946644        2.98100349026235        0.44039073845579
H           -4.44668770710392        2.42693714461543        1.87383483033377
H            0.72353468289369       -1.73381796204594       -1.61851729458444

          :  Hamiltonian                  GFN1-xTB          :
         :: total energy             -82.979759679812 Eh    ::
         :: gradient norm              0.000753530073 Eh/a0 ::
         :: HOMO-LUMO gap              0.401818260594 eV    ::
         :: SCC energy               -83.767864132595 Eh    ::
         :: -> Gsolv                  -0.136566043294 Eh    ::
         :: repulsion energy           0.813137082785 Eh    ::

    * Orbital Energies and Occupations

         #    Occupation            Energy/Eh            Energy/eV
      -------------------------------------------------------------
         1        2.0000           -0.9361627             -25.4743
       ...           ...                  ...                  ...
        55        2.0000           -0.5045001             -13.7281
        56        2.0000           -0.5004181             -13.6171
        57        2.0000           -0.4967320             -13.5168
        58        2.0000           -0.4895353             -13.3209
        59        2.0000           -0.4825372             -13.1305
        60        2.0000           -0.4682586             -12.7420
        61        2.0000           -0.4669452             -12.7062
        62        2.0000           -0.4584483             -12.4750
        63        2.0000           -0.4424562             -12.0398
        64        2.0000           -0.4391382             -11.9496
        65        2.0000           -0.4205231             -11.4430
        66        2.0000           -0.3818529             -10.3907
        67        1.9992           -0.3699493             -10.0668 (HOMO)
        68        0.0008           -0.3551828              -9.6650 (LUMO)
        69                         -0.3417694              -9.3000
        70                         -0.2725917              -7.4176
        71                         -0.2458171              -6.6890
        72                         -0.2363405              -6.4312
        73                         -0.1995068              -5.4289
        74                         -0.1838647              -5.0032
        75                         -0.1712831              -4.6608
        76                         -0.1289875              -3.5099
        77                         -0.1243608              -3.3840
        78                         -0.1226439              -3.3373
       ...                                ...                  ...
       134                          0.7541759              20.5222
      -------------------------------------------------------------
                  HL-Gap            0.0147665 Eh            0.4018 eV

Wiberg/Mayer (AO) data.
largest (>0.10) Wiberg bond orders for each atom

     #   Z sym  total        # sym  WBO       # sym  WBO       # sym  WBO
 ---------------------------------------------------------------------------
     1   6 C    3.897 --    26 H    0.987    27 H    0.981    28 H    0.980
                             2 O    0.923
     2   8 O    2.163 --     3 C    1.052     1 C    0.923     4 O    0.111
     3   6 C    3.850 --     4 O    1.579     5 C    1.109     2 O    1.052
     4   8 O    1.853 --     3 C    1.579     2 O    0.111
     5   6 C    3.909 --    24 C    1.267     6 N    1.158     3 C    1.109
                            25 O    0.128
     6   7 N    3.033 --     7 C    1.628     5 C    1.158
     7   6 C    3.933 --     6 N    1.628    21 N    1.101     8 C    0.967
     8   6 C    3.913 --     9 C    1.002    10 C    0.990     7 C    0.967
                            11 N    0.888
     9   6 C    3.991 --     8 C    1.002    29 H    0.986    30 H    0.982
                            31 H    0.981
    10   6 C    3.988 --     8 C    0.990    32 H    0.985    33 H    0.984
                            34 H    0.979
    11   7 N    3.395 --    12 C    1.319    35 H    0.892     8 C    0.888
                            13 O    0.201
    12   6 C    3.926 --    13 O    1.577    11 N    1.319    14 C    0.956
    13   8 O    1.928 --    12 C    1.577    11 N    0.201
    14   6 C    3.832 --    15 N    1.613    20 O    1.050    12 C    0.956
    15   7 N    2.976 --    14 C    1.613    16 N    1.149
    16   7 N    3.632 --    18 C    1.428    15 N    1.149    17 C    0.911
    17   6 C    3.887 --    36 H    0.977    38 H    0.976    37 H    0.964
                            16 N    0.911
    18   6 C    3.841 --    16 N    1.428    20 O    1.145    19 C    1.041
    19   6 C    3.961 --    18 C    1.041    41 H    0.972    40 H    0.950
                            39 H    0.941
    20   8 O    2.371 --    18 C    1.145    14 C    1.050
    21   7 N    3.430 --    22 C    1.163     7 C    1.101    42 H    0.881
                            23 O    0.136
    22   6 C    3.879 --    23 O    1.579    21 N    1.163    24 C    0.966
    23   8 O    1.859 --    22 C    1.579    21 N    0.136
    24   6 C    3.941 --    25 O    1.525     5 C    1.267    22 C    0.966
    25   8 O    1.827 --    24 C    1.525     5 C    0.128
    26   1 H    1.015 --     1 C    0.987
    27   1 H    1.014 --     1 C    0.981
    28   1 H    1.013 --     1 C    0.980
    29   1 H    0.999 --     9 C    0.986
    30   1 H    1.010 --     9 C    0.982
    31   1 H    1.009 --     9 C    0.981
    32   1 H    1.000 --    10 C    0.985
    33   1 H    1.001 --    10 C    0.984
    34   1 H    1.008 --    10 C    0.979
    35   1 H    0.933 --    11 N    0.892
    36   1 H    0.990 --    17 C    0.977
    37   1 H    0.989 --    17 C    0.964
    38   1 H    0.992 --    17 C    0.976
    39   1 H    0.985 --    19 C    0.941
    40   1 H    0.986 --    19 C    0.950
    41   1 H    0.986 --    19 C    0.972
    42   1 H    0.951 --    21 N    0.881
 ---------------------------------------------------------------------------

           -------------------------------------------------
          | TOTAL ENERGY              -82.979759679812 Eh   |
          | GRADIENT NORM               0.000753530073 Eh/α |
          | HOMO-LUMO GAP               0.401818260594 eV   |
           -------------------------------------------------

 * finished run on 2023/06/21 at 17:38:17.831
