   * xtb version 6.5.1 (579679a) compiled by 'ehlert@majestix' on 2022-07-11
          program call               : /lustre/hpc/kemi/ree/PhD/git/ReactivityQM/dep/xtb-6.5.1/bin/xtb --gfn 1 /lustre/hpc/kemi/ree/PhD/git/ReactivityQM/calculations/R02methylcation/reac01prodN10/conf10/R02methylcation_reac01prodN10_conf10_gfn1.xyz --opt --vfukui --chrg 0 --uhf 0 --alpb DMSO

   ID    Z sym.   atoms
    1    6 C      1, 3, 5, 6, 8, 11-15, 17, 19, 22, 23
    2    8 O      2, 4, 7, 9, 18, 24
    3    7 N      10, 16, 20, 21, 25
    4    1 H      26-42

      * Solvation model:               ALPB
        Solvent                        DMSO
        Solvent mass                       7.8130E+01 g/mol
          :  Hamiltonian                  GFN1-xTB          :
 * total energy  :   -82.9656292 Eh     change       -0.1290346E-10 Eh
 * total energy  :   -82.9765385 Eh     change       -0.1090932E-01 Eh
 * total energy  :   -82.9808432 Eh     change       -0.4304704E-02 Eh
 * total energy  :   -82.9814919 Eh     change       -0.6486683E-03 Eh
 * total energy  :   -82.9819778 Eh     change       -0.4858509E-03 Eh
 * total energy  :   -82.9823807 Eh     change       -0.4029744E-03 Eh
 * total energy  :   -82.9828145 Eh     change       -0.4338106E-03 Eh
 * total energy  :   -82.9832230 Eh     change       -0.4084551E-03 Eh
 * total energy  :   -82.9835217 Eh     change       -0.2986952E-03 Eh
 * total energy  :   -82.9836876 Eh     change       -0.1659097E-03 Eh
 * total energy  :   -82.9843262 Eh     change       -0.8394400E-05 Eh
 * total energy  :   -82.9843350 Eh     change       -0.8789963E-05 Eh
 * total energy  :   -82.9843441 Eh     change       -0.9024035E-05 Eh
 * total energy  :   -82.9843535 Eh     change       -0.9468261E-05 Eh
 * total energy  :   -82.9843630 Eh     change       -0.9526556E-05 Eh
 * total energy  :   -82.9843735 Eh     change       -0.1043958E-04 Eh
 * total energy  :   -82.9843828 Eh     change       -0.9316219E-05 Eh
 * total energy  :   -82.9843886 Eh     change       -0.5770595E-05 Eh
 * total energy  :   -82.9843925 Eh     change       -0.3939978E-05 Eh
   *** GEOMETRY OPTIMIZATION CONVERGED AFTER 41 ITERATIONS ***

 final structure:
================
42
 xtb: 6.5.1 (579679a)
C            3.42224032255875        3.61324716976222       -1.91888883650915
O            2.80337261024168        2.83144149477123       -0.88866165400778
C            2.74345779360860        1.52718817741837       -1.08188022594375
O            3.16035300831044        0.95547100249903       -2.05722727432087
C            2.06359655421487        0.80766691695864        0.06723861391389
C            1.92468447946746        1.43911145165436        1.41264923205641
O            2.67248421078276        2.27526132492949        1.84808992444785
C            0.75503714524136        0.87755146677584        2.22667015080875
O            0.21693891206566        1.49159643423269        3.12359674778933
N            0.35678756370751       -0.34961910591148        1.82602747698230
C            1.02046645266766       -1.17551581490757        0.82931608105229
C            2.12659482460929       -1.99120840668431        1.51494659912633
C           -0.04780501566497       -2.05173776105428        0.10095883048954
C            0.57423415003437       -2.74115489118826       -1.11783399924843
C           -0.68626016756200       -3.08688411111523        1.03162468217636
N           -1.07572336231432       -1.10284211892654       -0.34134530753482
C           -2.16708940206660       -1.45438150498961       -1.05221206664541
O           -2.38741300148565       -2.55875799095830       -1.52074999069692
C           -3.11080958344182       -0.32279355876840       -1.24006219364319
N           -4.21910206385565       -0.32424831372643       -1.91289421012915
N           -4.75090819080808        0.92492272567325       -1.79917491139433
C           -3.93607265520534        1.61275904802351       -1.06171967993099
C           -4.07071205065688        3.02416381541448       -0.64080119973402
O           -2.87557057280854        0.88265547655547       -0.67529976732923
N            1.66130585695393       -0.37656876942530       -0.17389588833343
H            3.41078473979455        4.64421034748596       -1.57237259629930
H            4.44720340533005        3.27243325325933       -2.07879301312022
H            2.85675176802594        3.51513962723613       -2.84769129891245
H           -0.33903553794992       -0.79419015370842        2.40455694036149
H            1.69787880987133       -2.61258420698778        2.29663392971802
H            2.64371686900569       -2.61704558925517        0.79151019008560
H            2.84023968282501       -1.30163224535176        1.96282357941089
H           -0.17617912787889       -3.34666648302777       -1.62249371856186
H            0.96279251839665       -1.99925184797964       -1.81378626466198
H            1.38653688788172       -3.39254286682348       -0.80219404574206
H           -1.11633002274756       -2.61152898410888        1.91039623299476
H           -1.48001833216685       -3.60690206135107        0.49650145027545
H            0.05282429179649       -3.81954938084058        1.34817417217587
H           -1.05893338057911       -0.18605364864425        0.07923430893303
H           -4.17532121430603        3.08050361868624        0.44277247769544
H           -4.94667251741681        3.46354596003207       -1.11210322213140
H           -3.18032165847887        3.58478850435378       -0.92338125566672

          :  Hamiltonian                  GFN1-xTB          :
         :: total energy             -82.984392515580 Eh    ::
         :: gradient norm              0.000471193295 Eh/a0 ::
         :: HOMO-LUMO gap              1.771544776784 eV    ::
         :: SCC energy               -83.765280143577 Eh    ::
         :: -> Gsolv                  -0.058115861261 Eh    ::
         :: repulsion energy           0.808349221432 Eh    ::

    * Orbital Energies and Occupations

         #    Occupation            Energy/Eh            Energy/eV
      -------------------------------------------------------------
         1        2.0000           -0.8671213             -23.5956
       ...           ...                  ...                  ...
        55        2.0000           -0.5069689             -13.7953
        56        2.0000           -0.5061045             -13.7718
        57        2.0000           -0.5058208             -13.7641
        58        2.0000           -0.5029446             -13.6858
        59        2.0000           -0.4962422             -13.5034
        60        2.0000           -0.4820340             -13.1168
        61        2.0000           -0.4809963             -13.0886
        62        2.0000           -0.4696752             -12.7805
        63        2.0000           -0.4636515             -12.6166
        64        2.0000           -0.4618160             -12.5667
        65        2.0000           -0.4531127             -12.3298
        66        2.0000           -0.4496347             -12.2352
        67        2.0000           -0.4380113             -11.9189 (HOMO)
        68                         -0.3729083             -10.1474 (LUMO)
        69                         -0.3205351              -8.7222
        70                         -0.3123262              -8.4988
        71                         -0.2583408              -7.0298
        72                         -0.2503663              -6.8128
        73                         -0.2064863              -5.6188
        74                         -0.2004686              -5.4550
        75                         -0.1441802              -3.9233
        76                         -0.1435415              -3.9060
        77                         -0.1423614              -3.8739
        78                         -0.1373627              -3.7378
       ...                                ...                  ...
       134                          0.7675732              20.8867
      -------------------------------------------------------------
                  HL-Gap            0.0651031 Eh            1.7715 eV

Wiberg/Mayer (AO) data.
largest (>0.10) Wiberg bond orders for each atom

     #   Z sym  total        # sym  WBO       # sym  WBO       # sym  WBO
 ---------------------------------------------------------------------------
     1   6 C    3.859 --    26 H    0.985    27 H    0.979    28 H    0.978
                             2 O    0.884
     2   8 O    2.226 --     3 C    1.148     1 C    0.884     4 O    0.147
     3   6 C    3.854 --     4 O    1.684     2 O    1.148     5 C    0.945
     4   8 O    1.948 --     3 C    1.684     2 O    0.147
     5   6 C    3.953 --    25 N    1.800     6 C    0.989     3 C    0.945
     6   6 C    3.855 --     7 O    1.810     5 C    0.989     8 C    0.904
     7   8 O    2.014 --     6 C    1.810
     8   6 C    3.903 --     9 O    1.641    10 N    1.242     6 C    0.904
     9   8 O    1.933 --     8 C    1.641    10 N    0.183
    10   7 N    3.357 --     8 C    1.242    11 C    0.934    29 H    0.881
                             9 O    0.183
    11   6 C    3.913 --    25 N    0.996    12 C    0.951    13 C    0.936
                            10 N    0.934
    12   6 C    3.982 --    32 H    0.981    31 H    0.979    30 H    0.979
                            11 C    0.951
    13   6 C    3.928 --    14 C    0.997    15 C    0.995    11 C    0.936
                            16 N    0.927
    14   6 C    3.988 --    13 C    0.997    34 H    0.982    35 H    0.982
                            33 H    0.977
    15   6 C    3.988 --    13 C    0.995    38 H    0.982    36 H    0.980
                            37 H    0.976
    16   7 N    3.347 --    17 C    1.256    13 C    0.927    39 H    0.892
                            18 O    0.176
    17   6 C    3.917 --    18 O    1.586    16 N    1.256    19 C    0.992
    18   8 O    1.905 --    17 C    1.586    16 N    0.176
    19   6 C    3.872 --    20 N    1.624    24 O    1.046    17 C    0.992
    20   7 N    3.000 --    19 C    1.624    21 N    1.198
    21   7 N    2.982 --    22 C    1.612    20 N    1.198
    22   6 C    3.868 --    21 N    1.612    24 O    1.071    23 C    1.032
    23   6 C    3.986 --    22 C    1.032    41 H    0.982    42 H    0.965
                            40 H    0.961
    24   8 O    2.314 --    22 C    1.071    19 C    1.046
    25   7 N    3.052 --     5 C    1.800    11 C    0.996
    26   1 H    1.008 --     1 C    0.985
    27   1 H    1.004 --     1 C    0.979
    28   1 H    1.004 --     1 C    0.978
    29   1 H    0.927 --    10 N    0.881
    30   1 H    0.999 --    12 C    0.979
    31   1 H    0.999 --    12 C    0.979
    32   1 H    0.999 --    12 C    0.981
    33   1 H    1.010 --    14 C    0.977
    34   1 H    1.014 --    14 C    0.982
    35   1 H    1.002 --    14 C    0.982
    36   1 H    0.999 --    15 C    0.980
    37   1 H    1.004 --    15 C    0.976
    38   1 H    1.000 --    15 C    0.982
    39   1 H    0.947 --    16 N    0.892
    40   1 H    0.996 --    23 C    0.961
    41   1 H    0.998 --    23 C    0.982
    42   1 H    0.997 --    23 C    0.965
 ---------------------------------------------------------------------------

           -------------------------------------------------
          | TOTAL ENERGY              -82.984392515580 Eh   |
          | GRADIENT NORM               0.000471193295 Eh/α |
          | HOMO-LUMO GAP               1.771544776784 eV   |
           -------------------------------------------------

 * finished run on 2023/06/21 at 17:41:42.349
