   * xtb version 6.5.1 (579679a) compiled by 'ehlert@majestix' on 2022-07-11
          program call               : /lustre/hpc/kemi/ree/PhD/git/ReactivityQM/dep/xtb-6.5.1/bin/xtb --gfn 1 /lustre/hpc/kemi/ree/PhD/git/ReactivityQM/calculations/R02oxygendeprot/reac01prodE10/conf12/R02oxygendeprot_reac01prodE10_conf12_gfn1.xyz --opt --vfukui --chrg -2 --uhf 0 --alpb DMSO

   ID    Z sym.   atoms
    1    6 C      1, 3, 5, 7-10, 12, 14, 17-19, 22, 24
    2    8 O      2, 4, 13, 20, 23, 25
    3    7 N      6, 11, 15, 16, 21
    4    1 H      26-42

      * Solvation model:               ALPB
        Solvent                        DMSO
        Solvent mass                       7.8130E+01 g/mol
          :  Hamiltonian                  GFN1-xTB          :
 * total energy  :   -83.5627943 Eh     change       -0.4347100E-10 Eh
 * total energy  :   -83.5790657 Eh     change       -0.1627139E-01 Eh
 * total energy  :   -83.5858973 Eh     change       -0.6831566E-02 Eh
 * total energy  :   -83.5871063 Eh     change       -0.1208998E-02 Eh
 * total energy  :   -83.5880366 Eh     change       -0.9302726E-03 Eh
 * total energy  :   -83.5883029 Eh     change       -0.2663668E-03 Eh
 * total energy  :   -83.5884669 Eh     change       -0.1639492E-03 Eh
 * total energy  :   -83.5885435 Eh     change       -0.7656638E-04 Eh
 * total energy  :   -83.5885855 Eh     change       -0.4199537E-04 Eh
 * total energy  :   -83.5886092 Eh     change       -0.2376230E-04 Eh
 * total energy  :   -83.5886622 Eh     change       -0.1677251E-04 Eh
 * total energy  :   -83.5886757 Eh     change       -0.1351522E-04 Eh
 * total energy  :   -83.5886881 Eh     change       -0.1236909E-04 Eh
 * total energy  :   -83.5887036 Eh     change       -0.1554277E-04 Eh
 * total energy  :   -83.5887224 Eh     change       -0.1878785E-04 Eh
 * total energy  :   -83.5887376 Eh     change       -0.1516288E-04 Eh
 * total energy  :   -83.5887477 Eh     change       -0.1009007E-04 Eh
 * total energy  :   -83.5887547 Eh     change       -0.7007019E-05 Eh
 * total energy  :   -83.5887574 Eh     change       -0.2683399E-05 Eh
   *** GEOMETRY OPTIMIZATION CONVERGED AFTER 22 ITERATIONS ***

 final structure:
================
42
 xtb: 6.5.1 (579679a)
C           -5.96801853176925        2.31005461454335       -0.31804262937180
O           -4.83197941688636        1.48917499550115       -0.11668963688463
C           -4.84152701397013        0.74310120568265        1.04715832554395
O           -5.79615059340010        0.83601950704976        1.81419725066634
C           -3.66676314751192       -0.08238090618264        1.18948984032686
N           -2.74117083873828        0.01522922068383        0.15818908787642
C           -1.67046898855994       -0.69118626692767        0.18023077929818
C           -0.68285110512277       -0.66810347664566       -0.97567951342321
C           -0.73756139962511        0.70380091750659       -1.66871353859246
C           -1.12450438219551       -1.77848843278221       -1.94796582991490
N            0.64138288920459       -0.96169608412039       -0.42229867056540
C            1.78479162608223       -0.81118801425191       -1.34157721576743
O            1.66265233165203       -1.11207758963903       -2.57883775717795
C            2.90482933702176       -0.39617675685524       -0.68512415305326
N            3.02775278328842       -0.04473743494234        0.68043736120299
N            4.29710415303950        0.32924386575577        0.78959556303967
C            4.79472118671933        0.76545757002143        2.07224597002992
C            4.98899717465527        0.25634372141491       -0.32605472049324
C            6.42382133843464        0.57896298794027       -0.52965776894885
O            4.20106716038328       -0.20396226628499       -1.33898165954547
N           -1.40712891271265       -1.57762407518016        1.20115632211747
C           -2.22676859259957       -1.77103526322740        2.28392510534414
O           -1.90074212353284       -2.58665302632641        3.15728547702893
C           -3.48653532562286       -0.95493177177291        2.30281149509122
O           -4.28130233973868       -1.08797144459473        3.26133928844429
H           -5.81990109980690        2.84189228869371       -1.25771239669519
H           -6.08113095388823        3.03381071237823        0.49687580672069
H           -6.88229971221485        1.70895233452912       -0.37951731702805
H           -1.76737485212539        0.93588778113260       -1.94194247223347
H           -0.37329382292191        1.47908923815608       -0.99420447260756
H           -0.12291207907228        0.69683492316932       -2.56807017177243
H           -0.50560926801870       -1.77874088308921       -2.84370310964323
H           -2.16408383198407       -1.61904497451310       -2.23680569695374
H           -1.03858270460319       -2.74999904368695       -1.46090994827617
H            0.81006156382384       -0.34684093361196        0.37418363357132
H            5.17132914252247        1.78476942971844        1.99561815585858
H            3.97456603130601        0.72551632003022        2.78586782314642
H            5.60252778574718        0.11079995005933        2.39783278456165
H            6.67949440765145        0.41284743116211       -1.57424416695089
H            7.06344696158575       -0.04968796203231        0.09340792714540
H            6.63526775475170        1.61961163366552       -0.27651120002466
H           -0.54515459126061       -2.10487404212989        1.16729104890830

          :  Hamiltonian                  GFN1-xTB          :
         :: total energy             -83.588757360953 Eh    ::
         :: gradient norm              0.000282247568 Eh/a0 ::
         :: HOMO-LUMO gap              0.138020546396 eV    ::
         :: SCC energy               -84.326028323252 Eh    ::
         :: -> Gsolv                  -0.285400381714 Eh    ::
         :: repulsion energy           0.762451924686 Eh    ::

    * Orbital Energies and Occupations

         #    Occupation            Energy/Eh            Energy/eV
      -------------------------------------------------------------
         1        2.0000           -0.8041407             -21.8818
       ...           ...                  ...                  ...
        56        2.0000           -0.4475180             -12.1776
        57        2.0000           -0.4434333             -12.0664
        58        2.0000           -0.4330598             -11.7842
        59        2.0000           -0.4203038             -11.4370
        60        2.0000           -0.4166458             -11.3375
        61        2.0000           -0.4063037             -11.0561
        62        2.0000           -0.3936178             -10.7109
        63        2.0000           -0.3751863             -10.2093
        64        2.0000           -0.3720836             -10.1249
        65        2.0000           -0.3586728              -9.7600
        66        2.0000           -0.3492457              -9.5035
        67        2.0000           -0.3449813              -9.3874
        68        1.8704           -0.2590993              -7.0505 (HOMO)
        69        0.1296           -0.2540272              -6.9124 (LUMO)
        70                         -0.2261809              -6.1547
        71                         -0.2141581              -5.8275
        72                         -0.1781506              -4.8477
        73                         -0.1397894              -3.8039
        74                         -0.1243723              -3.3843
        75                         -0.1158357              -3.1520
        76                         -0.1057644              -2.8780
        77                         -0.0919865              -2.5031
        78                         -0.0881506              -2.3987
        79                         -0.0876155              -2.3841
       ...                                ...                  ...
       134                          0.7635047              20.7760
      -------------------------------------------------------------
                  HL-Gap            0.0050722 Eh            0.1380 eV

Wiberg/Mayer (AO) data.
largest (>0.10) Wiberg bond orders for each atom

     #   Z sym  total        # sym  WBO       # sym  WBO       # sym  WBO
 ---------------------------------------------------------------------------
     1   6 C    3.908 --    26 H    0.987    28 H    0.980    27 H    0.980
                             2 O    0.937
     2   8 O    2.111 --     3 C    0.995     1 C    0.937     4 O    0.100
     3   6 C    3.814 --     4 O    1.557     5 C    1.156     2 O    0.995
     4   8 O    1.825 --     3 C    1.557     2 O    0.100
     5   6 C    3.902 --    24 C    1.252     3 C    1.156     6 N    1.137
                            25 O    0.122
     6   7 N    3.007 --     7 C    1.629     5 C    1.137
     7   6 C    3.927 --     6 N    1.629    21 N    1.103     8 C    0.975
     8   6 C    3.967 --     9 C    0.987    10 C    0.980     7 C    0.975
                            11 N    0.971
     9   6 C    3.996 --    30 H    0.987     8 C    0.987    29 H    0.985
                            31 H    0.984
    10   6 C    3.993 --    33 H    0.989    34 H    0.987     8 C    0.980
                            32 H    0.976
    11   7 N    3.051 --     8 C    0.971    35 H    0.942    12 C    0.922
    12   6 C    3.891 --    14 C    1.499    13 O    1.313    11 N    0.922
    13   8 O    1.643 --    12 C    1.313    14 C    0.144
    14   6 C    3.665 --    12 C    1.499    15 N    1.078    20 O    0.839
                            13 O    0.144
    15   7 N    2.744 --    16 N    1.175    14 C    1.078    18 C    0.297
    16   7 N    3.636 --    18 C    1.382    15 N    1.175    17 C    0.950
    17   6 C    3.953 --    37 H    0.985    36 H    0.981    38 H    0.981
                            16 N    0.950
    18   6 C    3.846 --    16 N    1.382    20 O    1.044    19 C    1.025
                            15 N    0.297
    19   6 C    3.993 --    18 C    1.025    39 H    0.983    41 H    0.972
                            40 H    0.971
    20   8 O    2.091 --    18 C    1.044    14 C    0.839
    21   7 N    3.415 --    22 C    1.153     7 C    1.103    42 H    0.895
                            23 O    0.127
    22   6 C    3.838 --    23 O    1.529    21 N    1.153    24 C    0.996
    23   8 O    1.792 --    22 C    1.529    21 N    0.127
    24   6 C    3.914 --    25 O    1.489     5 C    1.252    22 C    0.996
    25   8 O    1.775 --    24 C    1.489     5 C    0.122
    26   1 H    1.018 --     1 C    0.987
    27   1 H    1.017 --     1 C    0.980
    28   1 H    1.016 --     1 C    0.980
    29   1 H    1.021 --     9 C    0.985
    30   1 H    1.009 --     9 C    0.987
    31   1 H    1.020 --     9 C    0.984
    32   1 H    1.034 --    10 C    0.976
    33   1 H    1.010 --    10 C    0.989
    34   1 H    1.013 --    10 C    0.987
    35   1 H    0.993 --    11 N    0.942
    36   1 H    1.002 --    17 C    0.981
    37   1 H    1.012 --    17 C    0.985
    38   1 H    1.002 --    17 C    0.981
    39   1 H    1.002 --    19 C    0.983
    40   1 H    1.002 --    19 C    0.971
    41   1 H    1.003 --    19 C    0.972
    42   1 H    0.968 --    21 N    0.895
 ---------------------------------------------------------------------------

           -------------------------------------------------
          | TOTAL ENERGY              -83.588757360953 Eh   |
          | GRADIENT NORM               0.000282247568 Eh/α |
          | HOMO-LUMO GAP               0.138020546396 eV   |
           -------------------------------------------------

 * finished run on 2023/06/21 at 17:12:33.779
