   * xtb version 6.5.1 (579679a) compiled by 'ehlert@majestix' on 2022-07-11
          program call               : /lustre/hpc/kemi/ree/PhD/git/ReactivityQM/dep/xtb-6.5.1/bin/xtb --gfn 1 /lustre/hpc/kemi/ree/PhD/git/ReactivityQM/calculations/R03/reac02prodN18/conf09/R03_reac02prodN18_conf09_gfn1.xyz --opt --vfukui --chrg 1 --uhf 0 --alpb DMSO

   ID    Z sym.   atoms
    1    6 C      1, 3, 5, 6, 8, 11-16, 18, 20, 23, 24
    2    8 O      2, 4, 7, 9, 19, 25
    3    7 N      10, 17, 21, 22, 26
    4    1 H      27-46

      * Solvation model:               ALPB
        Solvent                        DMSO
        Solvent mass                       7.8130E+01 g/mol
          :  Hamiltonian                  GFN1-xTB          :
 * total energy  :   -86.2820283 Eh     change       -0.6723155E-10 Eh
 * total energy  :   -86.2977129 Eh     change       -0.1568463E-01 Eh
 * total energy  :   -86.3039464 Eh     change       -0.6233431E-02 Eh
 * total energy  :   -86.3054961 Eh     change       -0.1549765E-02 Eh
 * total energy  :   -86.3065135 Eh     change       -0.1017348E-02 Eh
 * total energy  :   -86.3072598 Eh     change       -0.7463291E-03 Eh
 * total energy  :   -86.3079300 Eh     change       -0.6701575E-03 Eh
 * total energy  :   -86.3085311 Eh     change       -0.6011286E-03 Eh
 * total energy  :   -86.3088652 Eh     change       -0.3340939E-03 Eh
 * total energy  :   -86.3089825 Eh     change       -0.1173030E-03 Eh
 * total energy  :   -86.3105373 Eh     change       -0.1600000E-04 Eh
 * total energy  :   -86.3105568 Eh     change       -0.1951726E-04 Eh
 * total energy  :   -86.3105788 Eh     change       -0.2194239E-04 Eh
 * total energy  :   -86.3105923 Eh     change       -0.1348288E-04 Eh
 * total energy  :   -86.3105997 Eh     change       -0.7466487E-05 Eh
 * total energy  :   -86.3106077 Eh     change       -0.7932264E-05 Eh
 * total energy  :   -86.3106174 Eh     change       -0.9746693E-05 Eh
 * total energy  :   -86.3106243 Eh     change       -0.6940270E-05 Eh
 * total energy  :   -86.3106281 Eh     change       -0.3755339E-05 Eh
   *** GEOMETRY OPTIMIZATION CONVERGED AFTER 58 ITERATIONS ***

 final structure:
================
46
 xtb: 6.5.1 (579679a)
C           -5.02034455928776       -1.57316063331476       -2.74121262157414
O           -3.95587621931055       -1.16698980177513       -1.86489582929829
C           -4.25731571684755       -0.29464049877346       -0.93094855334516
O           -5.36031113618297        0.18997884077625       -0.76780148467926
C           -3.11358370867422        0.06976383699645       -0.04853214679323
C           -3.29603577610373        0.92451154122328        0.99958159447245
O           -4.44270948897999        1.48452620997124        1.33612738010957
C           -2.18143374347835        1.20131816374822        1.91416542545548
O           -2.22791574856145        1.70505523280287        2.98791761972447
N           -0.81455506702629        0.85647727927922        1.33883892425084
C            0.12775082979777        0.69399945847537        2.47774943140910
C           -0.47004330865237        2.11407163664230        0.58140425996573
C           -0.83866953728165       -0.28804235963159        0.36242566645477
C            0.36291408553206       -1.17671725306494        0.10025798171102
C            0.43285618779516       -2.26592033792347        1.18249620188534
C            0.17744627642189       -1.85541728402296       -1.26812425748222
N            1.62442109889291       -0.44525327427789        0.11241099561950
C            1.91369469504906        0.48539514292204       -0.83682086272091
O            1.08581932347868        0.97086406817315       -1.58950860560482
C            3.32989270429337        0.89634018977568       -0.81655718454159
N            3.93444920755936        1.74256143062172       -1.59148083983595
N            5.23165235574565        1.78681027165643       -1.18828988371010
C            5.34392627114749        0.96498669867462       -0.18950554439063
C            6.55102263957280        0.65202086495221        0.60410841869750
O            4.17536964336813        0.36751420803531        0.09459283523691
N           -1.90652188874165       -0.56302795228655       -0.25205754752401
H           -5.80067821449083       -2.07065794892385       -2.16245278582087
H           -5.43765567868414       -0.69845013500567       -3.24351588877431
H           -4.57965620839091       -2.25865684402370       -3.46147865009960
H           -5.15642071535251        1.21087021224060        0.70308116632456
H           -0.22314892736009       -0.12152501028805        3.10273806225737
H            1.11708388495431        0.49461024912918        2.08361420793236
H            0.13011635380895        1.62333740707266        3.04209489316525
H            0.60585187193406        2.13798277659211        0.45338458937614
H           -0.96703515260359        2.09003499213306       -0.38463801564987
H           -0.79194970486211        2.96908301341890        1.17098730932782
H            1.16445318411517       -3.01411138211760        0.88166738528632
H            0.73399939527149       -1.85616508941748        2.14216282101081
H           -0.53947495189206       -2.74420129957892        1.28746653613454
H           -0.67971767286451       -2.52461317855012       -1.22921217630518
H            1.07206986188265       -2.42965599488299       -1.50031325253778
H            0.01092608115506       -1.11285546684071       -2.04609659580956
H            2.39287210631125       -0.87407903472842        0.60363101991731
H            6.79308159837970       -0.40631098623209        0.50603012271050
H            7.38835504545427        1.25349005911605        0.25781844503185
H            6.36102942369492        0.85484598123896        1.65772843300185

          :  Hamiltonian                  GFN1-xTB          :
         :: total energy             -86.310628099526 Eh    ::
         :: gradient norm              0.000348714328 Eh/a0 ::
         :: HOMO-LUMO gap              1.711315960841 eV    ::
         :: SCC energy               -87.142987903544 Eh    ::
         :: -> Gsolv                  -0.113199904821 Eh    ::
         :: repulsion energy           0.863780910069 Eh    ::

    * Orbital Energies and Occupations

         #    Occupation            Energy/Eh            Energy/eV
      -------------------------------------------------------------
         1        2.0000           -0.8987257             -24.4556
       ...           ...                  ...                  ...
        58        2.0000           -0.5312779             -14.4568
        59        2.0000           -0.5276912             -14.3592
        60        2.0000           -0.5206869             -14.1686
        61        2.0000           -0.5164965             -14.0546
        62        2.0000           -0.5149589             -14.0127
        63        2.0000           -0.5087007             -13.8425
        64        2.0000           -0.4922764             -13.3955
        65        2.0000           -0.4880559             -13.2807
        66        2.0000           -0.4842759             -13.1778
        67        2.0000           -0.4826252             -13.1329
        68        2.0000           -0.4737370             -12.8910
        69        2.0000           -0.4626909             -12.5905
        70        2.0000           -0.4611414             -12.5483 (HOMO)
        71                         -0.3982517             -10.8370 (LUMO)
        72                         -0.3300743              -8.9818
        73                         -0.3280174              -8.9258
        74                         -0.2982474              -8.1157
        75                         -0.2649464              -7.2096
        76                         -0.2148217              -5.8456
        77                         -0.2136647              -5.8141
        78                         -0.1666567              -4.5350
        79                         -0.1614125              -4.3923
        80                         -0.1481640              -4.0317
        81                         -0.1471233              -4.0034
       ...                                ...                  ...
       144                          0.7286989              19.8289
      -------------------------------------------------------------
                  HL-Gap            0.0628897 Eh            1.7113 eV

Wiberg/Mayer (AO) data.
largest (>0.10) Wiberg bond orders for each atom

     #   Z sym  total        # sym  WBO       # sym  WBO       # sym  WBO
 ---------------------------------------------------------------------------
     1   6 C    3.849 --    29 H    0.985    28 H    0.978    27 H    0.977
                             2 O    0.876
     2   8 O    2.238 --     3 C    1.168     1 C    0.876     4 O    0.140
     3   6 C    3.861 --     4 O    1.616     2 O    1.168     5 C    0.999
     4   8 O    1.964 --     3 C    1.616     2 O    0.140
     5   6 C    3.960 --     6 C    1.517    26 N    1.112     3 C    0.999
                             7 O    0.113
     6   6 C    3.930 --     5 C    1.517     7 O    1.164     8 C    1.026
     7   8 O    2.127 --     6 C    1.164    30 H    0.748     5 C    0.113
     8   6 C    3.858 --     9 O    1.824     6 C    1.026    10 N    0.844
     9   8 O    2.086 --     8 C    1.824
    10   7 N    3.612 --    11 C    0.894    13 C    0.864    12 C    0.859
                             8 C    0.844
    11   6 C    3.881 --    31 H    0.978    33 H    0.976    32 H    0.974
                            10 N    0.894
    12   6 C    3.873 --    35 H    0.978    36 H    0.978    34 H    0.973
                            10 N    0.859
    13   6 C    3.896 --    26 N    1.787    14 C    0.984    10 N    0.864
    14   6 C    3.933 --    13 C    0.984    16 C    0.979    15 C    0.969
                            17 N    0.938
    15   6 C    3.982 --    39 H    0.983    38 H    0.979    37 H    0.976
                            14 C    0.969
    16   6 C    3.983 --    40 H    0.984    41 H    0.983    42 H    0.979
                            14 C    0.979
    17   7 N    3.321 --    18 C    1.217    14 C    0.938    43 H    0.885
                            19 O    0.162
    18   6 C    3.910 --    19 O    1.587    17 N    1.217    20 C    1.008
    19   8 O    1.911 --    18 C    1.587    17 N    0.162
    20   6 C    3.877 --    21 N    1.611    25 O    1.046    18 C    1.008
    21   7 N    3.006 --    20 C    1.611    22 N    1.210
    22   7 N    2.983 --    23 C    1.599    21 N    1.210
    23   6 C    3.864 --    22 N    1.599    25 O    1.074    24 C    1.034
    24   6 C    3.984 --    23 C    1.034    45 H    0.982    46 H    0.962
                            44 H    0.960
    25   8 O    2.318 --    23 C    1.074    20 C    1.046
    26   7 N    3.091 --    13 C    1.787     5 C    1.112
    27   1 H    1.002 --     1 C    0.977
    28   1 H    1.003 --     1 C    0.978
    29   1 H    1.007 --     1 C    0.985
    30   1 H    0.829 --     7 O    0.748
    31   1 H    0.996 --    11 C    0.978
    32   1 H    1.003 --    11 C    0.974
    33   1 H    0.995 --    11 C    0.976
    34   1 H    0.999 --    12 C    0.973
    35   1 H    1.002 --    12 C    0.978
    36   1 H    0.991 --    12 C    0.978
    37   1 H    0.993 --    15 C    0.976
    38   1 H    0.998 --    15 C    0.979
    39   1 H    0.998 --    15 C    0.983
    40   1 H    1.006 --    16 C    0.984
    41   1 H    0.998 --    16 C    0.983
    42   1 H    1.009 --    16 C    0.979
    43   1 H    0.928 --    17 N    0.885
    44   1 H    0.995 --    24 C    0.960
    45   1 H    0.997 --    24 C    0.982
    46   1 H    0.995 --    24 C    0.962
 ---------------------------------------------------------------------------

           -------------------------------------------------
          | TOTAL ENERGY              -86.310628099526 Eh   |
          | GRADIENT NORM               0.000348714328 Eh/α |
          | HOMO-LUMO GAP               1.711315960841 eV   |
           -------------------------------------------------

 * finished run on 2023/06/20 at 15:54:52.718
