   * xtb version 6.5.1 (579679a) compiled by 'ehlert@majestix' on 2022-07-11
          program call               : /lustre/hpc/kemi/ree/PhD/git/ReactivityQM/dep/xtb-6.5.1/bin/xtb --gfn 1 /lustre/hpc/kemi/ree/PhD/git/ReactivityQM/calculations/R02/reac01prodE02/conf01/R02_reac01prodE02_conf01_gfn1.xyz --opt --vfukui --chrg -1 --uhf 0 --alpb DMSO

   ID    Z sym.   atoms
    1    6 C      1, 3, 4, 6, 8-11, 13, 15, 18, 19, 22, 24
    2    8 O      2, 5, 14, 20, 23, 25
    3    7 N      7, 12, 16, 17, 21
    4    1 H      26-43

      * Solvation model:               ALPB
        Solvent                        DMSO
        Solvent mass                       7.8130E+01 g/mol
          :  Hamiltonian                  GFN1-xTB          :
 * total energy  :   -83.8428657 Eh     change       -0.5015011E-10 Eh
 * total energy  :   -83.8557365 Eh     change       -0.1287083E-01 Eh
 * total energy  :   -83.8612967 Eh     change       -0.5560220E-02 Eh
 * total energy  :   -83.8628187 Eh     change       -0.1521916E-02 Eh
 * total energy  :   -83.8635511 Eh     change       -0.7324689E-03 Eh
 * total energy  :   -83.8640003 Eh     change       -0.4491163E-03 Eh
 * total energy  :   -83.8643713 Eh     change       -0.3710730E-03 Eh
 * total energy  :   -83.8647178 Eh     change       -0.3464378E-03 Eh
 * total energy  :   -83.8650551 Eh     change       -0.3373509E-03 Eh
 * total energy  :   -83.8653496 Eh     change       -0.2944624E-03 Eh
 * total energy  :   -83.8696106 Eh     change       -0.2116498E-04 Eh
 * total energy  :   -83.8696310 Eh     change       -0.2033325E-04 Eh
 * total energy  :   -83.8696427 Eh     change       -0.1174828E-04 Eh
 * total energy  :   -83.8696576 Eh     change       -0.1490708E-04 Eh
 * total energy  :   -83.8696675 Eh     change       -0.9924897E-05 Eh
 * total energy  :   -83.8696812 Eh     change       -0.1364254E-04 Eh
 * total energy  :   -83.8696880 Eh     change       -0.6812233E-05 Eh
 * total energy  :   -83.8696952 Eh     change       -0.7185044E-05 Eh
 * total energy  :   -83.8696987 Eh     change       -0.3549527E-05 Eh
   *** GEOMETRY OPTIMIZATION CONVERGED AFTER 67 ITERATIONS ***

 final structure:
================
43
 xtb: 6.5.1 (579679a)
C           -4.18198468049030       -0.30684147451002       -2.03488935343600
O           -3.81522673533828        0.87769648892877       -1.37863634597431
C           -3.95945642849749        0.83311768790387        0.12779333367408
C           -4.05128380529153        2.36165020235191        0.46630796616789
O           -4.93595383784869        0.10391935094455        0.54732851043611
C           -2.54676999661877        0.31927489812708        0.65716045513918
N           -1.69413450359521       -0.25503358223024       -0.25414680016601
C           -0.57583603439894       -0.76364159817720        0.12992200960622
C            0.34856404157659       -1.44491310884066       -0.86139027523984
C            0.03329638886688       -0.99887294763272       -2.29133848033852
C            0.20028134886023       -2.96267049173560       -0.71728147915301
N            1.73663049813202       -1.10409217685388       -0.52707142477393
C            2.16224005934371        0.17635150616370       -0.45982281109802
O            1.44320084916968        1.15638290480083       -0.52945882708320
C            3.63348675610631        0.24589221858150       -0.26248907972735
N            4.45496614182570       -0.76065923761921       -0.22149493566864
N            5.70121271322509       -0.24319003180675       -0.03473261721522
C            5.56089866561337        1.04679626743547        0.02603118599591
C            6.61930565433411        2.06211641065374        0.21916256334988
O            4.27981835973198        1.41684206404787       -0.11218242979219
N           -0.18520445486404       -0.78104151423703        1.43697105018207
C           -0.95312865669353       -0.23492862648798        2.44305826957089
O           -0.58195536930640       -0.24847144065230        3.61972708949922
C           -2.19731260514686        0.33170629512493        1.98012069749159
O           -2.97794792758397        0.88167009793977        2.95603851065872
H           -5.10663784379363       -0.73897208717913       -1.61906313203676
H           -3.38945058490424       -1.07254404288723       -1.97645604357633
H           -4.35330103261764       -0.07476909288442       -3.09223393498692
H           -4.94331788661828        2.75980232449775       -0.01518843571152
H           -3.17474187591978        2.89502666389733        0.10192709672267
H           -4.14119926455617        2.49111007844471        1.54201865669102
H            0.11095461303300        0.08460721530156       -2.37444347151241
H           -0.98127973628837       -1.30094514612984       -2.54765203816404
H            0.73146666968643       -1.46294504417133       -2.98435102565512
H            0.85872225182361       -3.47053321705713       -1.41906088434630
H            0.45670192449303       -3.27199549176401        0.29450692791482
H           -0.82823792350999       -3.25393515297942       -0.92608015714178
H            2.42443965293598       -1.83821393575584       -0.54681264327520
H            6.42194906452017        2.63996956885846        1.12192676837358
H            7.58486716167447        1.57064320120053        0.30562421451645
H            6.63407488479255        2.75027197307471       -0.62575208022479
H            0.69523079864696       -1.19512449837030        1.69288161641299
H           -2.51794431450763        0.77948852168785        3.80393978389889

          :  Hamiltonian                  GFN1-xTB          :
         :: total energy             -83.869698720514 Eh    ::
         :: gradient norm              0.000847230039 Eh/a0 ::
         :: HOMO-LUMO gap              0.878001671867 eV    ::
         :: SCC energy               -84.633274322472 Eh    ::
         :: -> Gsolv                  -0.145237897947 Eh    ::
         :: repulsion energy           0.790683111019 Eh    ::

    * Orbital Energies and Occupations

         #    Occupation            Energy/Eh            Energy/eV
      -------------------------------------------------------------
         1        2.0000           -0.8617603             -23.4497
       ...           ...                  ...                  ...
        56        2.0000           -0.4634573             -12.6113
        57        2.0000           -0.4591569             -12.4943
        58        2.0000           -0.4579395             -12.4612
        59        2.0000           -0.4510095             -12.2726
        60        2.0000           -0.4503580             -12.2549
        61        2.0000           -0.4456894             -12.1278
        62        2.0000           -0.4357944             -11.8586
        63        2.0000           -0.4328773             -11.7792
        64        2.0000           -0.4186225             -11.3913
        65        2.0000           -0.4009067             -10.9092
        66        2.0000           -0.3916158             -10.6564
        67        2.0000           -0.3605355              -9.8107
        68        2.0000           -0.3404689              -9.2646 (HOMO)
        69                         -0.3082029              -8.3866 (LUMO)
        70                         -0.2707156              -7.3665
        71                         -0.2551032              -6.9417
        72                         -0.2460685              -6.6959
        73                         -0.1960063              -5.3336
        74                         -0.1413985              -3.8476
        75                         -0.1383848              -3.7656
        76                         -0.1291011              -3.5130
        77                         -0.1211629              -3.2970
        78                         -0.1012466              -2.7551
        79                         -0.0988167              -2.6889
       ...                                ...                  ...
       136                          0.7257432              19.7485
      -------------------------------------------------------------
                  HL-Gap            0.0322660 Eh            0.8780 eV

Wiberg/Mayer (AO) data.
largest (>0.10) Wiberg bond orders for each atom

     #   Z sym  total        # sym  WBO       # sym  WBO       # sym  WBO
 ---------------------------------------------------------------------------
     1   6 C    3.936 --    28 H    0.984     2 O    0.978    27 H    0.976
                            26 H    0.973
     2   8 O    1.943 --     1 C    0.978     3 C    0.789
     3   6 C    3.896 --     5 O    1.250     4 C    0.931     6 C    0.875
                             2 O    0.789
     4   6 C    3.991 --    30 H    0.991    29 H    0.987    31 H    0.986
                             3 C    0.931
     5   8 O    1.541 --     3 C    1.250
     6   6 C    3.914 --    24 C    1.525     7 N    1.191     3 C    0.875
     7   7 N    3.040 --     8 C    1.590     6 C    1.191
     8   6 C    3.938 --     7 N    1.590    21 N    1.165     9 C    0.973
     9   6 C    3.933 --    10 C    0.991    11 C    0.987     8 C    0.973
                            12 N    0.919
    10   6 C    3.991 --     9 C    0.991    34 H    0.987    33 H    0.982
                            32 H    0.981
    11   6 C    3.991 --     9 C    0.987    36 H    0.984    37 H    0.984
                            35 H    0.983
    12   7 N    3.340 --    13 C    1.248     9 C    0.919    38 H    0.895
                            14 O    0.177
    13   6 C    3.918 --    14 O    1.598    12 N    1.248    15 C    0.988
    14   8 O    1.900 --    13 C    1.598    12 N    0.177
    15   6 C    3.874 --    16 N    1.611    20 O    1.063    13 C    0.988
    16   7 N    3.014 --    15 C    1.611    17 N    1.200
    17   7 N    2.981 --    18 C    1.605    16 N    1.200
    18   6 C    3.871 --    17 N    1.605    20 O    1.084    19 C    1.031
    19   6 C    3.987 --    18 C    1.031    40 H    0.983    41 H    0.964
                            39 H    0.963
    20   8 O    2.330 --    18 C    1.084    15 C    1.063
    21   7 N    3.453 --     8 C    1.165    22 C    1.117    42 H    0.893
                            23 O    0.121
    22   6 C    3.907 --    23 O    1.517    24 C    1.125    21 N    1.117
    23   8 O    1.842 --    22 C    1.517    21 N    0.121
    24   6 C    3.910 --     6 C    1.525    22 C    1.125    25 O    1.037
    25   8 O    2.027 --    24 C    1.037    43 H    0.832
    26   1 H    1.035 --     1 C    0.973
    27   1 H    1.034 --     1 C    0.976
    28   1 H    1.023 --     1 C    0.984
    29   1 H    1.019 --     4 C    0.987
    30   1 H    1.013 --     4 C    0.991
    31   1 H    1.023 --     4 C    0.986
    32   1 H    1.011 --    10 C    0.981
    33   1 H    1.014 --    10 C    0.982
    34   1 H    1.002 --    10 C    0.987
    35   1 H    0.998 --    11 C    0.983
    36   1 H    1.000 --    11 C    0.984
    37   1 H    1.001 --    11 C    0.984
    38   1 H    0.947 --    12 N    0.895
    39   1 H    0.997 --    19 C    0.963
    40   1 H    0.999 --    19 C    0.983
    41   1 H    0.997 --    19 C    0.964
    42   1 H    0.942 --    21 N    0.893
    43   1 H    0.871 --    25 O    0.832
 ---------------------------------------------------------------------------

           -------------------------------------------------
          | TOTAL ENERGY              -83.869698720514 Eh   |
          | GRADIENT NORM               0.000847230039 Eh/α |
          | HOMO-LUMO GAP               0.878001671867 eV   |
           -------------------------------------------------

 * finished run on 2023/06/20 at 14:54:20.043
