   * xtb version 6.5.1 (579679a) compiled by 'ehlert@majestix' on 2022-07-11
          program call               : /lustre/hpc/kemi/ree/PhD/git/ReactivityQM/dep/xtb-6.5.1/bin/xtb --gfn 1 /lustre/hpc/kemi/ree/PhD/git/ReactivityQM/calculations/R02oxygendeprot/reac01prodN16/conf01/R02oxygendeprot_reac01prodN16_conf01_gfn1.xyz --opt --vfukui --chrg 0 --uhf 0 --alpb DMSO

   ID    Z sym.   atoms
    1    6 C      1, 2, 5, 6, 9-12, 14, 15, 18-20, 22
    2    7 N      3, 4, 8, 13, 24
    3    8 O      7, 16, 17, 21, 23, 25
    4    1 H      26-42

      * Solvation model:               ALPB
        Solvent                        DMSO
        Solvent mass                       7.8130E+01 g/mol
          :  Hamiltonian                  GFN1-xTB          :
 * total energy  :   -82.9230878 Eh     change       -0.1783462E-10 Eh
 * total energy  :   -82.9401249 Eh     change       -0.1703702E-01 Eh
 * total energy  :   -82.9480121 Eh     change       -0.7887238E-02 Eh
 * total energy  :   -82.9496096 Eh     change       -0.1597457E-02 Eh
 * total energy  :   -82.9507877 Eh     change       -0.1178096E-02 Eh
 * total energy  :   -82.9515231 Eh     change       -0.7354472E-03 Eh
 * total energy  :   -82.9520296 Eh     change       -0.5065258E-03 Eh
 * total energy  :   -82.9523747 Eh     change       -0.3451002E-03 Eh
 * total energy  :   -82.9526340 Eh     change       -0.2592597E-03 Eh
 * total energy  :   -82.9528989 Eh     change       -0.2648667E-03 Eh
 * total energy  :   -82.9558643 Eh     change       -0.1070251E-04 Eh
 * total energy  :   -82.9558898 Eh     change       -0.2550195E-04 Eh
 * total energy  :   -82.9559373 Eh     change       -0.4743517E-04 Eh
 * total energy  :   -82.9559566 Eh     change       -0.1931348E-04 Eh
 * total energy  :   -82.9559739 Eh     change       -0.1731062E-04 Eh
 * total energy  :   -82.9559838 Eh     change       -0.9879063E-05 Eh
 * total energy  :   -82.9559890 Eh     change       -0.5272050E-05 Eh
 * total energy  :   -82.9559944 Eh     change       -0.5337673E-05 Eh
 * total energy  :   -82.9559991 Eh     change       -0.4722252E-05 Eh
   *** GEOMETRY OPTIMIZATION CONVERGED AFTER 44 ITERATIONS ***

 final structure:
================
42
 xtb: 6.5.1 (579679a)
C            6.14031424911285        2.62032550225902       -0.79344419580440
C            4.83662821767264        1.94076024274030       -0.62502550464072
N            3.65665245700129        2.40777181613230       -0.89834132592648
N            2.76643683452206        1.42776488274764       -0.57235175677851
C            3.46007968399607        0.42697618763392       -0.12088187004846
C            2.92241976462484       -0.87953067135257        0.34576227915631
O            3.63109699200244       -1.80260170060140        0.71283557478777
N            1.57984943848335       -0.89046778922954        0.29523019297551
C            0.75086741520713       -2.03307045724267        0.66643542105581
C            0.98367208816112       -2.38414995888685        2.14347193711675
C            1.08126659451681       -3.22250785984720       -0.24644507381957
C           -0.68721267308001       -1.59505071230252        0.46566327727872
N           -0.95362745930981       -0.40100936020796        0.09676783119582
C           -2.27649129761648        0.00876532824538       -0.07643060707064
C           -2.34113394343556        1.32651533640622       -0.53350184847419
O           -1.54096555404965        2.16880917705471       -0.80759421146225
O           -3.84659507706726        1.78384690376390       -0.80264991494770
C           -3.91395226714721        2.69772380336227       -1.91603873469188
C           -4.48986424058760        2.28514378732674        0.39069152506372
C           -3.38255275936319       -0.86538081356890        0.17938265280791
O           -4.57296643780259       -0.55796272588660        0.11023877287462
C           -3.01231740596729       -2.28270191765465        0.58216650059404
O           -3.82966187891321       -3.15924013594759        0.79569152464256
N           -1.66955255392413       -2.53105050596461        0.70374703101879
O            4.77903707089644        0.69461352668469       -0.13209147371162
H            6.79926309062472        2.01584635513203       -1.41610141276669
H            5.98925177633300        3.59265602406477       -1.25546796707737
H            6.62003109394119        2.74984782370307        0.17678894836141
H            1.08410783154385       -0.06033334734185       -0.01601298351568
H            0.78226239810328       -1.51474845397235        2.76746365589285
H            0.32173134216661       -3.19519984962887        2.43939560232760
H            2.01480009999391       -2.70039348738276        2.29131864643684
H            0.44449439081974       -4.06950824511836       -0.00115812918897
H            0.92349484467649       -2.94722311348672       -1.28823578684650
H            2.12032956147379       -3.51569432335249       -0.10713069582172
H           -4.96473539618929        2.91480998350004       -2.09325525466173
H           -3.36343067221134        3.61166086751650       -1.68695920126958
H           -3.47721136659743        2.18958532182011       -2.77354597792223
H           -4.31834900618238        1.55717114442658        1.18008602436436
H           -4.07564359571542        3.25838286541643        0.65775470589380
H           -5.55408677953004        2.36034331672253        0.17495216802281
H           -1.41773387116400       -3.46572376764913        0.98681765460589

          :  Hamiltonian                  GFN1-xTB          :
         :: total energy             -82.955999097363 Eh    ::
         :: gradient norm              0.000402493670 Eh/a0 ::
         :: HOMO-LUMO gap              2.419544903458 eV    ::
         :: SCC energy               -83.748184234765 Eh    ::
         :: -> Gsolv                  -0.060975955788 Eh    ::
         :: repulsion energy           0.817932930880 Eh    ::

    * Orbital Energies and Occupations

         #    Occupation            Energy/Eh            Energy/eV
      -------------------------------------------------------------
         1        2.0000           -0.8848637             -24.0784
       ...           ...                  ...                  ...
        55        2.0000           -0.5042755             -13.7220
        56        2.0000           -0.5011970             -13.6383
        57        2.0000           -0.5006580             -13.6236
        58        2.0000           -0.4933310             -13.4242
        59        2.0000           -0.4810350             -13.0896
        60        2.0000           -0.4766868             -12.9713
        61        2.0000           -0.4632356             -12.6053
        62        2.0000           -0.4587472             -12.4831
        63        2.0000           -0.4528690             -12.3232
        64        2.0000           -0.4492449             -12.2246
        65        2.0000           -0.4444594             -12.0944
        66        2.0000           -0.4222804             -11.4908
        67        2.0000           -0.4133193             -11.2470 (HOMO)
        68                         -0.3244027              -8.8274 (LUMO)
        69                         -0.3075024              -8.3676
        70                         -0.2718789              -7.3982
        71                         -0.2559377              -6.9644
        72                         -0.2448735              -6.6633
        73                         -0.1956833              -5.3248
        74                         -0.1677594              -4.5650
        75                         -0.1554733              -4.2306
        76                         -0.1500936              -4.0843
        77                         -0.1425565              -3.8792
        78                         -0.1422294              -3.8703
       ...                                ...                  ...
       134                          0.7814278              21.2637
      -------------------------------------------------------------
                  HL-Gap            0.0889166 Eh            2.4195 eV

Wiberg/Mayer (AO) data.
largest (>0.10) Wiberg bond orders for each atom

     #   Z sym  total        # sym  WBO       # sym  WBO       # sym  WBO
 ---------------------------------------------------------------------------
     1   6 C    3.987 --     2 C    1.031    27 H    0.983    26 H    0.965
                            28 H    0.962
     2   6 C    3.872 --     3 N    1.608    25 O    1.082     1 C    1.031
     3   7 N    2.980 --     2 C    1.608     4 N    1.197
     4   7 N    3.014 --     5 C    1.614     3 N    1.197
     5   6 C    3.874 --     4 N    1.614    25 O    1.063     6 C    0.986
     6   6 C    3.920 --     7 O    1.582     8 N    1.270     5 C    0.986
     7   8 O    1.902 --     6 C    1.582     8 N    0.182
     8   7 N    3.361 --     6 C    1.270     9 C    0.934    29 H    0.876
                             7 O    0.182
     9   6 C    3.939 --    11 C    0.981    12 C    0.981    10 C    0.979
                             8 N    0.934
    10   6 C    3.987 --    30 H    0.985    31 H    0.984     9 C    0.979
                            32 H    0.979
    11   6 C    3.988 --    34 H    0.985    33 H    0.983     9 C    0.981
                            35 H    0.979
    12   6 C    3.932 --    13 N    1.659    24 N    1.105     9 C    0.981
    13   7 N    3.049 --    12 C    1.659    14 C    1.095
    14   6 C    3.918 --    15 C    1.296    20 C    1.195    13 N    1.095
                            16 O    0.110    21 O    0.102
    15   6 C    3.810 --    16 O    1.716    14 C    1.296    17 O    0.614
    16   8 O    2.038 --    15 C    1.716    14 C    0.110
    17   8 O    2.446 --    18 C    0.858    19 C    0.849    15 C    0.614
    18   6 C    3.830 --    37 H    0.979    38 H    0.979    36 H    0.979
                            17 O    0.858
    19   6 C    3.823 --    40 H    0.983    41 H    0.978    39 H    0.974
                            17 O    0.849
    20   6 C    3.924 --    21 O    1.595    14 C    1.195    22 C    0.944
    21   8 O    1.909 --    20 C    1.595    14 C    0.102
    22   6 C    3.885 --    23 O    1.634    24 N    1.159    20 C    0.944
    23   8 O    1.910 --    22 C    1.634    24 N    0.139
    24   7 N    3.433 --    22 C    1.159    12 C    1.105    42 H    0.887
                            23 O    0.139
    25   8 O    2.328 --     2 C    1.082     5 C    1.063
    26   1 H    0.997 --     1 C    0.965
    27   1 H    0.999 --     1 C    0.983
    28   1 H    0.997 --     1 C    0.962
    29   1 H    0.971 --     8 N    0.876
    30   1 H    1.002 --    10 C    0.985
    31   1 H    1.000 --    10 C    0.984
    32   1 H    1.008 --    10 C    0.979
    33   1 H    1.000 --    11 C    0.983
    34   1 H    1.002 --    11 C    0.985
    35   1 H    1.007 --    11 C    0.979
    36   1 H    0.999 --    18 C    0.979
    37   1 H    1.004 --    18 C    0.979
    38   1 H    1.001 --    18 C    0.979
    39   1 H    1.013 --    19 C    0.974
    40   1 H    0.997 --    19 C    0.983
    41   1 H    1.002 --    19 C    0.978
    42   1 H    0.935 --    24 N    0.887
 ---------------------------------------------------------------------------

           -------------------------------------------------
          | TOTAL ENERGY              -82.955999097363 Eh   |
          | GRADIENT NORM               0.000402493670 Eh/α |
          | HOMO-LUMO GAP               2.419544903458 eV   |
           -------------------------------------------------

 * finished run on 2023/06/21 at 17:36:19.755
