   * xtb version 6.5.1 (579679a) compiled by 'ehlert@majestix' on 2022-07-11
          program call               : /lustre/hpc/kemi/ree/PhD/git/ReactivityQM/dep/xtb-6.5.1/bin/xtb --gfn 1 /lustre/hpc/kemi/ree/PhD/git/ReactivityQM/calculations/R01/reac01prodN04/conf07/R01_reac01prodN04_conf07_gfn1.xyz --opt --vfukui --chrg 1 --uhf 0 --alpb DMSO

   ID    Z sym.   atoms
    1    6 C      1, 3, 5, 8-10
    2    8 O      2, 4, 11
    3    7 N      6, 7
    4    1 H      12-20

      * Solvation model:               ALPB
        Solvent                        DMSO
        Solvent mass                       7.8130E+01 g/mol
          :  Hamiltonian                  GFN1-xTB          :
 * total energy  :   -37.6265623 Eh     change       -0.3900880E-11 Eh
 * total energy  :   -37.6401792 Eh     change       -0.1361688E-01 Eh
 * total energy  :   -37.6444350 Eh     change       -0.4255859E-02 Eh
 * total energy  :   -37.6449676 Eh     change       -0.5325626E-03 Eh
 * total energy  :   -37.6451798 Eh     change       -0.2121788E-03 Eh
 * total energy  :   -37.6452029 Eh     change       -0.2308999E-04 Eh
 * total energy  :   -37.6452163 Eh     change       -0.1340928E-04 Eh
 * total energy  :   -37.6452256 Eh     change       -0.9364588E-05 Eh
 * total energy  :   -37.6452324 Eh     change       -0.6703078E-05 Eh
 * total energy  :   -37.6452393 Eh     change       -0.6975018E-05 Eh
 * total energy  :   -37.6452430 Eh     change       -0.3723561E-05 Eh
   *** GEOMETRY OPTIMIZATION CONVERGED AFTER 11 ITERATIONS ***

 final structure:
================
20
 xtb: 6.5.1 (579679a)
C            4.11724481936622       -0.60976933806670       -0.15708197655590
O            2.67894759789023       -0.65200165064792       -0.08834004531806
C            2.05274192425040        0.49373341106403        0.03925422580433
O            2.54776384330194        1.58191304835739        0.11193269218202
C            0.56291882559281        0.26323457789608        0.09182745355721
N           -0.08093580901327       -0.86402151504011        0.04900206161651
N           -1.37693411322745       -0.52409859956926        0.14008140382266
C           -2.39778039471480       -1.55184914985785        0.14695355713537
C           -1.49432706668740        0.78673009929471        0.23808831978453
C           -2.71358927691755        1.60055868361129        0.36003266704285
O           -0.28461259399803        1.30119447485580        0.20901958477663
H            4.44853941511295       -1.64536420659683       -0.17459486662112
H            4.51061085352220       -0.08910672657162        0.71726557454009
H            4.42170751587327       -0.08959158286720       -1.06664730086118
H           -3.26888972396879       -1.18322316425633       -0.38914142816601
H           -2.66270708343375       -1.77646383476457        1.18001260087351
H           -1.98855479098918       -2.43502137169462       -0.33735351310872
H           -3.34332240919292        1.45903219448457       -0.52034640513013
H           -3.28607297684965        1.28344061490370        1.23280413940829
H           -2.44274955591731        2.65067503546579        0.45362525521706

          :  Hamiltonian                  GFN1-xTB          :
         :: total energy             -37.645243049931 Eh    ::
         :: gradient norm              0.000815574166 Eh/a0 ::
         :: HOMO-LUMO gap              4.080816128350 eV    ::
         :: SCC energy               -38.000056647812 Eh    ::
         :: -> Gsolv                  -0.085656974700 Eh    ::
         :: repulsion energy           0.362847686486 Eh    ::

    * Orbital Energies and Occupations

         #    Occupation            Energy/Eh            Energy/eV
      -------------------------------------------------------------
         1        2.0000           -0.9450559             -25.7163
       ...           ...                  ...                  ...
        18        2.0000           -0.6246342             -16.9972
        19        2.0000           -0.6139659             -16.7069
        20        2.0000           -0.6009754             -16.3534
        21        2.0000           -0.5955950             -16.2070
        22        2.0000           -0.5929501             -16.1350
        23        2.0000           -0.5802236             -15.7887
        24        2.0000           -0.5761750             -15.6785
        25        2.0000           -0.5671559             -15.4331
        26        2.0000           -0.5534899             -15.0612
        27        2.0000           -0.5399859             -14.6938
        28        2.0000           -0.5297718             -14.4158
        29        2.0000           -0.5251200             -14.2892
        30        2.0000           -0.5226671             -14.2225 (HOMO)
        31                         -0.3726998             -10.1417 (LUMO)
        32                         -0.3504941              -9.5374
        33                         -0.2568961              -6.9905
        34                         -0.1875122              -5.1025
        35                         -0.1750204              -4.7625
        36                         -0.1541661              -4.1951
        37                         -0.1246808              -3.3927
        38                         -0.1153472              -3.1388
        39                         -0.1033676              -2.8128
        40                         -0.0952370              -2.5915
        41                         -0.0898101              -2.4439
       ...                                ...                  ...
        62                          0.7348081              19.9951
      -------------------------------------------------------------
                  HL-Gap            0.1499672 Eh            4.0808 eV

Wiberg/Mayer (AO) data.
largest (>0.10) Wiberg bond orders for each atom

     #   Z sym  total        # sym  WBO       # sym  WBO       # sym  WBO
 ---------------------------------------------------------------------------
     1   6 C    3.837 --    12 H    0.984    13 H    0.977    14 H    0.976
                             2 O    0.865
     2   8 O    2.236 --     3 C    1.166     1 C    0.865     4 O    0.158
     3   6 C    3.877 --     4 O    1.702     2 O    1.166     5 C    0.944
     4   8 O    1.979 --     3 C    1.702     2 O    0.158
     5   6 C    3.853 --     6 N    1.617    11 O    1.065     3 C    0.944
     6   7 N    2.992 --     5 C    1.617     7 N    1.162
     7   7 N    3.630 --     9 C    1.413     6 N    1.162     8 C    0.907
     8   6 C    3.881 --    17 H    0.976    15 H    0.975    16 H    0.963
                             7 N    0.907
     9   6 C    3.838 --     7 N    1.413    11 O    1.159    10 C    1.042
    10   6 C    3.959 --     9 C    1.042    20 H    0.972    19 H    0.945
                            18 H    0.941
    11   8 O    2.392 --     9 C    1.159     5 C    1.065
    12   1 H    1.005 --     1 C    0.984
    13   1 H    1.000 --     1 C    0.977
    14   1 H    1.000 --     1 C    0.976
    15   1 H    0.989 --     8 C    0.975
    16   1 H    0.988 --     8 C    0.963
    17   1 H    0.991 --     8 C    0.976
    18   1 H    0.985 --    10 C    0.941
    19   1 H    0.985 --    10 C    0.945
    20   1 H    0.985 --    10 C    0.972
 ---------------------------------------------------------------------------

           -------------------------------------------------
          | TOTAL ENERGY              -37.645243049931 Eh   |
          | GRADIENT NORM               0.000815574166 Eh/α |
          | HOMO-LUMO GAP               4.080816128350 eV   |
           -------------------------------------------------

 * finished run on 2023/06/20 at 14:55:33.513
