   * xtb version 6.5.1 (579679a) compiled by 'ehlert@majestix' on 2022-07-11
          program call               : /lustre/hpc/kemi/ree/PhD/git/ReactivityQM/dep/xtb-6.5.1/bin/xtb --gfn 1 /lustre/hpc/kemi/ree/PhD/git/ReactivityQM/calculations/R03/reac02prodN12/conf13/R03_reac02prodN12_conf13_gfn1.xyz --opt --vfukui --chrg 1 --uhf 0 --alpb DMSO

   ID    Z sym.   atoms
    1    6 C      1, 3, 5, 7-10, 12, 14, 15, 18, 19, 22, 23, 25
    2    8 O      2, 4, 13, 20, 24, 26
    3    7 N      6, 11, 16, 17, 21
    4    1 H      27-46

      * Solvation model:               ALPB
        Solvent                        DMSO
        Solvent mass                       7.8130E+01 g/mol
          :  Hamiltonian                  GFN1-xTB          :
 * total energy  :   -86.2881871 Eh     change       -0.1244615E-08 Eh
 * total energy  :   -86.3024268 Eh     change       -0.1423977E-01 Eh
 * total energy  :   -86.3082664 Eh     change       -0.5839583E-02 Eh
 * total energy  :   -86.3097820 Eh     change       -0.1515568E-02 Eh
 * total energy  :   -86.3109946 Eh     change       -0.1212608E-02 Eh
 * total energy  :   -86.3118023 Eh     change       -0.8077444E-03 Eh
 * total energy  :   -86.3125260 Eh     change       -0.7237018E-03 Eh
 * total energy  :   -86.3132026 Eh     change       -0.6765627E-03 Eh
 * total energy  :   -86.3137088 Eh     change       -0.5062331E-03 Eh
 * total energy  :   -86.3140248 Eh     change       -0.3159541E-03 Eh
 * total energy  :   -86.3174921 Eh     change       -0.1727724E-04 Eh
 * total energy  :   -86.3175092 Eh     change       -0.1717879E-04 Eh
 * total energy  :   -86.3175126 Eh     change       -0.3323323E-05 Eh
 * total energy  :   -86.3175347 Eh     change       -0.2214034E-04 Eh
 * total energy  :   -86.3175225 Eh     change        0.1224882E-04 Eh
 * total energy  :   -86.3175376 Eh     change       -0.1514556E-04 Eh
 * total energy  :   -86.3175343 Eh     change        0.3323867E-05 Eh
 * total energy  :   -86.3175469 Eh     change       -0.1265592E-04 Eh
 * total energy  :   -86.3175505 Eh     change       -0.3543688E-05 Eh
   *** GEOMETRY OPTIMIZATION CONVERGED AFTER 68 ITERATIONS ***

 final structure:
================
46
 xtb: 6.5.1 (579679a)
C           -5.69441257291291        1.22794269306968       -1.59646056296472
O           -4.48721779446488        0.65731843546999       -1.08042102151925
C           -4.27185686707154       -0.62930805253641       -1.35596920812609
O           -5.03905248753266       -1.30996106190815       -1.99408032893574
C           -2.98118757935260       -1.11244101058791       -0.78151151289974
N           -2.22011104326381       -0.18066428702100       -0.13180394864393
C           -1.09198753983141       -0.48583246236350        0.41839661449502
C           -0.38360552385577        0.66207091742697        1.12211409607902
C           -0.57104681466260        0.54792432939291        2.63972992995707
C           -0.94513167085984        1.99659671445301        0.61810824673536
N            1.05349402166116        0.61266862732974        0.75267683134150
C            1.94725530960362        1.41687045298271        1.29534506610811
O            1.82136695223515        2.24902264452123        2.14960754020840
C            3.43713079878643        1.15350210946704        0.73750764090396
C            4.26919742233886        0.71612089955531        1.94250629297914
N            3.85385913298242        2.34011289255892        0.11162726715870
N            4.05900288015667        2.12970462181234       -1.12149250055418
C            3.82051206323257        0.80745445139787       -1.36454421697700
C            3.95022979686491        0.14608084707454       -2.65755359565295
O            3.44885375875505        0.19731190658841       -0.29192163026970
N           -0.59929225008406       -1.76616776515964        0.40618417514646
C            0.64713323289286       -2.21225477878897        1.03002136932254
C           -1.26529717538080       -2.77683373222343       -0.27190773465777
O           -0.82241514908958       -3.91588518046074       -0.33672602051443
C           -2.53247226705614       -2.40068432377789       -0.88485708118446
O           -3.18092561142082       -3.37853318867149       -1.51721823281822
H           -5.73554791371950        2.25102483796848       -1.22841704973020
H           -6.56006652107507        0.66136632360138       -1.24415170588571
H           -5.67415412764775        1.21864419219170       -2.68894170464854
H           -0.06158900157548       -0.32517463852666        3.03914316544138
H           -0.18456684016377        1.43642789301729        3.13530153436087
H           -1.63595254328859        0.46191224341261        2.85296062802546
H           -0.41794843242873        2.82031653397897        1.09541908558114
H           -2.00456680346471        2.06087440698414        0.85970006634996
H           -0.82390699777426        2.06706095025802       -0.46112851436924
H            1.32431891892348        0.01964604733196       -0.01216312241011
H            3.87108865773528       -0.21953612792521        2.32717796919903
H            5.29992358280992        0.57458538595056        1.62523789550901
H            4.20894390803601        1.49067910890204        2.70498932837314
H            3.70704364080616       -0.91045195408041       -2.57916521807167
H            3.29536308113296        0.63502382559087       -3.38270811690135
H            4.97261675566976        0.27584950602205       -3.02191986761612
H            0.46250626779997       -3.18467104931160        1.48698961280884
H            1.40882293787250       -2.32121612175194        0.25927068330532
H            0.97905130762813       -1.50768659783130        1.78120128022789
H           -2.65340389995101       -4.19680946533442       -1.46131842424624

          :  Hamiltonian                  GFN1-xTB          :
         :: total energy             -86.317550479693 Eh    ::
         :: gradient norm              0.000390759975 Eh/a0 ::
         :: HOMO-LUMO gap              0.289632932948 eV    ::
         :: SCC energy               -87.148735220248 Eh    ::
         :: -> Gsolv                  -0.125340117200 Eh    ::
         :: repulsion energy           0.861344371783 Eh    ::

    * Orbital Energies and Occupations

         #    Occupation            Energy/Eh            Energy/eV
      -------------------------------------------------------------
         1        2.0000           -0.9377514             -25.5175
       ...           ...                  ...                  ...
        58        2.0000           -0.5316508             -14.4670
        59        2.0000           -0.5253533             -14.2956
        60        2.0000           -0.5216814             -14.1957
        61        2.0000           -0.5181773             -14.1003
        62        2.0000           -0.5159915             -14.0408
        63        2.0000           -0.5039615             -13.7135
        64        2.0000           -0.5006835             -13.6243
        65        2.0000           -0.4943970             -13.4532
        66        2.0000           -0.4910083             -13.3610
        67        2.0000           -0.4850723             -13.1995
        68        2.0000           -0.4708209             -12.8117
        69        2.0000           -0.4569287             -12.4337
        70        1.9926           -0.4392863             -11.9536 (HOMO)
        71        0.0074           -0.4286425             -11.6640 (LUMO)
        72                         -0.3321218              -9.0375
        73                         -0.3316396              -9.0244
        74                         -0.3028499              -8.2410
        75                         -0.2973840              -8.0922
        76                         -0.2475565              -6.7364
        77                         -0.1781125              -4.8467
        78                         -0.1668761              -4.5409
        79                         -0.1620146              -4.4086
        80                         -0.1514839              -4.1221
        81                         -0.1426516              -3.8817
       ...                                ...                  ...
       144                          0.7380460              20.0833
      -------------------------------------------------------------
                  HL-Gap            0.0106438 Eh            0.2896 eV

Wiberg/Mayer (AO) data.
largest (>0.10) Wiberg bond orders for each atom

     #   Z sym  total        # sym  WBO       # sym  WBO       # sym  WBO
 ---------------------------------------------------------------------------
     1   6 C    3.870 --    27 H    0.986    28 H    0.979    29 H    0.979
                             2 O    0.896
     2   8 O    2.200 --     3 C    1.113     1 C    0.896     4 O    0.136
     3   6 C    3.853 --     4 O    1.665     2 O    1.113     5 C    0.996
     4   8 O    1.929 --     3 C    1.665     2 O    0.136
     5   6 C    3.956 --    25 C    1.486     6 N    1.187     3 C    0.996
     6   7 N    3.030 --     7 C    1.576     5 C    1.187
     7   6 C    3.930 --     6 N    1.576    21 N    1.169     8 C    0.976
     8   6 C    3.906 --    10 C    0.991     9 C    0.983     7 C    0.976
                            11 N    0.878
     9   6 C    3.982 --     8 C    0.983    32 H    0.981    30 H    0.978
                            31 H    0.976
    10   6 C    3.986 --     8 C    0.991    35 H    0.984    33 H    0.982
                            34 H    0.980
    11   7 N    3.381 --    12 C    1.351    36 H    0.883     8 C    0.878
                            13 O    0.179
    12   6 C    3.908 --    13 O    1.666    11 N    1.351    14 C    0.741
    13   8 O    2.059 --    12 C    1.666    11 N    0.179
    14   6 C    3.838 --    16 N    1.110    15 C    0.915    20 O    0.908
                            12 C    0.741
    15   6 C    3.947 --    37 H    0.979    39 H    0.974    38 H    0.974
                            14 C    0.915
    16   7 N    2.995 --    17 N    1.624    14 C    1.110
    17   7 N    3.015 --    16 N    1.624    18 C    1.223
    18   6 C    3.800 --    20 O    1.265    17 N    1.223    19 C    1.079
    19   6 C    3.963 --    18 C    1.079    40 H    0.973    41 H    0.922
                            42 H    0.921
    20   8 O    2.368 --    18 C    1.265    14 C    0.908
    21   7 N    3.503 --     7 C    1.169    23 C    1.121    22 C    0.926
                            24 O    0.134
    22   6 C    3.918 --    45 H    0.980    44 H    0.973    43 H    0.971
                            21 N    0.926
    23   6 C    3.910 --    24 O    1.572    21 N    1.121    25 C    1.070
    24   8 O    1.911 --    23 C    1.572    21 N    0.134
    25   6 C    3.915 --     5 C    1.486    26 O    1.121    23 C    1.070
    26   8 O    2.095 --    25 C    1.121    46 H    0.802
    27   1 H    1.011 --     1 C    0.986
    28   1 H    1.007 --     1 C    0.979
    29   1 H    1.006 --     1 C    0.979
    30   1 H    0.999 --     9 C    0.978
    31   1 H    1.002 --     9 C    0.976
    32   1 H    0.998 --     9 C    0.981
    33   1 H    1.001 --    10 C    0.982
    34   1 H    1.010 --    10 C    0.980
    35   1 H    1.005 --    10 C    0.984
    36   1 H    0.930 --    11 N    0.883
    37   1 H    0.991 --    15 C    0.979
    38   1 H    0.990 --    15 C    0.974
    39   1 H    0.995 --    15 C    0.974
    40   1 H    0.986 --    19 C    0.973
    41   1 H    0.978 --    19 C    0.922
    42   1 H    0.977 --    19 C    0.921
    43   1 H    1.002 --    22 C    0.971
    44   1 H    0.999 --    22 C    0.973
    45   1 H    1.006 --    22 C    0.980
    46   1 H    0.842 --    26 O    0.802
 ---------------------------------------------------------------------------

           -------------------------------------------------
          | TOTAL ENERGY              -86.317550479693 Eh   |
          | GRADIENT NORM               0.000390759975 Eh/α |
          | HOMO-LUMO GAP               0.289632932948 eV   |
           -------------------------------------------------

 * finished run on 2023/06/20 at 15:47:49.480
