   * xtb version 6.5.1 (579679a) compiled by 'ehlert@majestix' on 2022-07-11
          program call               : /lustre/hpc/kemi/ree/PhD/git/ReactivityQM/dep/xtb-6.5.1/bin/xtb --gfn 1 /lustre/hpc/kemi/ree/PhD/git/ReactivityQM/calculations/R03/reac02prodE14/conf17/R03_reac02prodE14_conf17_gfn1.xyz --opt --vfukui --chrg -1 --uhf 0 --alpb DMSO

   ID    Z sym.   atoms
    1    6 C      1, 3, 5, 7-10, 12, 14, 17, 18, 21, 22, 24, 25
    2    8 O      2, 4, 13, 19, 23, 26
    3    7 N      6, 11, 15, 16, 20
    4    1 H      27-46

      * Solvation model:               ALPB
        Solvent                        DMSO
        Solvent mass                       7.8130E+01 g/mol
          :  Hamiltonian                  GFN1-xTB          :
 * total energy  :   -87.0484674 Eh     change       -0.2003731E-11 Eh
 * total energy  :   -87.0619800 Eh     change       -0.1351256E-01 Eh
 * total energy  :   -87.0666665 Eh     change       -0.4686552E-02 Eh
 * total energy  :   -87.0674653 Eh     change       -0.7988076E-03 Eh
 * total energy  :   -87.0682659 Eh     change       -0.8005969E-03 Eh
 * total energy  :   -87.0686684 Eh     change       -0.4024231E-03 Eh
 * total energy  :   -87.0690831 Eh     change       -0.4147637E-03 Eh
 * total energy  :   -87.0694242 Eh     change       -0.3410754E-03 Eh
 * total energy  :   -87.0695677 Eh     change       -0.1435396E-03 Eh
 * total energy  :   -87.0696216 Eh     change       -0.5383464E-04 Eh
 * total energy  :   -87.0702033 Eh     change       -0.1135828E-04 Eh
 * total energy  :   -87.0702181 Eh     change       -0.1478801E-04 Eh
 * total energy  :   -87.0702265 Eh     change       -0.8433663E-05 Eh
 * total energy  :   -87.0702368 Eh     change       -0.1024350E-04 Eh
 * total energy  :   -87.0702280 Eh     change        0.8767982E-05 Eh
 * total energy  :   -87.0702644 Eh     change       -0.3640931E-04 Eh
 * total energy  :   -87.0702737 Eh     change       -0.9315274E-05 Eh
 * total energy  :   -87.0702899 Eh     change       -0.1615016E-04 Eh
 * total energy  :   -87.0702943 Eh     change       -0.4456751E-05 Eh
   *** GEOMETRY OPTIMIZATION CONVERGED AFTER 38 ITERATIONS ***

 final structure:
================
46
 xtb: 6.5.1 (579679a)
C           -4.33379517276052        2.10195005234153       -2.90718145346253
O           -3.32120832428361        1.40739320234041       -2.20311536378483
C           -3.68582650314806        0.96800791536444       -0.92964871715903
O           -4.83142277193737        1.20668813099507       -0.51917635504091
C           -2.65781025226279        0.27330820038944       -0.25979244199372
N           -1.48939469071346        0.05590576109302       -0.91507331748310
C           -0.48524016222798       -0.58244105900313       -0.43052705083028
C            0.70107109919034       -0.82140214973550       -1.35057626657462
C            0.90152571515756       -2.31950609105462       -1.63162585367761
C            0.44926522912923       -0.08910595614298       -2.67848225961905
N            1.91450067105276       -0.23594049221014       -0.73864944251978
C            3.14682085249400       -0.35026372566779       -1.26027808745951
O            3.45466621440884       -1.00983280423085       -2.24252750257465
C            4.17242312988739        0.41192999929203       -0.49511897989989
N            5.44108197933228        0.49723498895038       -0.75332523587912
N            5.98766951058012        1.29023933412629        0.21219172232487
C            5.01928876324395        1.63957635286367        1.00019988685614
C            5.09909950761373        2.49804136602104        2.20223373735514
O            3.84393596129476        1.11923968235925        0.60846904315752
N           -0.52875708908057       -1.11918647143433        0.89209926802512
C            0.59057002868144       -1.82732685889487        1.50954360097092
C           -1.63006433561302       -0.99553509324683        1.66909461470896
O           -1.65832571714724       -1.45585164314776        2.81647655245498
C           -2.86361897949342       -0.23762276297939        1.14765420049023
C           -4.07301067892239       -1.19063219629646        1.25555361633627
O           -3.05731108017693        0.86438581967583        2.04992115469891
H           -5.21844065526896        1.47082419334033       -3.05578176377898
H           -3.92142236884105        2.37946262379917       -3.87827158717844
H           -4.64004041317336        3.00866785735768       -2.37097692358539
H            1.55914848112984       -2.46469349043407       -2.48713091765008
H            1.33568971219624       -2.83223439943050       -0.77711845563346
H           -0.06566884618074       -2.76815266324026       -1.85636364215125
H            0.30632610988861        0.97559598518039       -2.49787381775057
H            1.29663101013015       -0.22848550026786       -3.34770631495759
H           -0.44784208057713       -0.48725283932546       -3.15029422000846
H            1.77899844274465        0.43460407787772        0.00145225403069
H            4.72821385491853        1.95706906164345        3.07278593832337
H            6.13187294460107        2.79425653091133        2.36927759435939
H            4.48257611033047        3.38735130628811        2.06898461663633
H            1.53291551505342       -1.52704035632733        1.06355453271226
H            0.61067167136343       -1.58266411741516        2.57270578889110
H            0.45998149191057       -2.90601973886313        1.40229110351588
H           -4.12795813163757       -1.60463608242565        2.26167772517692
H           -3.96530649834794       -2.00435009134555        0.53940101472265
H           -4.98984105198355       -0.64236001098253        1.04555626844491
H           -2.95264020253703        0.54080415184776        2.95412273646633

          :  Hamiltonian                  GFN1-xTB          :
         :: total energy             -87.070294328247 Eh    ::
         :: gradient norm              0.000791497697 Eh/a0 ::
         :: HOMO-LUMO gap              0.748452574405 eV    ::
         :: SCC energy               -87.868077647183 Eh    ::
         :: -> Gsolv                  -0.117022111213 Eh    ::
         :: repulsion energy           0.827023513623 Eh    ::

    * Orbital Energies and Occupations

         #    Occupation            Energy/Eh            Energy/eV
      -------------------------------------------------------------
         1        2.0000           -0.8607421             -23.4220
       ...           ...                  ...                  ...
        59        2.0000           -0.4710959             -12.8192
        60        2.0000           -0.4683618             -12.7448
        61        2.0000           -0.4564296             -12.4201
        62        2.0000           -0.4533525             -12.3363
        63        2.0000           -0.4470503             -12.1649
        64        2.0000           -0.4449721             -12.1083
        65        2.0000           -0.4445611             -12.0971
        66        2.0000           -0.4353808             -11.8473
        67        2.0000           -0.4196305             -11.4187
        68        2.0000           -0.4177417             -11.3673
        69        2.0000           -0.4015032             -10.9255
        70        2.0000           -0.3858093             -10.4984
        71        2.0000           -0.3304772              -8.9927 (HOMO)
        72        0.0000           -0.3029721              -8.2443 (LUMO)
        73                         -0.2528780              -6.8812
        74                         -0.2446806              -6.6581
        75                         -0.2024057              -5.5077
        76                         -0.1913510              -5.2069
        77                         -0.1427279              -3.8838
        78                         -0.1405733              -3.8252
        79                         -0.1237425              -3.3672
        80                         -0.1139229              -3.1000
        81                         -0.1098420              -2.9890
        82                         -0.1032497              -2.8096
       ...                                ...                  ...
       144                          0.7318018              19.9133
      -------------------------------------------------------------
                  HL-Gap            0.0275051 Eh            0.7485 eV

Wiberg/Mayer (AO) data.
largest (>0.10) Wiberg bond orders for each atom

     #   Z sym  total        # sym  WBO       # sym  WBO       # sym  WBO
 ---------------------------------------------------------------------------
     1   6 C    3.913 --    28 H    0.987    29 H    0.981    27 H    0.981
                             2 O    0.943
     2   8 O    2.086 --     3 C    0.962     1 C    0.943
     3   6 C    3.865 --     4 O    1.483     5 C    1.288     2 O    0.962
     4   8 O    1.806 --     3 C    1.483     5 C    0.105
     5   6 C    3.862 --     3 C    1.288     6 N    1.227    24 C    0.978
                             7 C    0.116     4 O    0.105
     6   7 N    3.063 --     7 C    1.601     5 C    1.227
     7   6 C    3.895 --     6 N    1.601     8 C    0.981    20 N    0.977
                             5 C    0.116
     8   6 C    3.924 --    10 C    0.991     9 C    0.988     7 C    0.981
                            11 N    0.900
     9   6 C    3.989 --     8 C    0.988    32 H    0.986    31 H    0.982
                            30 H    0.981
    10   6 C    3.993 --     8 C    0.991    33 H    0.985    34 H    0.985
                            35 H    0.985
    11   7 N    3.369 --    12 C    1.280     8 C    0.900    36 H    0.899
                            13 O    0.181
    12   6 C    3.921 --    13 O    1.571    11 N    1.280    14 C    0.986
    13   8 O    1.890 --    12 C    1.571    11 N    0.181
    14   6 C    3.869 --    15 N    1.625    19 O    1.047    12 C    0.986
    15   7 N    2.996 --    14 C    1.625    16 N    1.194
    16   7 N    2.981 --    17 C    1.615    15 N    1.194
    17   6 C    3.870 --    16 N    1.615    19 O    1.072    18 C    1.031
    18   6 C    3.987 --    17 C    1.031    38 H    0.983    37 H    0.964
                            39 H    0.963
    19   8 O    2.315 --    17 C    1.072    14 C    1.047
    20   7 N    3.435 --    22 C    1.253     7 C    0.977    21 C    0.944
                            23 O    0.146
    21   6 C    3.948 --    42 H    0.981    40 H    0.980    41 H    0.977
                            20 N    0.944
    22   6 C    3.888 --    23 O    1.545    20 N    1.253    24 C    0.934
    23   8 O    1.859 --    22 C    1.545    20 N    0.146
    24   6 C    3.910 --     5 C    0.978    25 C    0.974    22 C    0.934
                            26 O    0.922
    25   6 C    3.995 --    44 H    0.988    43 H    0.985    45 H    0.982
                            24 C    0.974
    26   8 O    1.883 --    24 C    0.922    46 H    0.864
    27   1 H    1.019 --     1 C    0.981
    28   1 H    1.019 --     1 C    0.987
    29   1 H    1.018 --     1 C    0.981
    30   1 H    1.014 --     9 C    0.981
    31   1 H    1.005 --     9 C    0.982
    32   1 H    1.007 --     9 C    0.986
    33   1 H    1.016 --    10 C    0.985
    34   1 H    1.009 --    10 C    0.985
    35   1 H    1.017 --    10 C    0.985
    36   1 H    0.949 --    11 N    0.899
    37   1 H    0.997 --    18 C    0.964
    38   1 H    0.999 --    18 C    0.983
    39   1 H    0.997 --    18 C    0.963
    40   1 H    1.012 --    21 C    0.980
    41   1 H    1.014 --    21 C    0.977
    42   1 H    1.008 --    21 C    0.981
    43   1 H    1.013 --    25 C    0.985
    44   1 H    1.011 --    25 C    0.988
    45   1 H    1.024 --    25 C    0.982
    46   1 H    0.892 --    26 O    0.864
 ---------------------------------------------------------------------------

           -------------------------------------------------
          | TOTAL ENERGY              -87.070294328247 Eh   |
          | GRADIENT NORM               0.000791497697 Eh/α |
          | HOMO-LUMO GAP               0.748452574405 eV   |
           -------------------------------------------------

 * finished run on 2023/06/20 at 15:34:44.656
