   * xtb version 6.5.1 (579679a) compiled by 'ehlert@majestix' on 2022-07-11
          program call               : /lustre/hpc/kemi/ree/PhD/git/ReactivityQM/dep/xtb-6.5.1/bin/xtb --gfn 1 /lustre/hpc/kemi/ree/PhD/git/ReactivityQM/calculations/R02methylcation/reac01prodE02/conf03/R02methylcation_reac01prodE02_conf03_gfn1.xyz --opt --vfukui --chrg -2 --uhf 0 --alpb DMSO

   ID    Z sym.   atoms
    1    6 C      1, 3, 4, 6, 8-11, 13, 15, 18, 19, 22, 24
    2    8 O      2, 5, 14, 20, 23, 25
    3    7 N      7, 12, 16, 17, 21
    4    1 H      26-42

      * Solvation model:               ALPB
        Solvent                        DMSO
        Solvent mass                       7.8130E+01 g/mol
          :  Hamiltonian                  GFN1-xTB          :
 * total energy  :   -83.5950902 Eh     change       -0.1787726E-10 Eh
 * total energy  :   -83.6086984 Eh     change       -0.1360824E-01 Eh
 * total energy  :   -83.6146023 Eh     change       -0.5903945E-02 Eh
 * total energy  :   -83.6160103 Eh     change       -0.1407974E-02 Eh
 * total energy  :   -83.6171665 Eh     change       -0.1156223E-02 Eh
 * total energy  :   -83.6178519 Eh     change       -0.6853134E-03 Eh
 * total energy  :   -83.6183671 Eh     change       -0.5152012E-03 Eh
 * total energy  :   -83.6187259 Eh     change       -0.3588054E-03 Eh
 * total energy  :   -83.6189648 Eh     change       -0.2389656E-03 Eh
 * total energy  :   -83.6191374 Eh     change       -0.1725677E-03 Eh
 * total energy  :   -83.6218976 Eh     change       -0.8586493E-05 Eh
 * total energy  :   -83.6219131 Eh     change       -0.1544376E-04 Eh
 * total energy  :   -83.6219196 Eh     change       -0.6511253E-05 Eh
 * total energy  :   -83.6219287 Eh     change       -0.9113514E-05 Eh
 * total energy  :   -83.6219429 Eh     change       -0.1423155E-04 Eh
 * total energy  :   -83.6219519 Eh     change       -0.9021894E-05 Eh
 * total energy  :   -83.6219603 Eh     change       -0.8382271E-05 Eh
 * total energy  :   -83.6219665 Eh     change       -0.6167879E-05 Eh
 * total energy  :   -83.6219712 Eh     change       -0.4703779E-05 Eh
   *** GEOMETRY OPTIMIZATION CONVERGED AFTER 104 ITERATIONS ***

 final structure:
================
42
 xtb: 6.5.1 (579679a)
C           -5.04524085674010        1.77789542259849        0.96526662894567
O           -4.45219657419372        0.60450983683016        0.50106177140281
C           -3.13970981394697        0.19022934907522        1.27307982942684
C           -3.66530626450060       -0.78515591590643        2.38843819529702
O           -2.50071646428522        1.20887520489131        1.74488727955111
C           -2.37463673224004       -0.62128942190891        0.16227476241371
N           -1.27255785659865        0.03114415216731       -0.30197661511664
C           -0.52293211170223       -0.47372132825754       -1.22585073212447
C            0.70435614361194        0.29509501615522       -1.68631158499582
C            0.39488499354745        1.79275865232738       -1.62037818871138
C            1.16800715132478       -0.08866558203010       -3.09433753081066
N            1.82069415816333        0.05258321977464       -0.74176537707531
C            2.29036204319183       -1.17121426433284       -0.45943220924202
O            1.82975194270101       -2.22617014365100       -0.87161105474840
C            3.45366342599645       -1.15013909503960        0.47188351413712
N            4.00334935482751       -2.16677590975687        1.06181424438659
N            5.02539292998820       -1.67559249441099        1.82305366882396
C            5.03605911542504       -0.39231078370360        1.64778173957353
C            5.96481026342942        0.59503225366794        2.23956727356561
O            4.06439062985526        0.00752455771861        0.80961503140126
N           -0.81998777517822       -1.69509599505134       -1.78360637867771
C           -1.89914112063816       -2.45554091014587       -1.40744391018979
O           -2.08756441973202       -3.54540601552183       -1.98078555400650
C           -2.76006004609569       -1.88623383656960       -0.32558346893755
O           -3.75057046653226       -2.57462349842444        0.07129232376001
H           -5.74153181496524        1.60048081126431        1.80683128590272
H           -5.62211013694060        2.23628400957794        0.14986176038406
H           -4.29771310755743        2.51835838281224        1.30302728140631
H           -4.44874888729063       -1.44733082525659        2.02498752535965
H           -4.05853112830238       -0.18011719138852        3.20586119393942
H           -2.83115044754039       -1.37800334367865        2.76505563705822
H            1.28539128179613        2.37720631972293       -1.84100478267104
H            0.02757650215658        2.05018503475209       -0.62556395563316
H           -0.37430519844243        2.03741305911946       -2.35156621646318
H            1.98514609112539        0.56277804070904       -3.39853405485853
H            0.34693931317763        0.02678267709797       -3.80021891494190
H            1.52355683881802       -1.11726462635734       -3.12378495196495
H            2.35873258690757        0.84917749270766       -0.44916531351912
H            6.48959812929760        1.12908550878871        1.44818621636794
H            6.68589361121942        0.08514511382116        2.87318005530513
H            5.41261775203636        1.32641271477706        2.82939141363041
H           -0.20646603516127       -2.08682864896372       -2.47747783736303

          :  Hamiltonian                  GFN1-xTB          :
         :: total energy             -83.621971192775 Eh    ::
         :: gradient norm              0.000735472019 Eh/a0 ::
         :: HOMO-LUMO gap              0.360607406256 eV    ::
         :: SCC energy               -84.361373176424 Eh    ::
         :: -> Gsolv                  -0.331314720606 Eh    ::
         :: repulsion energy           0.765147978132 Eh    ::

    * Orbital Energies and Occupations

         #    Occupation            Energy/Eh            Energy/eV
      -------------------------------------------------------------
         1        2.0000           -0.8565864             -23.3089
       ...           ...                  ...                  ...
        56        2.0000           -0.4417707             -12.0212
        57        2.0000           -0.4395622             -11.9611
        58        2.0000           -0.4324167             -11.7667
        59        2.0000           -0.4270705             -11.6212
        60        2.0000           -0.4100477             -11.1580
        61        2.0000           -0.4067326             -11.0678
        62        2.0000           -0.3988774             -10.8540
        63        2.0000           -0.3778216             -10.2811
        64        2.0000           -0.3752695             -10.2116
        65        2.0000           -0.3466150              -9.4319
        66        2.0000           -0.3323425              -9.0435
        67        2.0000           -0.3160357              -8.5998
        68        1.9981           -0.3101457              -8.4395 (HOMO)
        69        0.0019           -0.2968936              -8.0789 (LUMO)
        70                         -0.2493398              -6.7849
        71                         -0.2145238              -5.8375
        72                         -0.1990178              -5.4156
        73                         -0.1864919              -5.0747
        74                         -0.1390418              -3.7835
        75                         -0.1126561              -3.0655
        76                         -0.1107621              -3.0140
        77                         -0.0908276              -2.4715
        78                         -0.0853077              -2.3213
        79                         -0.0841479              -2.2898
       ...                                ...                  ...
       134                          0.7461880              20.3048
      -------------------------------------------------------------
                  HL-Gap            0.0132521 Eh            0.3606 eV

Wiberg/Mayer (AO) data.
largest (>0.10) Wiberg bond orders for each atom

     #   Z sym  total        # sym  WBO       # sym  WBO       # sym  WBO
 ---------------------------------------------------------------------------
     1   6 C    3.948 --     2 O    1.001    27 H    0.982    26 H    0.978
                            28 H    0.969
     2   8 O    1.907 --     1 C    1.001     3 C    0.711
     3   6 C    3.888 --     5 O    1.270     4 C    0.936     6 C    0.915
                             2 O    0.711
     4   6 C    3.985 --    30 H    0.988    31 H    0.987    29 H    0.986
                             3 C    0.936
     5   8 O    1.543 --     3 C    1.270
     6   6 C    3.924 --    24 C    1.338     7 N    1.253     3 C    0.915
                            25 O    0.136
     7   7 N    3.034 --     8 C    1.549     6 C    1.253
     8   6 C    3.922 --     7 N    1.549    21 N    1.107     9 C    0.971
     9   6 C    3.924 --    10 C    0.999    11 C    0.994     8 C    0.971
                            12 N    0.896
    10   6 C    3.993 --     9 C    0.999    32 H    0.986    34 H    0.985
                            33 H    0.979
    11   6 C    3.993 --     9 C    0.994    36 H    0.986    35 H    0.985
                            37 H    0.980
    12   7 N    3.366 --    13 C    1.288    38 H    0.900     9 C    0.896
                            14 O    0.184
    13   6 C    3.921 --    14 O    1.568    12 N    1.288    15 C    0.984
    14   8 O    1.884 --    13 C    1.568    12 N    0.184
    15   6 C    3.864 --    16 N    1.626    20 O    1.046    13 C    0.984
    16   7 N    2.990 --    15 C    1.626    17 N    1.190
    17   7 N    2.980 --    18 C    1.620    16 N    1.190
    18   6 C    3.871 --    17 N    1.620    20 O    1.070    19 C    1.030
    19   6 C    3.988 --    18 C    1.030    40 H    0.983    39 H    0.964
                            41 H    0.964
    20   8 O    2.311 --    18 C    1.070    15 C    1.046
    21   7 N    3.433 --    22 C    1.156     8 C    1.107    42 H    0.903
                            23 O    0.128
    22   6 C    3.882 --    23 O    1.494    21 N    1.156    24 C    1.023
    23   8 O    1.785 --    22 C    1.494    21 N    0.128
    24   6 C    3.955 --    25 O    1.403     6 C    1.338    22 C    1.023
    25   8 O    1.738 --    24 C    1.403     6 C    0.136
    26   1 H    1.021 --     1 C    0.978
    27   1 H    1.027 --     1 C    0.982
    28   1 H    1.040 --     1 C    0.969
    29   1 H    1.039 --     4 C    0.986
    30   1 H    1.023 --     4 C    0.988
    31   1 H    1.019 --     4 C    0.987
    32   1 H    1.001 --    10 C    0.986
    33   1 H    1.025 --    10 C    0.979
    34   1 H    1.006 --    10 C    0.985
    35   1 H    1.004 --    11 C    0.985
    36   1 H    1.003 --    11 C    0.986
    37   1 H    1.008 --    11 C    0.980
    38   1 H    0.944 --    12 N    0.900
    39   1 H    0.998 --    19 C    0.964
    40   1 H    0.999 --    19 C    0.983
    41   1 H    0.997 --    19 C    0.964
    42   1 H    0.970 --    21 N    0.903
 ---------------------------------------------------------------------------

           -------------------------------------------------
          | TOTAL ENERGY              -83.621971192775 Eh   |
          | GRADIENT NORM               0.000735472019 Eh/α |
          | HOMO-LUMO GAP               0.360607406256 eV   |
           -------------------------------------------------

 * finished run on 2023/06/21 at 17:07:15.353
