   * xtb version 6.5.1 (579679a) compiled by 'ehlert@majestix' on 2022-07-11
          program call               : /lustre/hpc/kemi/ree/PhD/git/ReactivityQM/dep/xtb-6.5.1/bin/xtb --gfn 1 /lustre/hpc/kemi/ree/PhD/git/ReactivityQM/calculations/RaltegravirCLI/reac01prodN05/conf10/RaltegravirCLI_reac01prodN05_conf10_gfn1.xyz --opt --vfukui --chrg 1 --uhf 0 --alpb DMSO

   ID    Z sym.   atoms
    1    6 C      1, 2, 5-7
    2    7 N      3, 4
    3    8 O      8, 10
    4   17 Cl     9
    5    1 H      11-16

      * Solvation model:               ALPB
        Solvent                        DMSO
        Solvent mass                       7.8130E+01 g/mol
          :  Hamiltonian                  GFN1-xTB          :
 * total energy  :   -33.3800857 Eh     change       -0.1996625E-11 Eh
 * total energy  :   -33.3882667 Eh     change       -0.8180920E-02 Eh
 * total energy  :   -33.3913968 Eh     change       -0.3130175E-02 Eh
 * total energy  :   -33.3917160 Eh     change       -0.3191893E-03 Eh
 * total energy  :   -33.3918955 Eh     change       -0.1794544E-03 Eh
 * total energy  :   -33.3919625 Eh     change       -0.6697261E-04 Eh
 * total energy  :   -33.3920479 Eh     change       -0.8539943E-04 Eh
 * total energy  :   -33.3920844 Eh     change       -0.3652442E-04 Eh
 * total energy  :   -33.3920965 Eh     change       -0.1207665E-04 Eh
 * total energy  :   -33.3921020 Eh     change       -0.5568062E-05 Eh
 * total energy  :   -33.3921045 Eh     change       -0.2463113E-05 Eh
   *** GEOMETRY OPTIMIZATION CONVERGED AFTER 11 ITERATIONS ***

 final structure:
================
16
 xtb: 6.5.1 (579679a)
C           -2.69710999636371        0.05565881493247        0.48494088195267
C           -1.31062220540283        0.01971632250348        0.04783028165392
N           -0.88990937077647       -0.07682174432192       -1.25874784336556
N            0.36987821513433       -0.08217775321384       -1.25961416044509
C            0.85375400741014       -0.02047509313357        0.06918402065732
C            1.81654214473551        1.13165596816782        0.35629129198570
C            1.64803821511612       -1.39364227264443        0.29048057145869
O            2.69387743631292       -1.51528716216979       -0.24684650268731
Cl           0.88786181413087       -2.51326045216634        1.27709561323784
O           -0.31034230454738        0.05785757514022        0.84996183903623
H           -3.15739146337989       -0.91319695781340        0.26604212135685
H           -2.76603752577795        0.26450560762740        1.55015337744331
H           -3.24730193031289        0.79558176410687       -0.10065425257341
H            2.10201701676307        1.10482275073300        1.40532915183638
H            2.69486746136503        1.01546633243178       -0.27544447993802
H            1.31187848559309        2.06959529982022        0.13587808839045

          :  Hamiltonian                  GFN1-xTB          :
         :: total energy             -33.392104484912 Eh    ::
         :: gradient norm              0.000806150559 Eh/a0 ::
         :: HOMO-LUMO gap              2.033698086566 eV    ::
         :: SCC energy               -33.670835218235 Eh    ::
         :: -> Gsolv                  -0.085394398085 Eh    ::
         :: repulsion energy           0.286695799265 Eh    ::

    * Orbital Energies and Occupations

         #    Occupation            Energy/Eh            Energy/eV
      -------------------------------------------------------------
         1        2.0000           -1.0048296             -27.3428
       ...           ...                  ...                  ...
        15        2.0000           -0.6380841             -17.3632
        16        2.0000           -0.6145323             -16.7223
        17        2.0000           -0.6051150             -16.4660
        18        2.0000           -0.6036831             -16.4271
        19        2.0000           -0.5864828             -15.9590
        20        2.0000           -0.5829439             -15.8627
        21        2.0000           -0.5754975             -15.6601
        22        2.0000           -0.5704112             -15.5217
        23        2.0000           -0.5676584             -15.4468
        24        2.0000           -0.5361438             -14.5892
        25        2.0000           -0.5339439             -14.5294
        26        2.0000           -0.5247062             -14.2780
        27        2.0000           -0.5139387             -13.9850 (HOMO)
        28                         -0.4392017             -11.9513 (LUMO)
        29                         -0.3573950              -9.7252
        30                         -0.3396943              -9.2436
        31                         -0.2512761              -6.8376
        32                         -0.1823136              -4.9610
        33                         -0.1642705              -4.4700
        34                         -0.1372140              -3.7338
        35                         -0.1297159              -3.5297
        36                         -0.1284200              -3.4945
        37                         -0.1142795              -3.1097
        38                         -0.1105114              -3.0072
       ...                                ...                  ...
        57                          0.7168213              19.5057
      -------------------------------------------------------------
                  HL-Gap            0.0747370 Eh            2.0337 eV

Wiberg/Mayer (AO) data.
largest (>0.10) Wiberg bond orders for each atom

     #   Z sym  total        # sym  WBO       # sym  WBO       # sym  WBO
 ---------------------------------------------------------------------------
     1   6 C    3.961 --     2 C    1.091    12 H    0.969    13 H    0.925
                            11 H    0.903
     2   6 C    3.799 --    10 O    1.290     3 N    1.183     1 C    1.091
     3   7 N    3.024 --     4 N    1.671     2 C    1.183
     4   7 N    3.012 --     3 N    1.671     5 C    1.078
     5   6 C    3.840 --     4 N    1.078     6 C    0.913    10 O    0.908
                             7 C    0.778
     6   6 C    3.941 --    14 H    0.977    16 H    0.974    15 H    0.973
                             5 C    0.913
     7   6 C    3.877 --     8 O    1.836     9 Cl   1.151     5 C    0.778
     8   8 O    2.138 --     7 C    1.836     9 Cl   0.157
     9  17 Cl   1.405 --     7 C    1.151     8 O    0.157
    10   8 O    2.380 --     2 C    1.290     5 C    0.908
    11   1 H    0.975 --     1 C    0.903
    12   1 H    0.983 --     1 C    0.969
    13   1 H    0.977 --     1 C    0.925
    14   1 H    0.989 --     6 C    0.977
    15   1 H    0.993 --     6 C    0.973
    16   1 H    0.989 --     6 C    0.974
 ---------------------------------------------------------------------------

           -------------------------------------------------
          | TOTAL ENERGY              -33.392104484912 Eh   |
          | GRADIENT NORM               0.000806150559 Eh/α |
          | HOMO-LUMO GAP               2.033698086566 eV   |
           -------------------------------------------------

 * finished run on 2023/06/20 at 14:54:59.786
