   * xtb version 6.5.1 (579679a) compiled by 'ehlert@majestix' on 2022-07-11
          program call               : /lustre/hpc/kemi/ree/PhD/git/ReactivityQM/dep/xtb-6.5.1/bin/xtb --gfn 1 /lustre/hpc/kemi/ree/PhD/git/ReactivityQM/calculations/R01/reac02prodE05/conf04/R01_reac02prodE05_conf04_gfn1.xyz --opt --vfukui --chrg -1 --uhf 0 --alpb DMSO

   ID    Z sym.   atoms
    1    6 C      1, 3, 5, 6, 8, 11-15
    2    8 O      2, 4, 7, 9
    3    7 N      10, 16, 17
    4    1 H      18-33

      * Solvation model:               ALPB
        Solvent                        DMSO
        Solvent mass                       7.8130E+01 g/mol
          :  Hamiltonian                  GFN1-xTB          :
 * total energy  :   -58.5473217 Eh     change       -0.3197442E-11 Eh
 * total energy  :   -58.5549803 Eh     change       -0.7658587E-02 Eh
 * total energy  :   -58.5572524 Eh     change       -0.2272024E-02 Eh
 * total energy  :   -58.5575228 Eh     change       -0.2704668E-03 Eh
 * total energy  :   -58.5576835 Eh     change       -0.1606495E-03 Eh
 * total energy  :   -58.5577377 Eh     change       -0.5422471E-04 Eh
 * total energy  :   -58.5577887 Eh     change       -0.5104839E-04 Eh
 * total energy  :   -58.5578286 Eh     change       -0.3988007E-04 Eh
 * total energy  :   -58.5578617 Eh     change       -0.3311340E-04 Eh
 * total energy  :   -58.5578845 Eh     change       -0.2273333E-04 Eh
 * total energy  :   -58.5580976 Eh     change       -0.7773684E-05 Eh
 * total energy  :   -58.5581047 Eh     change       -0.7063653E-05 Eh
 * total energy  :   -58.5581114 Eh     change       -0.6748406E-05 Eh
 * total energy  :   -58.5581186 Eh     change       -0.7169848E-05 Eh
 * total energy  :   -58.5581255 Eh     change       -0.6876128E-05 Eh
 * total energy  :   -58.5581257 Eh     change       -0.2181352E-06 Eh
 * total energy  :   -58.5581293 Eh     change       -0.3628205E-05 Eh
 * total energy  :   -58.5581310 Eh     change       -0.1742635E-05 Eh
 * total energy  :   -58.5581347 Eh     change       -0.3628666E-05 Eh
   *** GEOMETRY OPTIMIZATION CONVERGED AFTER 35 ITERATIONS ***

 final structure:
================
33
 xtb: 6.5.1 (579679a)
C            4.79566566063787        0.75721263166530       -0.04454209127866
O            3.57892337612208        0.12676809499559        0.35106951136278
C            2.57034421072953        0.17461326689946       -0.54563922626568
O            2.72035289859101        0.71751578693300       -1.62273135409166
C            1.30142872133249       -0.46846260078035       -0.09424387555751
C            1.23875951514811       -1.39744066146932        0.95216764969466
O            2.35990217894498       -1.85861989665347        1.66002885389494
C           -0.01605692049151       -1.98684815002507        1.30235487489686
O           -0.22318762466336       -2.78469699991233        2.23678588420878
N           -1.06699595351935       -1.65571219359163        0.46508822133589
C           -1.05065575877906       -0.56053929676073       -0.50208644265216
C           -1.61945524876667       -1.12498749915216       -1.82547033351952
C           -1.94175038561759        0.60633390556682        0.05867731611970
C           -2.09404508252088        1.72703261234364       -0.98025555381713
C           -1.29040975596511        1.17751158610055        1.32364549451544
N           -3.24547580822089        0.05287950761428        0.43524572613770
N            0.26022983532119       -0.04016301973751       -0.79349351739226
H            5.16666203006367        0.32006537879739       -0.97582718644442
H            4.63613646213976        1.82884769414500       -0.19212312791791
H            5.51443826097321        0.59522578372475        0.75597932051752
H            2.96271010296913       -1.13165467094421        1.85932607058493
H           -1.98982636104269       -1.84966816586516        0.83101484848027
H           -1.03135248878034       -1.99693989945077       -2.11189159577710
H           -2.65748866141430       -1.42886001054299       -1.70951230962083
H           -1.54485113428883       -0.38172725638842       -2.61634547483417
H           -2.55032795666009        2.60471903680722       -0.52306636639768
H           -1.11113562185548        1.99982487340308       -1.36892152144961
H           -2.72746442578327        1.40917035974881       -1.80717708188282
H           -0.30036868086713        1.57016008029881        1.08968604732124
H           -1.19548501388854        0.40489311185039        2.08752548205202
H           -1.89804735147119        1.98799084587837        1.72529985918669
H           -3.75780301468078        0.73697453140864        0.97454865355375
H           -3.79337200369590       -0.13141876690634       -0.39511375496464

          :  Hamiltonian                  GFN1-xTB          :
         :: total energy             -58.558134668842 Eh    ::
         :: gradient norm              0.000472514452 Eh/a0 ::
         :: HOMO-LUMO gap              1.423418989244 eV    ::
         :: SCC energy               -59.094032241719 Eh    ::
         :: -> Gsolv                  -0.109294310535 Eh    ::
         :: repulsion energy           0.556144292120 Eh    ::

    * Orbital Energies and Occupations

         #    Occupation            Energy/Eh            Energy/eV
      -------------------------------------------------------------
         1        2.0000           -0.8122473             -22.1024
       ...           ...                  ...                  ...
        36        2.0000           -0.4772400             -12.9864
        37        2.0000           -0.4761283             -12.9561
        38        2.0000           -0.4705682             -12.8048
        39        2.0000           -0.4679150             -12.7326
        40        2.0000           -0.4524053             -12.3106
        41        2.0000           -0.4501300             -12.2487
        42        2.0000           -0.4396114             -11.9624
        43        2.0000           -0.4243312             -11.5466
        44        2.0000           -0.3939988             -10.7213
        45        2.0000           -0.3896426             -10.6027
        46        2.0000           -0.3837672             -10.4428
        47        2.0000           -0.3711539             -10.0996
        48        2.0000           -0.3152879              -8.5794 (HOMO)
        49                         -0.2629782              -7.1560 (LUMO)
        50                         -0.1864690              -5.0741
        51                         -0.1257511              -3.4219
        52                         -0.1117282              -3.0403
        53                         -0.1072017              -2.9171
        54                         -0.1020765              -2.7776
        55                         -0.0901167              -2.4522
        56                         -0.0830705              -2.2605
        57                         -0.0671367              -1.8269
        58                         -0.0623557              -1.6968
        59                         -0.0581641              -1.5827
       ...                                ...                  ...
       100                          0.7359075              20.0251
      -------------------------------------------------------------
                  HL-Gap            0.0523097 Eh            1.4234 eV

Wiberg/Mayer (AO) data.
largest (>0.10) Wiberg bond orders for each atom

     #   Z sym  total        # sym  WBO       # sym  WBO       # sym  WBO
 ---------------------------------------------------------------------------
     1   6 C    3.886 --    20 H    0.987    19 H    0.981    18 H    0.980
                             2 O    0.909
     2   8 O    2.186 --     3 C    1.068     1 C    0.909     4 O    0.120
     3   6 C    3.813 --     4 O    1.650     2 O    1.068     5 C    1.002
     4   8 O    1.900 --     3 C    1.650     2 O    0.120
     5   6 C    3.969 --    17 N    1.426     6 C    1.330     3 C    1.002
     6   6 C    3.852 --     5 C    1.330     8 C    1.184     7 O    0.962
                            17 N    0.190
     7   8 O    1.926 --     6 C    0.962    21 H    0.857
     8   6 C    3.916 --     9 O    1.472     6 C    1.184    10 N    1.117
     9   8 O    1.768 --     8 C    1.472    10 N    0.112
    10   7 N    3.226 --     8 C    1.117    11 C    0.933    22 H    0.912
                             9 O    0.112
    11   6 C    3.941 --    17 N    1.009    12 C    0.979    13 C    0.936
                            10 N    0.933
    12   6 C    3.995 --    23 H    0.986    24 H    0.985    25 H    0.985
                            11 C    0.979
    13   6 C    3.960 --    15 C    1.002    14 C    0.993    16 N    0.979
                            11 C    0.936
    14   6 C    3.996 --    13 C    0.993    26 H    0.986    28 H    0.984
                            27 H    0.982
    15   6 C    3.997 --    13 C    1.002    31 H    0.986    30 H    0.985
                            29 H    0.984
    16   7 N    2.973 --    13 C    0.979    33 H    0.949    32 H    0.948
    17   7 N    2.931 --     5 C    1.426    11 C    1.009     6 C    0.190
    18   1 H    1.012 --     1 C    0.980
    19   1 H    1.011 --     1 C    0.981
    20   1 H    1.013 --     1 C    0.987
    21   1 H    0.899 --     7 O    0.857
    22   1 H    0.980 --    10 N    0.912
    23   1 H    1.019 --    12 C    0.986
    24   1 H    1.005 --    12 C    0.985
    25   1 H    1.014 --    12 C    0.985
    26   1 H    1.007 --    14 C    0.986
    27   1 H    1.020 --    14 C    0.982
    28   1 H    1.008 --    14 C    0.984
    29   1 H    1.013 --    15 C    0.984
    30   1 H    1.009 --    15 C    0.985
    31   1 H    1.005 --    15 C    0.986
    32   1 H    0.964 --    16 N    0.948
    33   1 H    0.969 --    16 N    0.949
 ---------------------------------------------------------------------------

           -------------------------------------------------
          | TOTAL ENERGY              -58.558134668842 Eh   |
          | GRADIENT NORM               0.000472514452 Eh/α |
          | HOMO-LUMO GAP               1.423418989244 eV   |
           -------------------------------------------------

 * finished run on 2023/06/20 at 15:00:24.907
