   * xtb version 6.5.1 (579679a) compiled by 'ehlert@majestix' on 2022-07-11
          program call               : /lustre/hpc/kemi/ree/PhD/git/ReactivityQM/dep/xtb-6.5.1/bin/xtb --gfn 1 /lustre/hpc/kemi/ree/PhD/git/ReactivityQM/calculations/R03/reac02prodN08/conf06/R03_reac02prodN08_conf06_gfn1.xyz --opt --vfukui --chrg 1 --uhf 0 --alpb DMSO

   ID    Z sym.   atoms
    1    6 C      1, 3, 4, 6, 8-11, 13, 15, 18, 19, 22, 23, 25
    2    8 O      2, 5, 14, 20, 24, 26
    3    7 N      7, 12, 16, 17, 21
    4    1 H      27-46

      * Solvation model:               ALPB
        Solvent                        DMSO
        Solvent mass                       7.8130E+01 g/mol
          :  Hamiltonian                  GFN1-xTB          :
 * total energy  :   -86.1859697 Eh     change       -0.1469402E-10 Eh
 * total energy  :   -86.2024236 Eh     change       -0.1645390E-01 Eh
 * total energy  :   -86.2122860 Eh     change       -0.9862457E-02 Eh
 * total energy  :   -86.2156005 Eh     change       -0.3314510E-02 Eh
 * total energy  :   -86.2179568 Eh     change       -0.2356247E-02 Eh
 * total energy  :   -86.2197043 Eh     change       -0.1747522E-02 Eh
 * total energy  :   -86.2213169 Eh     change       -0.1612588E-02 Eh
 * total energy  :   -86.2229979 Eh     change       -0.1680959E-02 Eh
 * total energy  :   -86.2250310 Eh     change       -0.2033174E-02 Eh
 * total energy  :   -86.2281395 Eh     change       -0.3108513E-02 Eh
 * total energy  :   -86.3086685 Eh     change       -0.9315226E-05 Eh
 * total energy  :   -86.3086851 Eh     change       -0.1658790E-04 Eh
 * total energy  :   -86.3085968 Eh     change        0.8829402E-04 Eh
 * total energy  :   -86.3087028 Eh     change       -0.1060125E-03 Eh
 * total energy  :   -86.3087144 Eh     change       -0.1161835E-04 Eh
 * total energy  :   -86.3087230 Eh     change       -0.8566863E-05 Eh
 * total energy  :   -86.3087316 Eh     change       -0.8671436E-05 Eh
 * total energy  :   -86.3087367 Eh     change       -0.5056661E-05 Eh
 * total energy  :   -86.3087386 Eh     change       -0.1932363E-05 Eh
   *** GEOMETRY OPTIMIZATION CONVERGED AFTER 80 ITERATIONS ***

 final structure:
================
46
 xtb: 6.5.1 (579679a)
C           -3.06648166399425        3.18481931120138        1.67856908563390
O           -2.80892638600687        1.84425667036246        1.20078827367809
C           -3.67276654800763        1.28418841564260        0.42189466925347
C           -4.34668146642455       -1.06878067965144        0.72144980259048
O           -4.69967070616633        1.71255325477487       -0.00341937348621
C           -3.22785957187561       -0.22131502088265        0.06871380511247
N           -1.98706091066654       -0.49242445446835        0.69153542495710
C           -0.90971454234760       -0.77272720445176        0.06261659826888
C            0.30789083976964       -1.03402299193620        0.93823681148409
C            0.45784403434686       -2.55339282187249        1.11451818909654
C            0.10132407334578       -0.36495743506053        2.30516628400425
N            1.48125595456933       -0.43388355771738        0.30546928166723
C            2.74516500475138       -0.59988832723168        0.78586051965120
O            3.07792917050753       -1.38774116824707        1.64663860835359
C            3.68264938346030        0.30376023915598        0.07890076325053
N            3.36268400767250        1.18185428612477       -0.82541220100535
N            4.51711941867923        1.79581069614216       -1.20088351812835
C            5.47011149148154        1.25457312435348       -0.50039071341249
C            6.91345735276136        1.57674534964166       -0.53587954169115
O            5.00375445594319        0.30734502030794        0.32565984142189
N           -0.85101404732526       -0.88746564552333       -1.32656574555009
C            0.33263389584796       -1.29786407873847       -2.09086520541888
C           -1.93606355695494       -0.61283650907740       -2.10542183466960
O           -1.95048847068813       -0.65038020007473       -3.32146970165447
C           -3.18933285730436       -0.30574233995145       -1.37738703075462
O           -4.22992982370641       -0.10311241745513       -2.08438634635986
H           -2.56821004314962        3.88781596302653        1.01096991556461
H           -2.63922685106306        3.23784071517004        2.67770241943170
H           -4.14003578058012        3.37332693933001        1.69995111077336
H           -4.35074866847363       -0.87853695999948        1.79207519859523
H           -5.30536376042701       -0.79762376730270        0.28476826659295
H           -4.13599444677433       -2.11996253498805        0.54066248241414
H           -0.49961188703616       -2.96465176687849        1.42999475470591
H            1.20302524782408       -2.76708307702504        1.87826207224359
H            0.75776361330504       -3.03204922340502        0.18533299413739
H           -0.08291697554838        0.69963337144717        2.17254489726434
H           -0.75031725995826       -0.81116887718658        2.81396986979317
H            0.99549654199495       -0.50447516598510        2.91056927996459
H            1.32329840009267        0.39042371186188       -0.25475743439412
H            7.48907523205533        0.67972158795846       -0.76456339260724
H            7.23577122518954        1.94482690235711        0.43866856312513
H            7.10030559004433        2.33586282445990       -1.29174305560540
H           -0.01306032814862       -1.89905137418834       -2.93150016573525
H            0.83621498537097       -0.40785997000901       -2.46766237345717
H            1.00518035140590       -1.87339248585259       -1.46722106349653
H           -4.03847171779594       -0.15296932815616       -3.05126508560372

          :  Hamiltonian                  GFN1-xTB          :
         :: total energy             -86.308738629713 Eh    ::
         :: gradient norm              0.000593706794 Eh/a0 ::
         :: HOMO-LUMO gap              0.844747498321 eV    ::
         :: SCC energy               -87.142141224489 Eh    ::
         :: -> Gsolv                  -0.106202125086 Eh    ::
         :: repulsion energy           0.863496402985 Eh    ::

    * Orbital Energies and Occupations

         #    Occupation            Energy/Eh            Energy/eV
      -------------------------------------------------------------
         1        2.0000           -0.9161590             -24.9300
       ...           ...                  ...                  ...
        58        2.0000           -0.5309552             -14.4480
        59        2.0000           -0.5282452             -14.3743
        60        2.0000           -0.5231463             -14.2355
        61        2.0000           -0.5146040             -14.0031
        62        2.0000           -0.5129674             -13.9586
        63        2.0000           -0.5097977             -13.8723
        64        2.0000           -0.4935202             -13.4294
        65        2.0000           -0.4901104             -13.3366
        66        2.0000           -0.4874606             -13.2645
        67        2.0000           -0.4761278             -12.9561
        68        2.0000           -0.4698847             -12.7862
        69        2.0000           -0.4601003             -12.5200
        70        2.0000           -0.4569813             -12.4351 (HOMO)
        71        0.0000           -0.4259374             -11.5903 (LUMO)
        72                         -0.3306812              -8.9983
        73                         -0.3217566              -8.7554
        74                         -0.3101342              -8.4392
        75                         -0.2695680              -7.3353
        76                         -0.2629236              -7.1545
        77                         -0.2092189              -5.6931
        78                         -0.1631160              -4.4386
        79                         -0.1592373              -4.3331
        80                         -0.1566170              -4.2618
        81                         -0.1516647              -4.1270
       ...                                ...                  ...
       144                          0.7366629              20.0456
      -------------------------------------------------------------
                  HL-Gap            0.0310439 Eh            0.8447 eV

Wiberg/Mayer (AO) data.
largest (>0.10) Wiberg bond orders for each atom

     #   Z sym  total        # sym  WBO       # sym  WBO       # sym  WBO
 ---------------------------------------------------------------------------
     1   6 C    3.823 --    29 H    0.980    28 H    0.980    27 H    0.976
                             2 O    0.844
     2   8 O    2.266 --     3 C    1.222     1 C    0.844     5 O    0.148
     3   6 C    3.859 --     5 O    1.726     2 O    1.222     6 C    0.754
     4   6 C    3.955 --    30 H    0.980    31 H    0.980    32 H    0.978
                             6 C    0.896
     5   8 O    2.057 --     3 C    1.726     2 O    0.148
     6   6 C    3.965 --    25 C    1.104     7 N    1.034     4 C    0.896
                             3 C    0.754
     7   7 N    3.036 --     8 C    1.690     6 C    1.034
     8   6 C    3.912 --     7 N    1.690    21 N    1.089     9 C    0.976
     9   6 C    3.932 --    11 C    0.985     8 C    0.976    10 C    0.973
                            12 N    0.932
    10   6 C    3.984 --    33 H    0.984    35 H    0.978    34 H    0.974
                             9 C    0.973
    11   6 C    3.986 --     9 C    0.985    36 H    0.984    37 H    0.983
                            38 H    0.981
    12   7 N    3.310 --    13 C    1.207     9 C    0.932    39 H    0.895
                            14 O    0.166
    13   6 C    3.911 --    14 O    1.621    12 N    1.207    15 C    0.995
    14   8 O    1.933 --    13 C    1.621    12 N    0.166
    15   6 C    3.878 --    16 N    1.602    20 O    1.067    13 C    0.995
    16   7 N    3.021 --    15 C    1.602    17 N    1.207
    17   7 N    2.981 --    18 C    1.597    16 N    1.207
    18   6 C    3.868 --    17 N    1.597    20 O    1.085    19 C    1.032
    19   6 C    3.985 --    18 C    1.032    42 H    0.982    40 H    0.963
                            41 H    0.961
    20   8 O    2.335 --    18 C    1.085    15 C    1.067
    21   7 N    3.529 --    23 C    1.196     8 C    1.089    22 C    0.913
                            24 O    0.171
    22   6 C    3.895 --    45 H    0.975    43 H    0.969    44 H    0.965
                            21 N    0.913
    23   6 C    3.927 --    24 O    1.603    21 N    1.196    25 C    0.997
    24   8 O    1.965 --    23 C    1.603    21 N    0.171
    25   6 C    3.813 --    26 O    1.369     6 C    1.104    23 C    0.997
    26   8 O    2.292 --    25 C    1.369    46 H    0.741
    27   1 H    1.000 --     1 C    0.976
    28   1 H    1.002 --     1 C    0.980
    29   1 H    0.999 --     1 C    0.980
    30   1 H    0.994 --     4 C    0.980
    31   1 H    0.996 --     4 C    0.980
    32   1 H    0.993 --     4 C    0.978
    33   1 H    1.000 --    10 C    0.984
    34   1 H    1.009 --    10 C    0.974
    35   1 H    1.000 --    10 C    0.978
    36   1 H    1.004 --    11 C    0.984
    37   1 H    1.008 --    11 C    0.983
    38   1 H    1.002 --    11 C    0.981
    39   1 H    0.951 --    12 N    0.895
    40   1 H    0.996 --    19 C    0.963
    41   1 H    0.996 --    19 C    0.961
    42   1 H    0.998 --    19 C    0.982
    43   1 H    0.996 --    22 C    0.969
    44   1 H    0.996 --    22 C    0.965
    45   1 H    1.008 --    22 C    0.975
    46   1 H    0.791 --    26 O    0.741
 ---------------------------------------------------------------------------

           -------------------------------------------------
          | TOTAL ENERGY              -86.308738629713 Eh   |
          | GRADIENT NORM               0.000593706794 Eh/α |
          | HOMO-LUMO GAP               0.844747498321 eV   |
           -------------------------------------------------

 * finished run on 2023/06/20 at 15:43:06.916
