   * xtb version 6.5.1 (579679a) compiled by 'ehlert@majestix' on 2022-07-11
          program call               : /lustre/hpc/kemi/ree/PhD/git/ReactivityQM/dep/xtb-6.5.1/bin/xtb --gfn 1 /lustre/hpc/kemi/ree/PhD/git/ReactivityQM/calculations/R01/reac02prodN03/conf10/R01_reac02prodN03_conf10_gfn1.xyz --opt --vfukui --chrg 1 --uhf 0 --alpb DMSO

   ID    Z sym.   atoms
    1    6 C      1, 3, 5, 7-10, 13, 15, 17
    2    8 O      2, 4, 14, 16
    3    7 N      6, 11, 12
    4    1 H      18-33

      * Solvation model:               ALPB
        Solvent                        DMSO
        Solvent mass                       7.8130E+01 g/mol
          :  Hamiltonian                  GFN1-xTB          :
 * total energy  :   -57.8051040 Eh     change       -0.2877698E-11 Eh
 * total energy  :   -57.8188110 Eh     change       -0.1370698E-01 Eh
 * total energy  :   -57.8248037 Eh     change       -0.5992692E-02 Eh
 * total energy  :   -57.8269700 Eh     change       -0.2166359E-02 Eh
 * total energy  :   -57.8296602 Eh     change       -0.2690148E-02 Eh
 * total energy  :   -57.8311158 Eh     change       -0.1455658E-02 Eh
 * total energy  :   -57.8334269 Eh     change       -0.2311101E-02 Eh
 * total energy  :   -57.8371096 Eh     change       -0.3682656E-02 Eh
 * total energy  :   -57.8403607 Eh     change       -0.3251121E-02 Eh
 * total energy  :   -57.8402506 Eh     change        0.1100981E-03 Eh
 * total energy  :   -57.8502634 Eh     change       -0.2052448E-03 Eh
 * total energy  :   -57.8504140 Eh     change       -0.1506657E-03 Eh
 * total energy  :   -57.8504911 Eh     change       -0.7705428E-04 Eh
 * total energy  :   -57.8505960 Eh     change       -0.1049010E-03 Eh
 * total energy  :   -57.8506311 Eh     change       -0.3512601E-04 Eh
 * total energy  :   -57.8506594 Eh     change       -0.2828096E-04 Eh
 * total energy  :   -57.8506759 Eh     change       -0.1650560E-04 Eh
 * total energy  :   -57.8506858 Eh     change       -0.9944643E-05 Eh
 * total energy  :   -57.8506905 Eh     change       -0.4716961E-05 Eh
   *** GEOMETRY OPTIMIZATION CONVERGED AFTER 28 ITERATIONS ***

 final structure:
================
33
 xtb: 6.5.1 (579679a)
C           -2.80002286261450        3.24957713211566        0.81120574076474
O           -1.78732296228338        2.25210637260027        0.58013680165854
C           -2.12201006789013        1.09304431273610        0.14874160465881
O           -3.37459014101769        0.86843245623289       -0.07193045278913
C           -1.07917714643419        0.11384810283159       -0.05574863245261
N            0.18759565839086        0.56343422689460        0.21711222517996
C            1.18546373856422       -0.24689629368494        0.08080043942398
C            2.60056484956731        0.22529100041295        0.36562453890133
C            2.55502020970600        1.41612484144631        1.32886878328202
C            3.24900545341217        0.62853225687381       -0.96655941951690
N            3.39268282354027       -0.83587424513951        0.96568434511282
N            1.00751899969319       -1.53216907192902       -0.33615820300399
C           -0.20000091417451       -2.11136458169497       -0.64437864890501
O           -0.26944371008562       -3.26883837726222       -1.00818373229632
C           -1.33331730385136       -1.18216204359694       -0.48031897399176
O           -2.58854191335147       -1.54493754075493       -0.71852924124994
C           -2.95554268255285       -2.87663102641463       -1.13435961498376
H           -2.28224334700681        4.11195676592464        1.22475864910834
H           -3.28296619895243        3.49843393849746       -0.13433830113524
H           -3.53803126345569        2.86029713400720        1.51320590312933
H            3.57142311682644        1.73576839444489        1.55412153530227
H            2.05956109396506        1.12733191720142        2.25472605323263
H            2.00601036658888        2.24283315165223        0.88033057447338
H            4.27520282227532        0.94575327006679       -0.78523427142758
H            3.25603233184403       -0.21828814582814       -1.65107733357109
H            2.69455099288425        1.44731136884344       -1.42288071697878
H            3.63868130475238       -1.53648853590920        0.28274712832502
H            2.88330328602515       -1.27756222714223        1.71728069370350
H            1.81190263635278       -2.13968220008091       -0.41869807425068
H           -3.57526000713489       -0.03771060832165       -0.39480759903037
H           -4.04030665999968       -2.85978265718197       -1.22036536920118
H           -2.64491536078728       -3.60389052675594       -0.38391470953373
H           -2.50082514279538       -3.10779756108459       -2.09786272193886

          :  Hamiltonian                  GFN1-xTB          :
         :: total energy             -57.850690547995 Eh    ::
         :: gradient norm              0.000687606929 Eh/a0 ::
         :: HOMO-LUMO gap              1.207186324602 eV    ::
         :: SCC energy               -58.424464375929 Eh    ::
         :: -> Gsolv                  -0.096014572560 Eh    ::
         :: repulsion energy           0.592009696131 Eh    ::

    * Orbital Energies and Occupations

         #    Occupation            Energy/Eh            Energy/eV
      -------------------------------------------------------------
         1        2.0000           -0.9104881             -24.7756
       ...           ...                  ...                  ...
        35        2.0000           -0.5490382             -14.9401
        36        2.0000           -0.5422570             -14.7556
        37        2.0000           -0.5401569             -14.6984
        38        2.0000           -0.5235056             -14.2453
        39        2.0000           -0.5204789             -14.1630
        40        2.0000           -0.5148774             -14.0105
        41        2.0000           -0.5118264             -13.9275
        42        2.0000           -0.5061549             -13.7732
        43        2.0000           -0.4953075             -13.4780
        44        2.0000           -0.4826985             -13.1349
        45        2.0000           -0.4784491             -13.0193
        46        2.0000           -0.4576136             -12.4523
        47        2.0000           -0.4267505             -11.6125 (HOMO)
        48                         -0.3823872             -10.4053 (LUMO)
        49                         -0.3097418              -8.4285
        50                         -0.2880114              -7.8372
        51                         -0.1968685              -5.3571
        52                         -0.1655931              -4.5060
        53                         -0.1464802              -3.9859
        54                         -0.1408356              -3.8323
        55                         -0.1346664              -3.6645
        56                         -0.1324835              -3.6051
        57                         -0.1238950              -3.3714
        58                         -0.1014778              -2.7614
       ...                                ...                  ...
       100                          0.6866510              18.6847
      -------------------------------------------------------------
                  HL-Gap            0.0443633 Eh            1.2072 eV

Wiberg/Mayer (AO) data.
largest (>0.10) Wiberg bond orders for each atom

     #   Z sym  total        # sym  WBO       # sym  WBO       # sym  WBO
 ---------------------------------------------------------------------------
     1   6 C    3.822 --    18 H    0.982    20 H    0.973    19 H    0.972
                             2 O    0.853
     2   8 O    2.317 --     3 C    1.283     1 C    0.853
     3   6 C    3.811 --     2 O    1.283     4 O    1.249     5 C    1.122
     4   8 O    2.194 --     3 C    1.249    30 H    0.744
     5   6 C    3.960 --    15 C    1.410     6 N    1.171     3 C    1.122
     6   7 N    3.018 --     7 C    1.570     5 C    1.171
     7   6 C    3.906 --     6 N    1.570    12 N    1.174     8 C    0.969
     8   6 C    3.964 --     9 C    0.994    11 N    0.991    10 C    0.976
                             7 C    0.969
     9   6 C    3.993 --     8 C    0.994    23 H    0.985    21 H    0.985
                            22 H    0.985
    10   6 C    3.991 --    26 H    0.986    25 H    0.985    24 H    0.982
                             8 C    0.976
    11   7 N    2.961 --     8 C    0.991    28 H    0.939    27 H    0.937
    12   7 N    3.482 --     7 C    1.174    13 C    1.145    29 H    0.873
                            14 O    0.142
    13   6 C    3.915 --    14 O    1.609    12 N    1.145    15 C    1.038
    14   8 O    1.938 --    13 C    1.609    12 N    0.142
    15   6 C    3.905 --     5 C    1.410    16 O    1.135    13 C    1.038
    16   8 O    2.249 --    15 C    1.135    17 C    0.855
    17   6 C    3.829 --    31 H    0.983    32 H    0.975    33 H    0.974
                            16 O    0.855
    18   1 H    1.002 --     1 C    0.982
    19   1 H    0.997 --     1 C    0.972
    20   1 H    0.997 --     1 C    0.973
    21   1 H    1.005 --     9 C    0.985
    22   1 H    1.003 --     9 C    0.985
    23   1 H    1.010 --     9 C    0.985
    24   1 H    1.000 --    10 C    0.982
    25   1 H    0.999 --    10 C    0.985
    26   1 H    1.001 --    10 C    0.986
    27   1 H    0.952 --    11 N    0.937
    28   1 H    0.952 --    11 N    0.939
    29   1 H    0.921 --    12 N    0.873
    30   1 H    0.807 --     4 O    0.744
    31   1 H    1.005 --    17 C    0.983
    32   1 H    1.007 --    17 C    0.975
    33   1 H    1.007 --    17 C    0.974
 ---------------------------------------------------------------------------

           -------------------------------------------------
          | TOTAL ENERGY              -57.850690547995 Eh   |
          | GRADIENT NORM               0.000687606929 Eh/α |
          | HOMO-LUMO GAP               1.207186324602 eV   |
           -------------------------------------------------

 * finished run on 2023/06/20 at 15:05:04.923
