   * xtb version 6.5.1 (579679a) compiled by 'ehlert@majestix' on 2022-07-11
          program call               : /lustre/hpc/kemi/ree/PhD/git/ReactivityQM/dep/xtb-6.5.1/bin/xtb --gfn 1 /lustre/hpc/kemi/ree/PhD/git/ReactivityQM/calculations/R02oxygendeprot/reac01prodE10/conf19/R02oxygendeprot_reac01prodE10_conf19_gfn1.xyz --opt --vfukui --chrg -2 --uhf 0 --alpb DMSO

   ID    Z sym.   atoms
    1    6 C      1, 3, 5, 7-10, 12, 14, 17-19, 22, 24
    2    8 O      2, 4, 13, 20, 23, 25
    3    7 N      6, 11, 15, 16, 21
    4    1 H      26-42

      * Solvation model:               ALPB
        Solvent                        DMSO
        Solvent mass                       7.8130E+01 g/mol
          :  Hamiltonian                  GFN1-xTB          :
 * total energy  :   -83.5618182 Eh     change       -0.2641798E-10 Eh
 * total energy  :   -83.5791318 Eh     change       -0.1731360E-01 Eh
 * total energy  :   -83.5864702 Eh     change       -0.7338431E-02 Eh
 * total energy  :   -83.5876398 Eh     change       -0.1169535E-02 Eh
 * total energy  :   -83.5883236 Eh     change       -0.6838314E-03 Eh
 * total energy  :   -83.5884957 Eh     change       -0.1720673E-03 Eh
 * total energy  :   -83.5886072 Eh     change       -0.1115499E-03 Eh
 * total energy  :   -83.5886646 Eh     change       -0.5735921E-04 Eh
 * total energy  :   -83.5887036 Eh     change       -0.3904588E-04 Eh
 * total energy  :   -83.5887308 Eh     change       -0.2718968E-04 Eh
 * total energy  :   -83.5887920 Eh     change       -0.1714108E-04 Eh
 * total energy  :   -83.5888011 Eh     change       -0.9035837E-05 Eh
 * total energy  :   -83.5888087 Eh     change       -0.7607703E-05 Eh
 * total energy  :   -83.5888179 Eh     change       -0.9258635E-05 Eh
 * total energy  :   -83.5888262 Eh     change       -0.8291285E-05 Eh
 * total energy  :   -83.5888351 Eh     change       -0.8896506E-05 Eh
 * total energy  :   -83.5888412 Eh     change       -0.6054932E-05 Eh
 * total energy  :   -83.5888412 Eh     change       -0.6305876E-07 Eh
 * total energy  :   -83.5888456 Eh     change       -0.4323981E-05 Eh
   *** GEOMETRY OPTIMIZATION CONVERGED AFTER 22 ITERATIONS ***

 final structure:
================
42
 xtb: 6.5.1 (579679a)
C            6.99208583102484        0.95923397869937        0.79064143311291
O            5.83469172390030        0.15958336574756        0.95195812954378
C            4.79516061895561        0.44797637387338        0.10693957166662
O            4.91155698774035        1.36092864588699       -0.71328676354636
C            3.62705800754888       -0.38724849096775        0.26816915448169
N            2.60607236102281       -0.06078024209641       -0.61698854150195
C            1.50390741886096       -0.71543132480357       -0.60755499296973
C            0.39410384804609       -0.42668582447303       -1.60547924283118
C            0.58033175734604       -1.41011330362040       -2.77647596187413
C            0.51571320537701        1.02494758887702       -2.09838425301101
N           -0.87384626850486       -0.68538521643513       -0.91891691031608
C           -2.10337623593097       -0.28973054773147       -1.62797032428032
O           -2.16317820353187       -0.35267213040091       -2.90421693172438
C           -3.09439487400284        0.04928056068910       -0.75536053356383
N           -3.00817406656735        0.14126261126347        0.65432143904494
N           -4.21289805328434        0.57016602185871        1.01000943631471
C           -4.49487386672235        0.79051720078377        2.40819472607188
C           -5.04622304141536        0.75912280021261        0.01044090683475
C           -6.45780192761174        1.21436594289389        0.07651290335642
O           -4.44084380299768        0.44748394124144       -1.17140261916015
N            1.29346437502856       -1.76820544307344        0.25694487448389
C            2.20724689466881       -2.19283198878142        1.18683974843493
O            1.92565539295781       -3.14401101760736        1.92880685251073
C            3.50933592363405       -1.44603962543579        1.21405473840379
O            4.38446129958647       -1.79166195452882        2.04241942696873
H            7.39588153363397        0.86662407709317       -0.22359569655180
H            6.77060643578689        2.01507900443247        0.98160020649413
H            7.73134160896353        0.60702544243545        1.50990015826835
H            0.44133335255118       -2.43200774069064       -2.42314195934060
H           -0.14184340627352       -1.21134269115017       -3.56681816669142
H            1.58707390228055       -1.31088971918861       -3.18391940639299
H            1.51310539755233        1.19047102085305       -2.50699263961245
H           -0.22398423427092        1.22443063665993       -2.87264984082449
H            0.36032702744612        1.71660116613460       -1.26996023966454
H           -0.87061885178115       -0.20602675895240       -0.01849687559813
H           -4.68612239907491        1.84855823812336        2.58524785654786
H           -5.37119171569621        0.21527535879912        2.70387884816146
H           -3.62817732128469        0.47019369573902        2.98252674970241
H           -6.54044192795748        2.16129390911401        0.61255733998067
H           -7.08759124330524        0.48563373878778        0.59204205607788
H           -6.83607666295561        1.34748469152715       -0.93513195136155
H            0.40114219924836       -2.24247599179793        0.22707329436385

          :  Hamiltonian                  GFN1-xTB          :
         :: total energy             -83.588845553392 Eh    ::
         :: gradient norm              0.000573407521 Eh/a0 ::
         :: HOMO-LUMO gap              0.137966759588 eV    ::
         :: SCC energy               -84.325770832844 Eh    ::
         :: -> Gsolv                  -0.284351726485 Eh    ::
         :: repulsion energy           0.762031540013 Eh    ::

    * Orbital Energies and Occupations

         #    Occupation            Energy/Eh            Energy/eV
      -------------------------------------------------------------
         1        2.0000           -0.8039720             -21.8772
       ...           ...                  ...                  ...
        56        2.0000           -0.4470625             -12.1652
        57        2.0000           -0.4429683             -12.0538
        58        2.0000           -0.4331516             -11.7867
        59        2.0000           -0.4192413             -11.4081
        60        2.0000           -0.4161402             -11.3238
        61        2.0000           -0.4061037             -11.0506
        62        2.0000           -0.3929086             -10.6916
        63        2.0000           -0.3749754             -10.2036
        64        2.0000           -0.3713627             -10.1053
        65        2.0000           -0.3594957              -9.7824
        66        2.0000           -0.3492867              -9.5046
        67        2.0000           -0.3449587              -9.3868
        68        1.8703           -0.2587780              -7.0417 (HOMO)
        69        0.1297           -0.2537078              -6.9037 (LUMO)
        70                         -0.2259771              -6.1492
        71                         -0.2135622              -5.8113
        72                         -0.1785175              -4.8577
        73                         -0.1396845              -3.8010
        74                         -0.1243341              -3.3833
        75                         -0.1154093              -3.1404
        76                         -0.1055407              -2.8719
        77                         -0.0918694              -2.4999
        78                         -0.0878897              -2.3916
        79                         -0.0867639              -2.3610
       ...                                ...                  ...
       134                          0.7508751              20.4324
      -------------------------------------------------------------
                  HL-Gap            0.0050702 Eh            0.1380 eV

Wiberg/Mayer (AO) data.
largest (>0.10) Wiberg bond orders for each atom

     #   Z sym  total        # sym  WBO       # sym  WBO       # sym  WBO
 ---------------------------------------------------------------------------
     1   6 C    3.908 --    28 H    0.987    27 H    0.980    26 H    0.980
                             2 O    0.936
     2   8 O    2.132 --     3 C    1.017     1 C    0.936     4 O    0.101
     3   6 C    3.814 --     4 O    1.541     5 C    1.151     2 O    1.017
     4   8 O    1.808 --     3 C    1.541     2 O    0.101
     5   6 C    3.901 --    24 C    1.258     3 C    1.151     6 N    1.135
                            25 O    0.123
     6   7 N    3.008 --     7 C    1.633     5 C    1.135
     7   6 C    3.927 --     6 N    1.633    21 N    1.100     8 C    0.975
     8   6 C    3.967 --    10 C    0.988     9 C    0.980     7 C    0.975
                            11 N    0.970
     9   6 C    3.993 --    31 H    0.989    29 H    0.987     8 C    0.980
                            30 H    0.976
    10   6 C    3.996 --     8 C    0.988    34 H    0.987    32 H    0.985
                            33 H    0.983
    11   7 N    3.052 --     8 C    0.970    35 H    0.942    12 C    0.924
    12   6 C    3.891 --    14 C    1.498    13 O    1.313    11 N    0.924
    13   8 O    1.644 --    12 C    1.313    14 C    0.144
    14   6 C    3.664 --    12 C    1.498    15 N    1.078    20 O    0.840
                            13 O    0.144
    15   7 N    2.745 --    16 N    1.176    14 C    1.078    18 C    0.298
    16   7 N    3.636 --    18 C    1.381    15 N    1.176    17 C    0.950
    17   6 C    3.953 --    38 H    0.985    37 H    0.982    36 H    0.980
                            16 N    0.950
    18   6 C    3.845 --    16 N    1.381    20 O    1.043    19 C    1.025
                            15 N    0.298
    19   6 C    3.993 --    18 C    1.025    41 H    0.983    39 H    0.974
                            40 H    0.970
    20   8 O    2.090 --    18 C    1.043    14 C    0.840
    21   7 N    3.414 --    22 C    1.155     7 C    1.100    42 H    0.896
                            23 O    0.127
    22   6 C    3.839 --    23 O    1.528    21 N    1.155    24 C    0.997
    23   8 O    1.793 --    22 C    1.528    21 N    0.127
    24   6 C    3.914 --    25 O    1.483     5 C    1.258    22 C    0.997
    25   8 O    1.770 --    24 C    1.483     5 C    0.123
    26   1 H    1.017 --     1 C    0.980
    27   1 H    1.016 --     1 C    0.980
    28   1 H    1.017 --     1 C    0.987
    29   1 H    1.013 --     9 C    0.987
    30   1 H    1.034 --     9 C    0.976
    31   1 H    1.010 --     9 C    0.989
    32   1 H    1.020 --    10 C    0.985
    33   1 H    1.022 --    10 C    0.983
    34   1 H    1.010 --    10 C    0.987
    35   1 H    0.993 --    11 N    0.942
    36   1 H    1.003 --    17 C    0.980
    37   1 H    1.002 --    17 C    0.982
    38   1 H    1.012 --    17 C    0.985
    39   1 H    1.003 --    19 C    0.974
    40   1 H    1.003 --    19 C    0.970
    41   1 H    1.002 --    19 C    0.983
    42   1 H    0.968 --    21 N    0.896
 ---------------------------------------------------------------------------

           -------------------------------------------------
          | TOTAL ENERGY              -83.588845553392 Eh   |
          | GRADIENT NORM               0.000573407521 Eh/α |
          | HOMO-LUMO GAP               0.137966759588 eV   |
           -------------------------------------------------

 * finished run on 2023/06/21 at 17:12:37.224
