   * xtb version 6.5.1 (579679a) compiled by 'ehlert@majestix' on 2022-07-11
          program call               : /lustre/hpc/kemi/ree/PhD/git/ReactivityQM/dep/xtb-6.5.1/bin/xtb --gfn 1 /lustre/hpc/kemi/ree/PhD/git/ReactivityQM/calculations/R03/reac02prodN16/conf12/R03_reac02prodN16_conf12_gfn1.xyz --opt --vfukui --chrg 1 --uhf 0 --alpb DMSO

   ID    Z sym.   atoms
    1    6 C      1, 2, 5, 6, 9-12, 14, 15, 18-20, 22, 25
    2    7 N      3, 4, 8, 13, 24
    3    8 O      7, 16, 17, 21, 23, 26
    4    1 H      27-46

      * Solvation model:               ALPB
        Solvent                        DMSO
        Solvent mass                       7.8130E+01 g/mol
          :  Hamiltonian                  GFN1-xTB          :
 * total energy  :   -86.2808842 Eh     change       -0.2756906E-10 Eh
 * total energy  :   -86.2951183 Eh     change       -0.1423407E-01 Eh
 * total energy  :   -86.3006501 Eh     change       -0.5531799E-02 Eh
 * total energy  :   -86.3025593 Eh     change       -0.1909292E-02 Eh
 * total energy  :   -86.3039695 Eh     change       -0.1410164E-02 Eh
 * total energy  :   -86.3050166 Eh     change       -0.1047142E-02 Eh
 * total energy  :   -86.3059226 Eh     change       -0.9059265E-03 Eh
 * total energy  :   -86.3067003 Eh     change       -0.7776974E-03 Eh
 * total energy  :   -86.3071335 Eh     change       -0.4332471E-03 Eh
 * total energy  :   -86.3075729 Eh     change       -0.4393496E-03 Eh
 * total energy  :   -86.3128698 Eh     change       -0.1686688E-04 Eh
 * total energy  :   -86.3128974 Eh     change       -0.2755707E-04 Eh
 * total energy  :   -86.3129112 Eh     change       -0.1388889E-04 Eh
 * total energy  :   -86.3129292 Eh     change       -0.1792599E-04 Eh
 * total energy  :   -86.3129379 Eh     change       -0.8691102E-05 Eh
 * total energy  :   -86.3129445 Eh     change       -0.6615995E-05 Eh
 * total energy  :   -86.3129508 Eh     change       -0.6363172E-05 Eh
 * total energy  :   -86.3129581 Eh     change       -0.7235321E-05 Eh
 * total energy  :   -86.3129627 Eh     change       -0.4588760E-05 Eh
   *** GEOMETRY OPTIMIZATION CONVERGED AFTER 46 ITERATIONS ***

 final structure:
================
46
 xtb: 6.5.1 (579679a)
C            6.87665777356433        0.21738151122110       -1.07464080741885
C            5.51464556819831        0.78733141459257       -1.15333707164551
N            5.09623409336409        1.75280573053045       -1.91260313655551
N            3.77336737587579        1.92215071808518       -1.64130160599312
C            3.46325900348589        1.05131807093968       -0.73172760352186
C            2.14647393773530        0.82046181470945       -0.10002662103491
O            1.13724516324466        1.42573213035281       -0.42357434195163
N            2.17328651773561       -0.15599598813154        0.83693810723515
C            0.99328380356524       -0.42868549712670        1.65238330766353
C            0.80567109742865        0.73844922361167        2.63347265365178
C            1.20805643703150       -1.72898291054978        2.43476643111557
C           -0.23944368335981       -0.55065785697147        0.76822065698675
N           -1.30927184282277        0.01806417608081        1.22445211701303
C           -2.49352871542788       -0.02023930543138        0.53497853144476
C           -3.56960052559941        0.62318845134615        1.25069790151124
O           -3.63444265057721        1.02787865276958        2.35820748131107
O           -4.83848848823457        0.71452591629961        0.43116450288192
C           -6.03170193037369        0.77532331506113        1.26386324940504
C           -4.81282844091498        1.73245743477780       -0.61375707790607
C           -2.56078941808204       -0.67740917304032       -0.67026295210887
O           -3.64391910221613       -0.77186931930281       -1.42612421723192
C           -1.36931000022820       -1.35135675483564       -1.18662851498062
O           -1.40223893715737       -1.95326222793987       -2.24964037720883
N           -0.24193907215022       -1.27010946561560       -0.40123150151442
C            0.90941889842345       -1.98150187753505       -0.96401760888339
O            4.52965298356838        0.30024414719165       -0.38070523253267
H            7.26003357323677        0.31114437876796       -0.05858568856857
H            6.84803248707695       -0.84295164286691       -1.32501178839541
H            7.53486495224214        0.73992303436105       -1.76517806443929
H            3.05349817751576       -0.54603859182145        1.12942297767590
H            0.58703709873115        1.65461240912020        2.08680950133831
H           -0.01839522593286        0.52534136497086        3.31146295627557
H            1.71962630851912        0.87113310198659        3.20884537853468
H            1.38895163204404       -2.57076346968250        1.77072959507868
H            2.06463439999823       -1.61545668377805        3.09689250117309
H            0.32376517373651       -1.93993142953031        3.03415566734580
H           -5.99397370413822       -0.08605802498450        1.92686093976478
H           -6.03931321039134        1.70822564085255        1.82759737213647
H           -6.88123463263768        0.71176059965438        0.58906660869767
H           -5.61806302967898        1.48707708472506       -1.30191819361398
H           -4.95582893305734        2.71475839522012       -0.16378801889953
H           -3.85006344620582        1.66393725476416       -1.11147728000751
H           -3.44376712005661       -1.32795633764888       -2.20928721958313
H            1.32317420898570       -1.39128750877730       -1.78217342531875
H            0.55221208229978       -2.93423134147868       -1.35398110098978
H            1.66505936163327       -2.15048156492588       -0.20862498792908

          :  Hamiltonian                  GFN1-xTB          :
         :: total energy             -86.312962669585 Eh    ::
         :: gradient norm              0.000933836580 Eh/a0 ::
         :: HOMO-LUMO gap              2.036560842820 eV    ::
         :: SCC energy               -87.153317876537 Eh    ::
         :: -> Gsolv                  -0.112690701433 Eh    ::
         :: repulsion energy           0.870425954906 Eh    ::

    * Orbital Energies and Occupations

         #    Occupation            Energy/Eh            Energy/eV
      -------------------------------------------------------------
         1        2.0000           -0.9288032             -25.2740
       ...           ...                  ...                  ...
        58        2.0000           -0.5286301             -14.3848
        59        2.0000           -0.5189504             -14.1214
        60        2.0000           -0.5124958             -13.9457
        61        2.0000           -0.5098129             -13.8727
        62        2.0000           -0.5024522             -13.6724
        63        2.0000           -0.4892363             -13.3128
        64        2.0000           -0.4853634             -13.2074
        65        2.0000           -0.4780125             -13.0074
        66        2.0000           -0.4748648             -12.9217
        67        2.0000           -0.4658021             -12.6751
        68        2.0000           -0.4589037             -12.4874
        69        2.0000           -0.4561074             -12.4113
        70        2.0000           -0.4531103             -12.3298 (HOMO)
        71                         -0.3782681             -10.2932 (LUMO)
        72                         -0.3190729              -8.6824
        73                         -0.3099080              -8.4330
        74                         -0.2870631              -7.8114
        75                         -0.2606269              -7.0920
        76                         -0.2058398              -5.6012
        77                         -0.1945603              -5.2943
        78                         -0.1811259              -4.9287
        79                         -0.1728967              -4.7048
        80                         -0.1495487              -4.0694
        81                         -0.1430356              -3.8922
       ...                                ...                  ...
       144                          0.7513856              20.4462
      -------------------------------------------------------------
                  HL-Gap            0.0748422 Eh            2.0366 eV

Wiberg/Mayer (AO) data.
largest (>0.10) Wiberg bond orders for each atom

     #   Z sym  total        # sym  WBO       # sym  WBO       # sym  WBO
 ---------------------------------------------------------------------------
     1   6 C    3.985 --     2 C    1.033    29 H    0.982    27 H    0.962
                            28 H    0.962
     2   6 C    3.866 --     3 N    1.605    26 O    1.073     1 C    1.033
     3   7 N    2.982 --     2 C    1.605     4 N    1.204
     4   7 N    3.002 --     5 C    1.617     3 N    1.204
     5   6 C    3.875 --     4 N    1.617    26 O    1.047     6 C    1.001
     6   6 C    3.915 --     7 O    1.585     8 N    1.240     5 C    1.001
     7   8 O    1.892 --     6 C    1.585     8 N    0.170
     8   7 N    3.339 --     6 C    1.240     9 C    0.932    30 H    0.887
                             7 O    0.170
     9   6 C    3.936 --    10 C    0.986    11 C    0.982    12 C    0.976
                             8 N    0.932
    10   6 C    3.987 --     9 C    0.986    33 H    0.985    32 H    0.984
                            31 H    0.982
    11   6 C    3.987 --    36 H    0.983     9 C    0.982    35 H    0.980
                            34 H    0.979
    12   6 C    3.921 --    13 N    1.570    24 N    1.166     9 C    0.976
    13   7 N    3.026 --    12 C    1.570    14 C    1.164
    14   6 C    3.960 --    20 C    1.428    13 N    1.164    15 C    1.105
    15   6 C    3.798 --    16 O    1.824    14 C    1.105    17 O    0.729
    16   8 O    2.087 --    15 C    1.824
    17   8 O    2.479 --    18 C    0.818    19 C    0.811    15 C    0.729
    18   6 C    3.789 --    38 H    0.979    39 H    0.977    37 H    0.977
                            17 O    0.818
    19   6 C    3.787 --    41 H    0.980    40 H    0.976    42 H    0.975
                            17 O    0.811
    20   6 C    3.914 --    14 C    1.428    21 O    1.147    22 C    1.049
    21   8 O    2.124 --    20 C    1.147    43 H    0.780
    22   6 C    3.921 --    23 O    1.578    24 N    1.152    20 C    1.049
    23   8 O    1.922 --    22 C    1.578    24 N    0.144
    24   7 N    3.529 --    12 C    1.166    22 C    1.152    25 C    0.920
                            23 O    0.144
    25   6 C    3.910 --    46 H    0.978    45 H    0.973    44 H    0.971
                            24 N    0.920
    26   8 O    2.317 --     2 C    1.073     5 C    1.047
    27   1 H    0.996 --     1 C    0.962
    28   1 H    0.996 --     1 C    0.962
    29   1 H    0.998 --     1 C    0.982
    30   1 H    0.929 --     8 N    0.887
    31   1 H    1.008 --    10 C    0.982
    32   1 H    1.009 --    10 C    0.984
    33   1 H    1.000 --    10 C    0.985
    34   1 H    0.999 --    11 C    0.979
    35   1 H    0.995 --    11 C    0.980
    36   1 H    0.999 --    11 C    0.983
    37   1 H    0.995 --    18 C    0.977
    38   1 H    0.997 --    18 C    0.979
    39   1 H    0.994 --    18 C    0.977
    40   1 H    0.996 --    19 C    0.976
    41   1 H    0.992 --    19 C    0.980
    42   1 H    1.001 --    19 C    0.975
    43   1 H    0.824 --    21 O    0.780
    44   1 H    0.998 --    25 C    0.971
    45   1 H    1.001 --    25 C    0.973
    46   1 H    1.008 --    25 C    0.978
 ---------------------------------------------------------------------------

           -------------------------------------------------
          | TOTAL ENERGY              -86.312962669585 Eh   |
          | GRADIENT NORM               0.000933836580 Eh/α |
          | HOMO-LUMO GAP               2.036560842820 eV   |
           -------------------------------------------------

 * finished run on 2023/06/20 at 15:52:51.537
