   * xtb version 6.5.1 (579679a) compiled by 'ehlert@majestix' on 2022-07-11
          program call               : /lustre/hpc/kemi/ree/PhD/git/ReactivityQM/dep/xtb-6.5.1/bin/xtb --gfn 1 /lustre/hpc/kemi/ree/PhD/git/ReactivityQM/calculations/R01/reac02prodN01/conf08/R01_reac02prodN01_conf08_gfn1.xyz --opt --vfukui --chrg 1 --uhf 0 --alpb DMSO

   ID    Z sym.   atoms
    1    6 C      1, 3, 5, 6, 8-11, 14, 16
    2    8 O      2, 4, 15, 17
    3    7 N      7, 12, 13
    4    1 H      18-33

      * Solvation model:               ALPB
        Solvent                        DMSO
        Solvent mass                       7.8130E+01 g/mol
          :  Hamiltonian                  GFN1-xTB          :
 * total energy  :   -57.8190641 Eh     change       -0.8725465E-11 Eh
 * total energy  :   -57.8414261 Eh     change       -0.2236204E-01 Eh
 * total energy  :   -57.8475312 Eh     change       -0.6105073E-02 Eh
 * total energy  :   -57.8487307 Eh     change       -0.1199499E-02 Eh
 * total energy  :   -57.8491537 Eh     change       -0.4229716E-03 Eh
 * total energy  :   -57.8492480 Eh     change       -0.9428735E-04 Eh
 * total energy  :   -57.8493101 Eh     change       -0.6216085E-04 Eh
 * total energy  :   -57.8493422 Eh     change       -0.3208447E-04 Eh
 * total energy  :   -57.8493655 Eh     change       -0.2327631E-04 Eh
 * total energy  :   -57.8493757 Eh     change       -0.1016580E-04 Eh
 * total energy  :   -57.8505976 Eh     change       -0.1737432E-04 Eh
 * total energy  :   -57.8506267 Eh     change       -0.2909027E-04 Eh
 * total energy  :   -57.8506404 Eh     change       -0.1366577E-04 Eh
 * total energy  :   -57.8506534 Eh     change       -0.1303223E-04 Eh
 * total energy  :   -57.8506689 Eh     change       -0.1550275E-04 Eh
 * total energy  :   -57.8506851 Eh     change       -0.1620043E-04 Eh
 * total energy  :   -57.8506941 Eh     change       -0.8987919E-05 Eh
 * total energy  :   -57.8506998 Eh     change       -0.5712591E-05 Eh
 * total energy  :   -57.8507027 Eh     change       -0.2875043E-05 Eh
   *** GEOMETRY OPTIMIZATION CONVERGED AFTER 91 ITERATIONS ***

 final structure:
================
33
 xtb: 6.5.1 (579679a)
C            4.52358595501658        1.28752261948322       -0.06654996521185
O            3.34587355828785        0.70505440343969       -0.65398035489929
C            2.23987826442821        0.67365258242970        0.00440914724370
O            2.27028751684914        1.18516581408001        1.18777161162582
C            1.18248479910201        1.28740949257700        2.11962594265652
C            1.09346888899323        0.07617871609994       -0.64483358325669
N           -0.07234332250371        0.00600430873156        0.08354742791873
C           -1.13538064076012       -0.52039199196935       -0.43495060086049
C           -2.40384761760764       -0.59054930595056        0.40394152112672
C           -2.09125429155737       -1.37955197205220        1.68275148381608
C           -2.83399051309989        0.84243458117563        0.74629079219430
N           -3.49211165103405       -1.24603176946285       -0.28936236774780
N           -1.15383344778097       -1.01341122565227       -1.70446000877347
C           -0.06764786569952       -1.00349707482552       -2.53613889032592
O           -0.07365422447912       -1.43939371508743       -3.67137539297784
C            1.13875739048818       -0.41283562240143       -1.93595400287062
O            2.20851668124041       -0.39264786208564       -2.70627644635509
H            5.31049674422109        1.17672461515324       -0.80858967813110
H            4.33722185138898        2.33910016473749        0.15312110815082
H            4.77285238915496        0.75547240903671        0.85174405203591
H            1.59173936146155        1.81058819047561        2.98295020315034
H            0.83713975057627        0.29228383152050        2.39720068842947
H            0.36321521133927        1.85177491982059        1.67621228786602
H           -1.77341184278475       -2.39025899952254        1.43116802864998
H           -2.98553315016791       -1.43163628240684        2.30197844228979
H           -1.29545244037826       -0.88829259408929        2.23957580398615
H           -3.04424116697538        1.39866545181296       -0.16582755839083
H           -3.73390147795460        0.81158674988712        1.35917818859776
H           -2.04167948147555        1.34967706171147        1.29362837676378
H           -3.75293961286945       -0.73988444951274       -1.12211727735416
H           -3.25249843139143       -2.19591475211725       -0.52997696665072
H           -2.00842571898948       -1.41289698051742       -2.06927278981513
H            1.99662753496126       -0.79210231451813       -3.57542722287502

          :  Hamiltonian                  GFN1-xTB          :
         :: total energy             -57.850702684020 Eh    ::
         :: gradient norm              0.000620498480 Eh/a0 ::
         :: HOMO-LUMO gap              1.303875129168 eV    ::
         :: SCC energy               -58.426700179479 Eh    ::
         :: -> Gsolv                  -0.095155005942 Eh    ::
         :: repulsion energy           0.595024955280 Eh    ::

    * Orbital Energies and Occupations

         #    Occupation            Energy/Eh            Energy/eV
      -------------------------------------------------------------
         1        2.0000           -0.9106105             -24.7790
       ...           ...                  ...                  ...
        35        2.0000           -0.5536124             -15.0646
        36        2.0000           -0.5451939             -14.8355
        37        2.0000           -0.5370545             -14.6140
        38        2.0000           -0.5260304             -14.3140
        39        2.0000           -0.5205060             -14.1637
        40        2.0000           -0.5179048             -14.0929
        41        2.0000           -0.5156308             -14.0310
        42        2.0000           -0.5076702             -13.8144
        43        2.0000           -0.4968041             -13.5187
        44        2.0000           -0.4886895             -13.2979
        45        2.0000           -0.4774154             -12.9911
        46        2.0000           -0.4586380             -12.4802
        47        2.0000           -0.4268892             -11.6162 (HOMO)
        48                         -0.3789726             -10.3124 (LUMO)
        49                         -0.3098549              -8.4316
        50                         -0.2877286              -7.8295
        51                         -0.1943030              -5.2873
        52                         -0.1711165              -4.6563
        53                         -0.1616587              -4.3990
        54                         -0.1392268              -3.7886
        55                         -0.1367697              -3.7217
        56                         -0.1268936              -3.4530
        57                         -0.1191179              -3.2414
        58                         -0.1035424              -2.8175
       ...                                ...                  ...
       100                          0.6933405              18.8668
      -------------------------------------------------------------
                  HL-Gap            0.0479165 Eh            1.3039 eV

Wiberg/Mayer (AO) data.
largest (>0.10) Wiberg bond orders for each atom

     #   Z sym  total        # sym  WBO       # sym  WBO       # sym  WBO
 ---------------------------------------------------------------------------
     1   6 C    3.825 --    18 H    0.982    20 H    0.973    19 H    0.973
                             2 O    0.855
     2   8 O    2.309 --     3 C    1.260     1 C    0.855
     3   6 C    3.815 --     2 O    1.260     4 O    1.249     6 C    1.119
     4   8 O    2.306 --     3 C    1.249     5 C    0.850
     5   6 C    3.816 --    21 H    0.979    23 H    0.971    22 H    0.970
                             4 O    0.850
     6   6 C    3.958 --    16 C    1.422     7 N    1.158     3 C    1.119
     7   7 N    3.033 --     8 C    1.567     6 C    1.158
     8   6 C    3.905 --     7 N    1.567    13 N    1.178     9 C    0.967
     9   6 C    3.965 --    12 N    1.003    10 C    0.980    11 C    0.979
                             8 C    0.967
    10   6 C    3.992 --    24 H    0.985    26 H    0.984    25 H    0.983
                             9 C    0.980
    11   6 C    3.992 --    27 H    0.985    29 H    0.984    28 H    0.983
                             9 C    0.979
    12   7 N    2.959 --     9 C    1.003    31 H    0.936    30 H    0.936
    13   7 N    3.485 --     8 C    1.178    14 C    1.153    32 H    0.868
                            15 O    0.141
    14   6 C    3.915 --    15 O    1.606    13 N    1.153    16 C    1.032
    15   8 O    1.933 --    14 C    1.606    13 N    0.141
    16   6 C    3.911 --     6 C    1.422    17 O    1.171    14 C    1.032
    17   8 O    2.143 --    16 C    1.171    33 H    0.783
    18   1 H    1.002 --     1 C    0.982
    19   1 H    0.998 --     1 C    0.973
    20   1 H    0.999 --     1 C    0.973
    21   1 H    1.002 --     5 C    0.979
    22   1 H    1.014 --     5 C    0.970
    23   1 H    1.015 --     5 C    0.971
    24   1 H    1.000 --    10 C    0.985
    25   1 H    1.002 --    10 C    0.983
    26   1 H    1.007 --    10 C    0.984
    27   1 H    1.000 --    11 C    0.985
    28   1 H    1.002 --    11 C    0.983
    29   1 H    1.006 --    11 C    0.984
    30   1 H    0.950 --    12 N    0.936
    31   1 H    0.950 --    12 N    0.936
    32   1 H    0.917 --    13 N    0.868
    33   1 H    0.824 --    17 O    0.783
 ---------------------------------------------------------------------------

           -------------------------------------------------
          | TOTAL ENERGY              -57.850702684020 Eh   |
          | GRADIENT NORM               0.000620498480 Eh/α |
          | HOMO-LUMO GAP               1.303875129168 eV   |
           -------------------------------------------------

 * finished run on 2023/06/20 at 15:03:35.426
