   * xtb version 6.5.1 (579679a) compiled by 'ehlert@majestix' on 2022-07-11
          program call               : /lustre/hpc/kemi/ree/PhD/git/ReactivityQM/dep/xtb-6.5.1/bin/xtb --gfn 1 /lustre/hpc/kemi/ree/PhD/git/ReactivityQM/calculations/R02deprot/reac01prodN06/conf15/R02deprot_reac01prodN06_conf15_gfn1.xyz --opt --vfukui --chrg 0 --uhf 0 --alpb DMSO

   ID    Z sym.   atoms
    1    6 C      1, 3, 5, 6, 8, 11-14, 16, 18, 21, 22, 25
    2    8 O      2, 4, 7, 9, 17, 23
    3    7 N      10, 15, 19, 20, 24
    4    1 H      26-42

      * Solvation model:               ALPB
        Solvent                        DMSO
        Solvent mass                       7.8130E+01 g/mol
          :  Hamiltonian                  GFN1-xTB          :
 * total energy  :   -82.9795686 Eh     change       -0.1936939E-10 Eh
 * total energy  :   -82.9907175 Eh     change       -0.1114890E-01 Eh
 * total energy  :   -82.9945568 Eh     change       -0.3839359E-02 Eh
 * total energy  :   -82.9953333 Eh     change       -0.7765090E-03 Eh
 * total energy  :   -82.9958866 Eh     change       -0.5532491E-03 Eh
 * total energy  :   -82.9962398 Eh     change       -0.3532273E-03 Eh
 * total energy  :   -82.9965629 Eh     change       -0.3230844E-03 Eh
 * total energy  :   -82.9968297 Eh     change       -0.2668204E-03 Eh
 * total energy  :   -82.9970170 Eh     change       -0.1872663E-03 Eh
 * total energy  :   -82.9971612 Eh     change       -0.1442201E-03 Eh
 * total energy  :   -82.9976163 Eh     change       -0.7753509E-04 Eh
 * total energy  :   -82.9976641 Eh     change       -0.4780588E-04 Eh
 * total energy  :   -82.9977082 Eh     change       -0.4410161E-04 Eh
 * total energy  :   -82.9977279 Eh     change       -0.1970231E-04 Eh
 * total energy  :   -82.9977461 Eh     change       -0.1821919E-04 Eh
 * total energy  :   -82.9977582 Eh     change       -0.1205796E-04 Eh
 * total energy  :   -82.9977667 Eh     change       -0.8551022E-05 Eh
 * total energy  :   -82.9977746 Eh     change       -0.7878506E-05 Eh
 * total energy  :   -82.9977774 Eh     change       -0.2844375E-05 Eh
   *** GEOMETRY OPTIMIZATION CONVERGED AFTER 22 ITERATIONS ***

 final structure:
================
42
 xtb: 6.5.1 (579679a)
C           -4.46851486068138       -2.07461623049071        1.60885889944534
O           -3.60414421903015       -1.23230420986686        0.83247971882078
C           -3.33041930160524       -0.03243404773952        1.34137037393895
O           -3.77777017397310        0.36501770339021        2.38700866019876
C           -2.46196136007206        0.80300608075197        0.44328868127361
C           -2.78306660757140        2.10266774500156        0.20329516805773
O           -3.84531305219751        2.70941435529986        0.74796553554830
C           -1.99211304284119        2.91103870550608       -0.73288838676814
O           -2.29912752075842        4.07869444805955       -0.94726800311606
N           -0.93804803800599        2.27278017220640       -1.32591637253590
C           -0.63025548180344        1.03618745232824       -1.05297390583424
C            0.56887624051814        0.49486639016166       -1.83430724136308
C            0.10964042340575       -0.62250836040219       -2.78246436615355
C            1.20465144973993        1.62929865683709       -2.65150885999414
N            1.57011879672948        0.01682420376231       -0.87137358846481
C            2.70246075866737       -0.62758872965304       -1.23896190078725
O            2.97582426290163       -0.99701563086057       -2.36684006974669
C            3.60179430589473       -0.87894380005011       -0.08565600244209
N            4.77680004490579       -1.42755729653056       -0.09891288959273
N            5.21739366624154       -1.44790083898783        1.18882016881646
C            4.28360143183980       -0.91117244526107        1.91283170383500
C            4.27440014879189       -0.71184833617486        3.38010349283850
O            3.23501093782717       -0.52763432267005        1.16741275404872
N           -1.34000385344086        0.26895945055820       -0.18823857004372
C           -0.96282392564058       -1.09909181876030        0.17237902787537
H           -4.50776352350836       -3.03243971528460        1.09529056685810
H           -4.06253550116797       -2.19625225628428        2.61509153381025
H           -5.46483649209311       -1.63098381696803        1.66723457839561
H           -3.87127660675376        3.62535922484373        0.40676316170998
H           -0.79006664856479       -0.29759165887491       -3.30350642249845
H           -0.10791351912284       -1.54046809721792       -2.24385070127419
H            0.88408493864060       -0.83085306151557       -3.51834573516290
H            0.48634642010694        2.01502522497585       -3.37250226327269
H            1.51415060374707        2.43796340659297       -1.99190526918199
H            2.07436747156435        1.24633542723129       -3.18279474781635
H            1.54572674550458        0.41827865676204        0.05156652805464
H            3.38828429888702       -0.15394164463855        3.67143358058985
H            4.27197768835770       -1.67773352498898        3.88575163727108
H            5.16684927290906       -0.16884495357086        3.68966308763505
H            0.08579379657390       -1.26783069495819       -0.04408283123364
H           -1.57399101440753       -1.80628147984975       -0.38649727663546
H           -1.12621096051762       -1.23788133266926        1.23873254490529

          :  Hamiltonian                  GFN1-xTB          :
         :: total energy             -82.997777435511 Eh    ::
         :: gradient norm              0.000472603814 Eh/a0 ::
         :: HOMO-LUMO gap              3.045966806090 eV    ::
         :: SCC energy               -83.779093450443 Eh    ::
         :: -> Gsolv                  -0.060782107643 Eh    ::
         :: repulsion energy           0.808140174791 Eh    ::

    * Orbital Energies and Occupations

         #    Occupation            Energy/Eh            Energy/eV
      -------------------------------------------------------------
         1        2.0000           -0.8674842             -23.6054
       ...           ...                  ...                  ...
        55        2.0000           -0.5058303             -13.7643
        56        2.0000           -0.5032048             -13.6929
        57        2.0000           -0.4990241             -13.5791
        58        2.0000           -0.4890698             -13.3083
        59        2.0000           -0.4814919             -13.1021
        60        2.0000           -0.4757103             -12.9447
        61        2.0000           -0.4745735             -12.9138
        62        2.0000           -0.4673903             -12.7183
        63        2.0000           -0.4609609             -12.5434
        64        2.0000           -0.4532464             -12.3335
        65        2.0000           -0.4487901             -12.2122
        66        2.0000           -0.4265954             -11.6083
        67        2.0000           -0.4260529             -11.5935 (HOMO)
        68                         -0.3141157              -8.5475 (LUMO)
        69                         -0.3131273              -8.5206
        70                         -0.2938112              -7.9950
        71                         -0.2585316              -7.0350
        72                         -0.2501844              -6.8079
        73                         -0.2012325              -5.4758
        74                         -0.1656218              -4.5068
        75                         -0.1434939              -3.9047
        76                         -0.1429103              -3.8888
        77                         -0.1406873              -3.8283
        78                         -0.1261440              -3.4326
       ...                                ...                  ...
       134                          0.7300002              19.8643
      -------------------------------------------------------------
                  HL-Gap            0.1119372 Eh            3.0460 eV

Wiberg/Mayer (AO) data.
largest (>0.10) Wiberg bond orders for each atom

     #   Z sym  total        # sym  WBO       # sym  WBO       # sym  WBO
 ---------------------------------------------------------------------------
     1   6 C    3.860 --    26 H    0.985    27 H    0.980    28 H    0.979
                             2 O    0.885
     2   8 O    2.207 --     3 C    1.114     1 C    0.885     4 O    0.137
     3   6 C    3.852 --     4 O    1.687     2 O    1.114     5 C    0.974
     4   8 O    1.946 --     3 C    1.687     2 O    0.137
     5   6 C    3.928 --     6 C    1.542    24 N    1.093     3 C    0.974
     6   6 C    3.916 --     5 C    1.542     7 O    1.103     8 C    1.040
     7   8 O    2.074 --     6 C    1.103    29 H    0.805
     8   6 C    3.918 --     9 O    1.575    10 N    1.165     6 C    1.040
     9   8 O    1.893 --     8 C    1.575
    10   7 N    3.015 --    11 C    1.510     8 C    1.165
    11   6 C    3.930 --    10 N    1.510    24 N    1.251    12 C    0.972
    12   6 C    3.931 --    14 C    0.991    13 C    0.984    11 C    0.972
                            15 N    0.920
    13   6 C    3.987 --    30 H    0.985    12 C    0.984    31 H    0.981
                            32 H    0.977
    14   6 C    3.988 --    12 C    0.991    34 H    0.984    33 H    0.984
                            35 H    0.982
    15   7 N    3.343 --    16 C    1.237    12 C    0.920    36 H    0.895
                            17 O    0.171
    16   6 C    3.914 --    17 O    1.596    15 N    1.237    18 C    0.994
    17   8 O    1.911 --    16 C    1.596    15 N    0.171
    18   6 C    3.872 --    19 N    1.620    23 O    1.044    16 C    0.994
    19   7 N    3.001 --    18 C    1.620    20 N    1.203
    20   7 N    2.980 --    21 C    1.606    19 N    1.203
    21   6 C    3.867 --    20 N    1.606    23 O    1.075    22 C    1.030
    22   6 C    3.986 --    21 C    1.030    37 H    0.982    39 H    0.966
                            38 H    0.961
    23   8 O    2.317 --    21 C    1.075    18 C    1.044
    24   7 N    3.525 --    11 C    1.251     5 C    1.093    25 C    0.926
    25   6 C    3.921 --    42 H    0.979    41 H    0.974    40 H    0.972
                            24 N    0.926
    26   1 H    1.008 --     1 C    0.985
    27   1 H    1.006 --     1 C    0.980
    28   1 H    1.005 --     1 C    0.979
    29   1 H    0.851 --     7 O    0.805
    30   1 H    1.001 --    13 C    0.985
    31   1 H    1.001 --    13 C    0.981
    32   1 H    1.011 --    13 C    0.977
    33   1 H    1.011 --    14 C    0.984
    34   1 H    1.010 --    14 C    0.984
    35   1 H    1.006 --    14 C    0.982
    36   1 H    0.939 --    15 N    0.895
    37   1 H    0.997 --    22 C    0.982
    38   1 H    0.997 --    22 C    0.961
    39   1 H    0.997 --    22 C    0.966
    40   1 H    1.007 --    25 C    0.972
    41   1 H    1.008 --    25 C    0.974
    42   1 H    1.000 --    25 C    0.979
 ---------------------------------------------------------------------------

           -------------------------------------------------
          | TOTAL ENERGY              -82.997777435511 Eh   |
          | GRADIENT NORM               0.000472603814 Eh/α |
          | HOMO-LUMO GAP               3.045966806090 eV   |
           -------------------------------------------------

 * finished run on 2023/06/20 at 18:12:21.680
