   * xtb version 6.5.1 (579679a) compiled by 'ehlert@majestix' on 2022-07-11
          program call               : /lustre/hpc/kemi/ree/PhD/git/ReactivityQM/dep/xtb-6.5.1/bin/xtb --gfn 1 /lustre/hpc/kemi/ree/PhD/git/ReactivityQM/calculations/R02deprot/reac02prodN01/conf04/R02deprot_reac02prodN01_conf04_gfn1.xyz --opt --vfukui --chrg 1 --uhf 0 --alpb DMSO

   ID    Z sym.   atoms
    1    6 C      1, 4
    2    8 O      2, 5
    3    5 B      3
    4    1 H      6-13

      * Solvation model:               ALPB
        Solvent                        DMSO
        Solvent mass                       7.8130E+01 g/mol
          :  Hamiltonian                  GFN1-xTB          :
 * total energy  :   -19.0540633 Eh     change       -0.3766942E-10 Eh
 * total energy  :   -19.0629603 Eh     change       -0.8896990E-02 Eh
 * total energy  :   -19.0655373 Eh     change       -0.2577063E-02 Eh
 * total energy  :   -19.0660069 Eh     change       -0.4696226E-03 Eh
 * total energy  :   -19.0663723 Eh     change       -0.3653335E-03 Eh
 * total energy  :   -19.0664487 Eh     change       -0.7638790E-04 Eh
 * total energy  :   -19.0665012 Eh     change       -0.5251820E-04 Eh
 * total energy  :   -19.0665267 Eh     change       -0.2547123E-04 Eh
 * total energy  :   -19.0665445 Eh     change       -0.1787571E-04 Eh
 * total energy  :   -19.0665544 Eh     change       -0.9881348E-05 Eh
 * total energy  :   -19.0666719 Eh     change       -0.8697291E-05 Eh
 * total energy  :   -19.0666793 Eh     change       -0.7337252E-05 Eh
 * total energy  :   -19.0666922 Eh     change       -0.1295500E-04 Eh
 * total energy  :   -19.0666980 Eh     change       -0.5775023E-05 Eh
 * total energy  :   -19.0667051 Eh     change       -0.7068266E-05 Eh
 * total energy  :   -19.0667140 Eh     change       -0.8959698E-05 Eh
 * total energy  :   -19.0667239 Eh     change       -0.9854582E-05 Eh
 * total energy  :   -19.0667315 Eh     change       -0.7649406E-05 Eh
 * total energy  :   -19.0667352 Eh     change       -0.3653308E-05 Eh
   *** GEOMETRY OPTIMIZATION CONVERGED AFTER 27 ITERATIONS ***

 final structure:
================
13
 xtb: 6.5.1 (579679a)
C           -1.70137307070027       -0.34354748381073        0.19852090540347
O           -0.69810917615607        0.64785016660171       -0.16065600405845
B            0.78565072839465        0.50008886390879       -0.17389804960214
C            1.38018611226275       -0.89838361910746        0.11292980141049
O            1.45560303171369        1.60043919063919       -0.44475362628094
H           -2.53893118660646       -0.23533216216681       -0.48756743544715
H           -2.00985296883634       -0.17253879228118        1.22959495944398
H           -1.24283925496659       -1.32282490794491        0.08884616412193
H           -1.07472572799365        1.52766329259227       -0.29817306000293
H            2.46832679759707       -0.86866158825000        0.09171461405219
H            1.06391650017477       -1.26630656905278        1.08822537109464
H            1.04369489575412       -1.62484149158923       -0.62665822194459
H            1.06845331936232        2.45639410046108       -0.61812541819046

          :  Hamiltonian                  GFN1-xTB          :
         :: total energy             -19.066735202379 Eh    ::
         :: gradient norm              0.000507633927 Eh/a0 ::
         :: HOMO-LUMO gap              7.741832153328 eV    ::
         :: SCC energy               -19.259492370844 Eh    ::
         :: -> Gsolv                  -0.101793614100 Eh    ::
         :: repulsion energy           0.196352210534 Eh    ::

    * Orbital Energies and Occupations

         #    Occupation            Energy/Eh            Energy/eV
      -------------------------------------------------------------
         1        2.0000           -0.9092111             -24.7409
       ...           ...                  ...                  ...
         3        2.0000           -0.7652204             -20.8227
         4        2.0000           -0.7513374             -20.4449
         5        2.0000           -0.6981422             -18.9974
         6        2.0000           -0.6868901             -18.6912
         7        2.0000           -0.6581607             -17.9095
         8        2.0000           -0.6552044             -17.8290
         9        2.0000           -0.6079925             -16.5443
        10        2.0000           -0.5999073             -16.3243
        11        2.0000           -0.5725339             -15.5794
        12        2.0000           -0.5538340             -15.0706
        13        2.0000           -0.5465618             -14.8727
        14        2.0000           -0.5427856             -14.7699
        15        2.0000           -0.5333509             -14.5132 (HOMO)
        16                         -0.2488438              -6.7714 (LUMO)
        17                         -0.1913346              -5.2065
        18                         -0.1801811              -4.9030
        19                         -0.1570138              -4.2726
        20                         -0.1134229              -3.0864
        21                         -0.1106122              -3.0099
        22                         -0.1029093              -2.8003
        23                         -0.0814050              -2.2151
        24                         -0.0697891              -1.8991
        25                         -0.0472174              -1.2849
        26                          0.0678636               1.8467
       ...                                ...                  ...
        36                          0.6196118              16.8605
      -------------------------------------------------------------
                  HL-Gap            0.2845071 Eh            7.7418 eV

Wiberg/Mayer (AO) data.
largest (>0.10) Wiberg bond orders for each atom

     #   Z sym  total        # sym  WBO       # sym  WBO       # sym  WBO
 ---------------------------------------------------------------------------
     1   6 C    3.786 --     8 H    0.982     7 H    0.980     6 H    0.980
                             2 O    0.818
     2   8 O    2.368 --     1 C    0.818     9 H    0.755     3 B    0.734
     3   5 B    3.140 --     5 O    1.286     4 C    1.045     2 O    0.734
     4   6 C    3.988 --     3 B    1.045    10 H    0.975    11 H    0.960
                            12 H    0.957
     5   8 O    2.157 --     3 B    1.286    13 H    0.790
     6   1 H    0.993 --     1 C    0.980
     7   1 H    0.994 --     1 C    0.980
     8   1 H    0.997 --     1 C    0.982
     9   1 H    0.782 --     2 O    0.755
    10   1 H    0.993 --     4 C    0.975
    11   1 H    0.993 --     4 C    0.960
    12   1 H    0.993 --     4 C    0.957
    13   1 H    0.812 --     5 O    0.790
 ---------------------------------------------------------------------------

           -------------------------------------------------
          | TOTAL ENERGY              -19.066735202379 Eh   |
          | GRADIENT NORM               0.000507633927 Eh/α |
          | HOMO-LUMO GAP               7.741832153328 eV   |
           -------------------------------------------------

 * finished run on 2023/06/20 at 18:32:01.601
