   * xtb version 6.5.1 (579679a) compiled by 'ehlert@majestix' on 2022-07-11
          program call               : /lustre/hpc/kemi/ree/PhD/git/ReactivityQM/dep/xtb-6.5.1/bin/xtb --gfn 1 /lustre/hpc/kemi/ree/PhD/git/ReactivityQM/calculations/RaltegravirCLI/reac02prodE05/conf19/RaltegravirCLI_reac02prodE05_conf19_gfn1.xyz --opt --vfukui --chrg -1 --uhf 0 --alpb DMSO

   ID    Z sym.   atoms
    1    6 C      1, 3, 5-9, 11-13, 15-18, 21, 22, 24
    2    8 O      2, 23, 25
    3    7 N      4, 14, 19, 20
    4    9 F      10
    5    1 H      26-47

      * Solvation model:               ALPB
        Solvent                        DMSO
        Solvent mass                       7.8130E+01 g/mol
          :  Hamiltonian                  GFN1-xTB          :
 * total energy  :   -80.1476216 Eh     change       -0.1129763E-10 Eh
 * total energy  :   -80.1615640 Eh     change       -0.1394241E-01 Eh
 * total energy  :   -80.1669396 Eh     change       -0.5375591E-02 Eh
 * total energy  :   -80.1686934 Eh     change       -0.1753844E-02 Eh
 * total energy  :   -80.1714004 Eh     change       -0.2706969E-02 Eh
 * total energy  :   -80.1729283 Eh     change       -0.1527861E-02 Eh
 * total energy  :   -80.1743281 Eh     change       -0.1399785E-02 Eh
 * total energy  :   -80.1750678 Eh     change       -0.7397825E-03 Eh
 * total energy  :   -80.1756017 Eh     change       -0.5338170E-03 Eh
 * total energy  :   -80.1760782 Eh     change       -0.4765485E-03 Eh
 * total energy  :   -80.1812562 Eh     change       -0.2176496E-04 Eh
 * total energy  :   -80.1812664 Eh     change       -0.1016424E-04 Eh
 * total energy  :   -80.1812834 Eh     change       -0.1703663E-04 Eh
 * total energy  :   -80.1812920 Eh     change       -0.8531703E-05 Eh
 * total energy  :   -80.1813003 Eh     change       -0.8276369E-05 Eh
 * total energy  :   -80.1813073 Eh     change       -0.7019141E-05 Eh
 * total energy  :   -80.1813137 Eh     change       -0.6475653E-05 Eh
 * total energy  :   -80.1813190 Eh     change       -0.5283388E-05 Eh
 * total energy  :   -80.1813236 Eh     change       -0.4603544E-05 Eh
   *** GEOMETRY OPTIMIZATION CONVERGED AFTER 49 ITERATIONS ***

 final structure:
================
47
 xtb: 6.5.1 (579679a)
C            0.26265347349156        2.63891879289736        1.05603217291141
O            0.66486232756831        2.15263700710708       -0.21410350785979
C            0.75373973708860        0.75515117732631       -0.33695663866872
N            2.09354402177335        0.31044354760198       -0.58875572941169
C            2.93815940923215        0.33278653755949        0.62061880244079
C            4.33012405808957       -0.13911984184621        0.28934502376324
C            5.04560840107567       -0.93532458371703        1.18146812372274
C            6.32994373350076       -1.36641567614907        0.87643812677734
C            6.87741505678271       -0.98929899678750       -0.33591163652730
F            8.12293037499094       -1.40530760674113       -0.64117463667538
C            6.19815732039433       -0.20179183463014       -1.24797076478762
C            4.91803364352440        0.22224641101442       -0.92297480706402
C           -0.35160296041594       -0.04888645599263       -0.32250076713831
N           -1.60686840309996        0.57933045231252       -0.21712761207544
C           -2.70949548073378       -0.08934330759518       -0.24037949266261
C           -3.98574480573360        0.75811524033925       -0.18738715230336
C           -4.51828591089978        0.94585912156849       -1.61655285734616
C           -3.66475978300973        2.14187644522992        0.40317789144595
N           -5.01971277570597        0.12143215013024        0.63045319042771
N           -2.76783860353358       -1.44678601659281       -0.39172417791554
C           -3.99866754686209       -2.22640390587987       -0.38138791262999
C           -1.54406789614136       -2.21395625949240       -0.42004246430986
O           -1.61211710612271       -3.47712200892656       -0.46971552620528
C           -0.38191152023290       -1.47786552238049       -0.40392052316017
O            0.82617640820655       -2.21086288452058       -0.41706483118256
H            0.92338742436593        2.28056359729724        1.85689089127292
H           -0.76637907781976        2.33660795843107        1.29102664076879
H            0.31178895467721        3.72995081286377        1.01634458575562
H            2.06340188625871       -0.65372741697353       -0.92122448685223
H            2.98676865727821        1.36675280999187        0.98178185156719
H            2.50365476066886       -0.28629078508519        1.42095215929091
H            4.60138239497686       -1.22188629111928        2.12821276515898
H            6.89574688215631       -1.98228695693024        1.56288580739272
H            6.66382008165353        0.07054944946471       -2.18637124297601
H            4.35985816142769        0.83780759975136       -1.62124162543172
H           -5.38350379704956        1.60802737926576       -1.60669097319677
H           -3.74474090052044        1.39122200067059       -2.24251216872026
H           -4.81869212209646       -0.00440846744089       -2.05545558958581
H           -2.94842529734293        2.66962093345950       -0.22606350816163
H           -3.24137934102898        2.03499399494756        1.40131395839295
H           -4.57820174532471        2.73084819661574        0.47146948738360
H           -5.89004455695543        0.61725276534537        0.50240564960474
H           -4.77285890885970        0.20474254451084        1.60853859008316
H           -4.38893787172703       -2.32832037453914        0.63434270620321
H           -3.77678422244638       -3.22166064587149       -0.77442412011821
H           -4.76230074735818       -1.76509072911425       -1.00419128493391
H            0.56216721181337       -3.14557935737310       -0.44019538647369

          :  Hamiltonian                  GFN1-xTB          :
         :: total energy             -80.181323636782 Eh    ::
         :: gradient norm              0.000394502725 Eh/a0 ::
         :: HOMO-LUMO gap              0.814393138078 eV    ::
         :: SCC energy               -81.035390004836 Eh    ::
         :: -> Gsolv                  -0.104775266381 Eh    ::
         :: repulsion energy           0.884190047520 Eh    ::

    * Orbital Energies and Occupations

         #    Occupation            Energy/Eh            Energy/eV
      -------------------------------------------------------------
         1        2.0000           -0.8539852             -23.2381
       ...           ...                  ...                  ...
        56        2.0000           -0.4566760             -12.4268
        57        2.0000           -0.4542168             -12.3599
        58        2.0000           -0.4503088             -12.2535
        59        2.0000           -0.4396883             -11.9645
        60        2.0000           -0.4297742             -11.6948
        61        2.0000           -0.4218599             -11.4794
        62        2.0000           -0.4050707             -11.0225
        63        2.0000           -0.3951772             -10.7533
        64        2.0000           -0.3864567             -10.5160
        65        2.0000           -0.3797417             -10.3333
        66        2.0000           -0.3752674             -10.2115
        67        2.0000           -0.3561049              -9.6901
        68        2.0000           -0.2914797              -7.9316 (HOMO)
        69        0.0000           -0.2615513              -7.1172 (LUMO)
        70                         -0.2518556              -6.8533
        71                         -0.2162050              -5.8832
        72                         -0.1810149              -4.9257
        73                         -0.1324757              -3.6048
        74                         -0.1163249              -3.1654
        75                         -0.1133147              -3.0835
        76                         -0.1050638              -2.8589
        77                         -0.1002668              -2.7284
        78                         -0.0984226              -2.6782
        79                         -0.0908783              -2.4729
       ...                                ...                  ...
       144                          0.6993902              19.0314
      -------------------------------------------------------------
                  HL-Gap            0.0299284 Eh            0.8144 eV

Wiberg/Mayer (AO) data.
largest (>0.10) Wiberg bond orders for each atom

     #   Z sym  total        # sym  WBO       # sym  WBO       # sym  WBO
 ---------------------------------------------------------------------------
     1   6 C    3.924 --    28 H    0.986    26 H    0.980    27 H    0.976
                             2 O    0.945
     2   8 O    2.008 --     1 C    0.945     3 C    0.931
     3   6 C    3.803 --    13 C    1.537     4 N    0.991     2 O    0.931
     4   7 N    3.035 --     3 C    0.991     5 C    0.963    29 H    0.932
     5   6 C    3.978 --     6 C    1.009    31 H    0.971    30 H    0.963
                             4 N    0.963
     6   6 C    3.986 --     7 C    1.415    12 C    1.407     5 C    1.009
     7   6 C    3.993 --     8 C    1.441     6 C    1.415    32 H    0.972
                            11 C    0.109
     8   6 C    3.991 --     7 C    1.441     9 C    1.403    33 H    0.970
                            12 C    0.110
     9   6 C    3.853 --     8 C    1.403    11 C    1.400    10 F    0.914
    10   9 F    1.038 --     9 C    0.914
    11   6 C    3.992 --    12 C    1.447     9 C    1.400    34 H    0.971
                             7 C    0.109
    12   6 C    3.992 --    11 C    1.447     6 C    1.407    35 H    0.971
                             8 C    0.110
    13   6 C    3.952 --     3 C    1.537    24 C    1.161    14 N    1.069
    14   7 N    3.015 --    15 C    1.609    13 C    1.069    20 N    0.131
    15   6 C    3.943 --    14 N    1.609    20 N    1.184    16 C    0.968
    16   6 C    3.964 --    18 C    0.991    17 C    0.988    19 N    0.978
                            15 C    0.968
    17   6 C    3.995 --    16 C    0.988    37 H    0.986    36 H    0.985
                            38 H    0.980
    18   6 C    3.997 --    16 C    0.991    41 H    0.986    40 H    0.984
                            39 H    0.983
    19   7 N    2.978 --    16 C    0.978    42 H    0.947    43 H    0.947
    20   7 N    3.398 --    15 C    1.184    21 C    0.954    22 C    0.949
                            14 N    0.131
    21   6 C    3.956 --    44 H    0.981    46 H    0.981    45 H    0.976
                            20 N    0.954
    22   6 C    3.915 --    24 C    1.421    23 O    1.365    20 N    0.949
    23   8 O    1.727 --    22 C    1.365    24 C    0.136
    24   6 C    3.839 --    22 C    1.421    13 C    1.161    25 O    0.947
                            23 O    0.136
    25   8 O    1.944 --    24 C    0.947    47 H    0.848
    26   1 H    1.020 --     1 C    0.980
    27   1 H    1.039 --     1 C    0.976
    28   1 H    1.021 --     1 C    0.986
    29   1 H    0.986 --     4 N    0.932
    30   1 H    1.023 --     5 C    0.963
    31   1 H    1.013 --     5 C    0.971
    32   1 H    1.002 --     7 C    0.972
    33   1 H    0.999 --     8 C    0.970
    34   1 H    1.000 --    11 C    0.971
    35   1 H    1.015 --    12 C    0.971
    36   1 H    1.003 --    17 C    0.985
    37   1 H    1.008 --    17 C    0.986
    38   1 H    1.008 --    17 C    0.980
    39   1 H    1.022 --    18 C    0.983
    40   1 H    1.015 --    18 C    0.984
    41   1 H    1.006 --    18 C    0.986
    42   1 H    0.962 --    19 N    0.947
    43   1 H    0.964 --    19 N    0.947
    44   1 H    1.023 --    21 C    0.981
    45   1 H    1.025 --    21 C    0.976
    46   1 H    1.026 --    21 C    0.981
    47   1 H    0.894 --    25 O    0.848
 ---------------------------------------------------------------------------

           -------------------------------------------------
          | TOTAL ENERGY              -80.181323636782 Eh   |
          | GRADIENT NORM               0.000394502725 Eh/α |
          | HOMO-LUMO GAP               0.814393138078 eV   |
           -------------------------------------------------

 * finished run on 2023/06/20 at 15:02:49.450
