   * xtb version 6.5.1 (579679a) compiled by 'ehlert@majestix' on 2022-07-11
          program call               : /lustre/hpc/kemi/ree/PhD/git/ReactivityQM/dep/xtb-6.5.1/bin/xtb --gfn 1 /lustre/hpc/kemi/ree/PhD/git/ReactivityQM/calculations/R02oxygendeprot/reac01prodN02/conf19/R02oxygendeprot_reac01prodN02_conf19_gfn1.xyz --opt --vfukui --chrg 0 --uhf 0 --alpb DMSO

   ID    Z sym.   atoms
    1    6 C      1, 3, 5, 7-10, 12, 14, 15, 18, 19, 22, 24
    2    8 O      2, 4, 13, 20, 23, 25
    3    7 N      6, 11, 16, 17, 21
    4    1 H      26-42

      * Solvation model:               ALPB
        Solvent                        DMSO
        Solvent mass                       7.8130E+01 g/mol
          :  Hamiltonian                  GFN1-xTB          :
 * total energy  :   -82.9417439 Eh     change       -0.5296386E-10 Eh
 * total energy  :   -82.9600711 Eh     change       -0.1832722E-01 Eh
 * total energy  :   -82.9679143 Eh     change       -0.7843182E-02 Eh
 * total energy  :   -82.9691363 Eh     change       -0.1221970E-02 Eh
 * total energy  :   -82.9699361 Eh     change       -0.7997565E-03 Eh
 * total energy  :   -82.9702392 Eh     change       -0.3031118E-03 Eh
 * total energy  :   -82.9705175 Eh     change       -0.2783765E-03 Eh
 * total energy  :   -82.9707258 Eh     change       -0.2082150E-03 Eh
 * total energy  :   -82.9708664 Eh     change       -0.1406413E-03 Eh
 * total energy  :   -82.9709910 Eh     change       -0.1245550E-03 Eh
 * total energy  :   -82.9715792 Eh     change       -0.8674309E-05 Eh
 * total energy  :   -82.9715874 Eh     change       -0.8170177E-05 Eh
 * total energy  :   -82.9715964 Eh     change       -0.9061740E-05 Eh
 * total energy  :   -82.9716037 Eh     change       -0.7274115E-05 Eh
 * total energy  :   -82.9716102 Eh     change       -0.6511086E-05 Eh
 * total energy  :   -82.9716108 Eh     change       -0.5389391E-06 Eh
 * total energy  :   -82.9716171 Eh     change       -0.6377573E-05 Eh
 * total energy  :   -82.9716208 Eh     change       -0.3710458E-05 Eh
 * total energy  :   -82.9716229 Eh     change       -0.2076075E-05 Eh
   *** GEOMETRY OPTIMIZATION CONVERGED AFTER 41 ITERATIONS ***

 final structure:
================
42
 xtb: 6.5.1 (579679a)
C            6.51553486600011       -0.39084594530789        2.11628553031243
O            5.39321944486738        0.37833750470017        1.70105013414880
C            4.41956348998263       -0.30005086806817        1.05290402590979
O            4.52278826439284       -1.50145036702862        0.84174850691186
C            3.27636648840967        0.51220143407735        0.64921045487927
N            2.30253982047330       -0.22637218706333        0.00940293041873
C            1.22702710055296        0.32755153935510       -0.40543845332398
C            0.18579204052340       -0.48525145413684       -1.14342707955361
C            0.49560723279932       -1.97623687972267       -1.00130579296562
C            0.13675197249927       -0.04824377217704       -2.61268014468407
N           -1.12284460806015       -0.19597695757192       -0.50195639940081
C           -2.28943719715998       -0.66117452543551       -0.86972812953206
O           -2.36498788998608       -1.47355199220797       -1.88468462016918
C           -3.60711696353725       -2.01292749025687       -2.36027219821575
C           -3.44282040436444       -0.23861015127947       -0.11276957157549
N           -4.70261709853618       -0.55059714749908       -0.26075496829817
N           -5.38442087427831        0.10596079739404        0.69660718483825
C           -4.51290458016093        0.79005870004280        1.38748783416938
C           -4.76681866006573        1.67088952918082        2.54309025035712
O           -3.27023974634034        0.61053217575777        0.92289007435037
N            0.98712385510468        1.67975222739357       -0.25035379551472
C            1.86936685445993        2.53785802186823        0.36849307837356
O            1.58545582133352        3.72426085244917        0.47483553992334
C            3.15248562544813        1.91036289502364        0.87424625328074
O            3.98572314810065        2.64031818663061        1.43355917847907
H            6.20752729587451       -1.17465719584240        2.81499345372649
H            7.00360639176822       -0.85717086557624        1.25497828782424
H            7.20602331813109        0.29291736374195        2.60854517645294
H            0.44198224464260       -2.26671920752968        0.04677005064403
H            1.50691398588795       -2.15696024943818       -1.36454452871636
H           -0.20536549205145       -2.57368088072485       -1.57754552983006
H           -0.53472972953061       -0.68082902704661       -3.18698766257543
H            1.13834909972758       -0.12552683565060       -3.03400975450238
H           -0.20096433039427        0.98360781802034       -2.68402099961956
H           -1.12242867616878        0.41900517783813        0.30266052817233
H           -3.34600292042403       -2.63349998804062       -3.21533770104508
H           -4.07939298991081       -2.61030966709316       -1.57910721353007
H           -4.27485073448975       -1.20390964808964       -2.65948740633698
H           -4.20937073878457        1.31357661424239        3.41012033534889
H           -4.42449454817537        2.68205565592466        2.31890029572425
H           -5.83091637817207        1.68340925517562        2.76812544701175
H            0.13297719962069        2.08189555396442       -0.59252160186362

          :  Hamiltonian                  GFN1-xTB          :
         :: total energy             -82.971622923856 Eh    ::
         :: gradient norm              0.000579842977 Eh/a0 ::
         :: HOMO-LUMO gap              0.213399629920 eV    ::
         :: SCC energy               -83.747661945548 Eh    ::
         :: -> Gsolv                  -0.104053935342 Eh    ::
         :: repulsion energy           0.801396294331 Eh    ::

    * Orbital Energies and Occupations

         #    Occupation            Energy/Eh            Energy/eV
      -------------------------------------------------------------
         1        2.0000           -0.8979575             -24.4347
       ...           ...                  ...                  ...
        55        2.0000           -0.5076477             -13.8138
        56        2.0000           -0.5028079             -13.6821
        57        2.0000           -0.4982893             -13.5591
        58        2.0000           -0.4919759             -13.3873
        59        2.0000           -0.4835919             -13.1592
        60        2.0000           -0.4797923             -13.0558
        61        2.0000           -0.4699539             -12.7881
        62        2.0000           -0.4670778             -12.7098
        63        2.0000           -0.4520425             -12.3007
        64        2.0000           -0.4437896             -12.0761
        65        2.0000           -0.4299242             -11.6988
        66        2.0000           -0.3889928             -10.5850
        67        1.9683           -0.3768423             -10.2544 (HOMO)
        68        0.0317           -0.3690000             -10.0410 (LUMO)
        69                         -0.2843891              -7.7386
        70                         -0.2790094              -7.5922
        71                         -0.2545071              -6.9255
        72                         -0.2493638              -6.7855
        73                         -0.2056753              -5.5967
        74                         -0.1586181              -4.3162
        75                         -0.1522039              -4.1417
        76                         -0.1359138              -3.6984
        77                         -0.1340080              -3.6465
        78                         -0.1238438              -3.3700
       ...                                ...                  ...
       134                          0.7543661              20.5273
      -------------------------------------------------------------
                  HL-Gap            0.0078423 Eh            0.2134 eV

Wiberg/Mayer (AO) data.
largest (>0.10) Wiberg bond orders for each atom

     #   Z sym  total        # sym  WBO       # sym  WBO       # sym  WBO
 ---------------------------------------------------------------------------
     1   6 C    3.894 --    28 H    0.987    26 H    0.980    27 H    0.980
                             2 O    0.920
     2   8 O    2.168 --     3 C    1.060     1 C    0.920     4 O    0.113
     3   6 C    3.850 --     4 O    1.584     5 C    1.099     2 O    1.060
     4   8 O    1.855 --     3 C    1.584     2 O    0.113
     5   6 C    3.895 --    24 C    1.260     6 N    1.166     3 C    1.099
                            25 O    0.124
     6   7 N    3.036 --     7 C    1.628     5 C    1.166
     7   6 C    3.924 --     6 N    1.628    21 N    1.089     8 C    0.978
     8   6 C    3.893 --     9 C    0.989    10 C    0.980     7 C    0.978
                            11 N    0.874
     9   6 C    3.983 --     8 C    0.989    31 H    0.984    29 H    0.984
                            30 H    0.979
    10   6 C    3.982 --    34 H    0.983    33 H    0.982    32 H    0.981
                             8 C    0.980
    11   7 N    3.471 --    12 C    1.454     8 C    0.874    35 H    0.874
                            13 O    0.108
    12   6 C    3.880 --    11 N    1.454    13 O    1.188    15 C    1.090
    13   8 O    2.270 --    12 C    1.188    14 C    0.864    11 N    0.108
    14   6 C    3.831 --    36 H    0.980    38 H    0.974    37 H    0.974
                            13 O    0.864
    15   6 C    3.881 --    16 N    1.543    12 C    1.090    20 O    1.046
    16   7 N    3.014 --    15 C    1.543    17 N    1.248
    17   7 N    2.986 --    18 C    1.553    16 N    1.248
    18   6 C    3.847 --    17 N    1.553    20 O    1.086    19 C    1.039
    19   6 C    3.979 --    18 C    1.039    41 H    0.980    39 H    0.955
                            40 H    0.955
    20   8 O    2.328 --    18 C    1.086    15 C    1.046
    21   7 N    3.412 --    22 C    1.143     7 C    1.089    42 H    0.896
                            23 O    0.133
    22   6 C    3.871 --    23 O    1.599    21 N    1.143    24 C    0.962
    23   8 O    1.875 --    22 C    1.599    21 N    0.133
    24   6 C    3.937 --    25 O    1.537     5 C    1.260    22 C    0.962
    25   8 O    1.833 --    24 C    1.537     5 C    0.124
    26   1 H    1.013 --     1 C    0.980
    27   1 H    1.013 --     1 C    0.980
    28   1 H    1.015 --     1 C    0.987
    29   1 H    1.005 --     9 C    0.984
    30   1 H    1.011 --     9 C    0.979
    31   1 H    1.004 --     9 C    0.984
    32   1 H    1.003 --    10 C    0.981
    33   1 H    1.000 --    10 C    0.982
    34   1 H    0.999 --    10 C    0.983
    35   1 H    0.925 --    11 N    0.874
    36   1 H    1.003 --    14 C    0.980
    37   1 H    1.009 --    14 C    0.974
    38   1 H    1.008 --    14 C    0.974
    39   1 H    0.992 --    19 C    0.955
    40   1 H    0.992 --    19 C    0.955
    41   1 H    0.995 --    19 C    0.980
    42   1 H    0.940 --    21 N    0.896
 ---------------------------------------------------------------------------

           -------------------------------------------------
          | TOTAL ENERGY              -82.971622923856 Eh   |
          | GRADIENT NORM               0.000579842977 Eh/α |
          | HOMO-LUMO GAP               0.213399629920 eV   |
           -------------------------------------------------

 * finished run on 2023/06/21 at 17:18:08.494
