   * xtb version 6.5.1 (579679a) compiled by 'ehlert@majestix' on 2022-07-11
          program call               : /lustre/hpc/kemi/ree/PhD/git/ReactivityQM/dep/xtb-6.5.1/bin/xtb --gfn 1 /lustre/hpc/kemi/ree/PhD/git/ReactivityQM/calculations/R03/reac02prodN15/conf17/R03_reac02prodN15_conf17_gfn1.xyz --opt --vfukui --chrg 1 --uhf 0 --alpb DMSO

   ID    Z sym.   atoms
    1    6 C      1, 3, 5, 7-10, 12, 14, 17, 18, 21, 22, 24, 25
    2    8 O      2, 4, 13, 19, 23, 26
    3    7 N      6, 11, 15, 16, 20
    4    1 H      27-46

      * Solvation model:               ALPB
        Solvent                        DMSO
        Solvent mass                       7.8130E+01 g/mol
          :  Hamiltonian                  GFN1-xTB          :
 * total energy  :   -86.2757565 Eh     change       -0.7536016E-10 Eh
 * total energy  :   -86.2908109 Eh     change       -0.1505435E-01 Eh
 * total energy  :   -86.2981300 Eh     change       -0.7319162E-02 Eh
 * total energy  :   -86.2999514 Eh     change       -0.1821413E-02 Eh
 * total energy  :   -86.3012574 Eh     change       -0.1305968E-02 Eh
 * total energy  :   -86.3021237 Eh     change       -0.8663407E-03 Eh
 * total energy  :   -86.3029614 Eh     change       -0.8376368E-03 Eh
 * total energy  :   -86.3037066 Eh     change       -0.7452489E-03 Eh
 * total energy  :   -86.3041842 Eh     change       -0.4776156E-03 Eh
 * total energy  :   -86.3044268 Eh     change       -0.2426049E-03 Eh
 * total energy  :   -86.3094341 Eh     change       -0.1336220E-04 Eh
 * total energy  :   -86.3094452 Eh     change       -0.1112618E-04 Eh
 * total energy  :   -86.3094514 Eh     change       -0.6189184E-05 Eh
 * total energy  :   -86.3094574 Eh     change       -0.5965802E-05 Eh
 * total energy  :   -86.3094656 Eh     change       -0.8186283E-05 Eh
 * total energy  :   -86.3094746 Eh     change       -0.9051327E-05 Eh
 * total energy  :   -86.3094813 Eh     change       -0.6644290E-05 Eh
 * total energy  :   -86.3094877 Eh     change       -0.6477723E-05 Eh
 * total energy  :   -86.3094913 Eh     change       -0.3568272E-05 Eh
   *** GEOMETRY OPTIMIZATION CONVERGED AFTER 64 ITERATIONS ***

 final structure:
================
46
 xtb: 6.5.1 (579679a)
C           -4.64844669973912        2.12069618852936       -2.88473367452914
O           -3.60360961151378        1.59434244871918       -2.04508633502740
C           -3.92722191824957        0.64949964368353       -1.19712016297233
O           -5.01251159671573        0.15515158904819       -1.05580753936940
C           -2.72004550362776        0.19841378834571       -0.38482167098214
N           -1.62338165522991       -0.04218282029602       -1.01375668573340
C           -0.49224858316719       -0.45636793667877       -0.37436463822743
C            0.66169999320905       -0.71849495334214       -1.30715692111128
C            0.63632131744632       -2.23945418002726       -1.57448774750684
C            0.48906865496508        0.05038013779959       -2.62561572033352
N            1.90565862075259       -0.30279157263473       -0.67309112291245
C            3.13189173005964       -0.56697914351844       -1.21461035560522
O            3.33428764357737       -1.28078319933991       -2.17488278665737
C            4.21165331835290        0.10149321551720       -0.45887389363418
N            5.48292266812582        0.10363645136945       -0.71025618510235
N            6.07427979302807        0.85148096413382        0.25897323713041
C            5.12944733666408        1.26211527572368        1.04714346814789
C            5.25444302488805        2.10724590848163        2.25321781141834
O            3.92310626397420        0.82309628545025        0.64825788647126
N           -0.46487765249969       -0.63979902311455        0.93273737243085
C            0.69698373014839       -1.07133226529233        1.71664608989884
C           -1.57104585464830       -0.23057683309005        1.77107415971946
O           -1.41258819877640       -0.10282964003707        2.94482480314740
C           -2.89447128841834       -0.11911615925534        1.05935191112992
C           -3.46658375848933       -1.58012735464693        1.07749466623404
O           -3.75734321625216        0.76062908764073        1.68755182920346
H           -5.20159044025801        1.29987605290055       -3.34349278466134
H           -4.15345869190233        2.72663960625858       -3.63956258625457
H           -5.32332695719057        2.73238973590166       -2.28375460895444
H            1.35361043500412       -2.47529548570227       -2.35826483971015
H            0.89237305832424       -2.79223817535771       -0.67415563120270
H           -0.35967165769341       -2.53053328812846       -1.90318601199168
H            0.42266956796263        1.11824663303346       -2.42862414336478
H            1.35188638129478       -0.14747935711179       -3.25958133592712
H           -0.41333670749241       -0.27723523048522       -3.13676791605662
H            1.85307411991224        0.47367401658056       -0.03546497189046
H            4.84948044974600        1.58045714848234        3.11668103658476
H            6.30054211248953        2.34896949651094        2.42757493331921
H            4.68137852674287        3.02491174358650        2.12197754445155
H            1.35647613020397       -1.67285123104241        1.10327805331545
H            1.21648906413990       -0.18940101181620        2.08856324020003
H            0.32328638509433       -1.65066281394388        2.55926487466135
H           -3.53168481535458       -1.89868509600626        2.11535414649035
H           -2.82364849857755       -2.25591325101022        0.52048637101815
H           -4.46057063906169       -1.55223283784701        0.63522999271756
H           -3.67136838123830        0.71001744205032        2.65046784202628

          :  Hamiltonian                  GFN1-xTB          :
         :: total energy             -86.309491304037 Eh    ::
         :: gradient norm              0.000530183927 Eh/a0 ::
         :: HOMO-LUMO gap              1.061943710716 eV    ::
         :: SCC energy               -87.140213974670 Eh    ::
         :: -> Gsolv                  -0.116684862160 Eh    ::
         :: repulsion energy           0.860601987488 Eh    ::

    * Orbital Energies and Occupations

         #    Occupation            Energy/Eh            Energy/eV
      -------------------------------------------------------------
         1        2.0000           -0.8988305             -24.4584
       ...           ...                  ...                  ...
        58        2.0000           -0.5349876             -14.5578
        59        2.0000           -0.5323925             -14.4871
        60        2.0000           -0.5290463             -14.3961
        61        2.0000           -0.5235464             -14.2464
        62        2.0000           -0.5231781             -14.2364
        63        2.0000           -0.5155058             -14.0276
        64        2.0000           -0.5043497             -13.7241
        65        2.0000           -0.4933623             -13.4251
        66        2.0000           -0.4911491             -13.3648
        67        2.0000           -0.4827165             -13.1354
        68        2.0000           -0.4775781             -12.9956
        69        2.0000           -0.4631639             -12.6033
        70        2.0000           -0.4623932             -12.5824 (HOMO)
        71                         -0.4233675             -11.5204 (LUMO)
        72                         -0.3515611              -9.5665
        73                         -0.3273496              -8.9076
        74                         -0.3108291              -8.4581
        75                         -0.2773788              -7.5479
        76                         -0.2654977              -7.2246
        77                         -0.2139715              -5.8225
        78                         -0.1671534              -4.5485
        79                         -0.1551043              -4.2206
        80                         -0.1536986              -4.1824
        81                         -0.1476076              -4.0166
       ...                                ...                  ...
       144                          0.7250545              19.7297
      -------------------------------------------------------------
                  HL-Gap            0.0390257 Eh            1.0619 eV

Wiberg/Mayer (AO) data.
largest (>0.10) Wiberg bond orders for each atom

     #   Z sym  total        # sym  WBO       # sym  WBO       # sym  WBO
 ---------------------------------------------------------------------------
     1   6 C    3.840 --    28 H    0.983    27 H    0.978    29 H    0.976
                             2 O    0.867
     2   8 O    2.243 --     3 C    1.175     1 C    0.867     4 O    0.156
     3   6 C    3.864 --     4 O    1.693     2 O    1.175     5 C    0.928
     4   8 O    1.983 --     3 C    1.693     2 O    0.156
     5   6 C    3.906 --     6 N    1.649    24 C    1.002     3 C    0.928
     6   7 N    3.052 --     5 C    1.649     7 C    1.191
     7   6 C    3.886 --    20 N    1.443     6 N    1.191     8 C    1.003
     8   6 C    3.931 --     7 C    1.003    10 C    0.976    11 N    0.942
                             9 C    0.935
     9   6 C    3.972 --    32 H    0.983    31 H    0.980    30 H    0.964
                             8 C    0.935
    10   6 C    3.979 --    33 H    0.984    35 H    0.983    34 H    0.978
                             8 C    0.976
    11   7 N    3.303 --    12 C    1.192     8 C    0.942    36 H    0.890
                            13 O    0.160
    12   6 C    3.907 --    13 O    1.622    11 N    1.192    14 C    1.003
    13   8 O    1.933 --    12 C    1.622    11 N    0.160
    14   6 C    3.876 --    15 N    1.617    19 O    1.043    12 C    1.003
    15   7 N    3.005 --    14 C    1.617    16 N    1.206
    16   7 N    2.984 --    17 C    1.603    15 N    1.206
    17   6 C    3.864 --    16 N    1.603    19 O    1.071    18 C    1.033
    18   6 C    3.984 --    17 C    1.033    38 H    0.982    37 H    0.962
                            39 H    0.961
    19   8 O    2.314 --    17 C    1.071    14 C    1.043
    20   7 N    3.567 --     7 C    1.443    22 C    0.958    21 C    0.904
    21   6 C    3.880 --    40 H    0.974    42 H    0.967    41 H    0.959
                            20 N    0.904
    22   6 C    3.854 --    23 O    1.796    20 N    0.958    24 C    0.955
    23   8 O    2.056 --    22 C    1.796
    24   6 C    3.941 --    26 O    1.003     5 C    1.002    22 C    0.955
                            25 C    0.853
    25   6 C    3.959 --    44 H    0.985    43 H    0.971    45 H    0.970
                            24 C    0.853
    26   8 O    1.923 --    24 C    1.003    46 H    0.817
    27   1 H    1.002 --     1 C    0.978
    28   1 H    1.006 --     1 C    0.983
    29   1 H    1.000 --     1 C    0.976
    30   1 H    1.005 --     9 C    0.964
    31   1 H    0.997 --     9 C    0.980
    32   1 H    0.997 --     9 C    0.983
    33   1 H    0.999 --    10 C    0.984
    34   1 H    1.001 --    10 C    0.978
    35   1 H    1.007 --    10 C    0.983
    36   1 H    0.933 --    11 N    0.890
    37   1 H    0.996 --    18 C    0.962
    38   1 H    0.997 --    18 C    0.982
    39   1 H    0.996 --    18 C    0.961
    40   1 H    1.004 --    21 C    0.974
    41   1 H    0.993 --    21 C    0.959
    42   1 H    0.993 --    21 C    0.967
    43   1 H    0.992 --    25 C    0.971
    44   1 H    0.993 --    25 C    0.985
    45   1 H    1.003 --    25 C    0.970
    46   1 H    0.835 --    26 O    0.817
 ---------------------------------------------------------------------------

           -------------------------------------------------
          | TOTAL ENERGY              -86.309491304037 Eh   |
          | GRADIENT NORM               0.000530183927 Eh/α |
          | HOMO-LUMO GAP               1.061943710716 eV   |
           -------------------------------------------------

 * finished run on 2023/06/20 at 15:52:03.215
