   * xtb version 6.5.1 (579679a) compiled by 'ehlert@majestix' on 2022-07-11
          program call               : /lustre/hpc/kemi/ree/PhD/git/ReactivityQM/dep/xtb-6.5.1/bin/xtb --gfn 1 /lustre/hpc/kemi/ree/PhD/git/ReactivityQM/calculations/R02oxygendeprot/reac01prodE14/conf16/R02oxygendeprot_reac01prodE14_conf16_gfn1.xyz --opt --vfukui --chrg -2 --uhf 0 --alpb DMSO

   ID    Z sym.   atoms
    1    6 C      1, 3, 5, 7-10, 12, 14, 17, 18, 21, 23, 24
    2    8 O      2, 4, 13, 19, 22, 25
    3    7 N      6, 11, 15, 16, 20
    4    1 H      26-42

      * Solvation model:               ALPB
        Solvent                        DMSO
        Solvent mass                       7.8130E+01 g/mol
          :  Hamiltonian                  GFN1-xTB          :
 * total energy  :   -83.5870811 Eh     change       -0.1688250E-10 Eh
 * total energy  :   -83.6023861 Eh     change       -0.1530499E-01 Eh
 * total energy  :   -83.6080885 Eh     change       -0.5702463E-02 Eh
 * total energy  :   -83.6094386 Eh     change       -0.1350054E-02 Eh
 * total energy  :   -83.6105393 Eh     change       -0.1100680E-02 Eh
 * total energy  :   -83.6111340 Eh     change       -0.5947485E-03 Eh
 * total energy  :   -83.6115491 Eh     change       -0.4150517E-03 Eh
 * total energy  :   -83.6118679 Eh     change       -0.3188244E-03 Eh
 * total energy  :   -83.6121569 Eh     change       -0.2890385E-03 Eh
 * total energy  :   -83.6124289 Eh     change       -0.2720136E-03 Eh
 * total energy  :   -83.6138946 Eh     change       -0.2144666E-04 Eh
 * total energy  :   -83.6139161 Eh     change       -0.2146325E-04 Eh
 * total energy  :   -83.6139364 Eh     change       -0.2034361E-04 Eh
 * total energy  :   -83.6139574 Eh     change       -0.2094090E-04 Eh
 * total energy  :   -83.6139749 Eh     change       -0.1754187E-04 Eh
 * total energy  :   -83.6139893 Eh     change       -0.1439046E-04 Eh
 * total energy  :   -83.6139990 Eh     change       -0.9634785E-05 Eh
 * total energy  :   -83.6140068 Eh     change       -0.7825787E-05 Eh
 * total energy  :   -83.6140117 Eh     change       -0.4927251E-05 Eh
   *** GEOMETRY OPTIMIZATION CONVERGED AFTER 40 ITERATIONS ***

 final structure:
================
42
 xtb: 6.5.1 (579679a)
C           -5.26814737216172        0.66994242852340        2.20882948228883
O           -4.05280674551550        0.40089622923405        1.54845843493334
C           -4.09162117877823        0.56778001975152        0.13813144994823
O           -5.18113203207002        0.91005647383364       -0.36697081818027
C           -2.87647557520263        0.27755071273165       -0.48687380384258
N           -1.82032307717155       -0.06391541446701        0.33038009670351
C           -0.73775944713016       -0.55245807951004       -0.15133210622158
C            0.45440485440087       -0.85229630400176        0.73304695521214
C            0.27119297837496       -0.15869693842726        2.08727599857894
C            0.62917775574497       -2.36794600021590        0.92629011893429
N            1.64234906436058       -0.31303337891179        0.04801831660619
C            2.88995539099203       -0.33612313356276        0.54591029359344
O            3.22365647134831       -0.80785788289749        1.62863460770358
C            3.84385417169743        0.31530604227192       -0.38366893240211
N            3.53955073802030        0.89841040474994       -1.50925790209417
N            4.70603668651478        1.37856222315336       -2.03196779742197
C            5.64420671531932        1.06030818160426       -1.19757979453295
C            7.09097153831847        1.35034864821844       -1.31328371348124
O            5.17067615314572        0.38969882643834       -0.13367433532685
N           -0.60424861837195       -0.89697642428367       -1.51642011798963
C           -1.65304389061009       -0.69669584633142       -2.37929039755923
O           -1.72920520540421       -1.37676435186676       -3.40864783263142
C           -2.57318299061360        0.51086263315733       -2.00109407342832
C           -3.87091033112356        0.36014931424752       -2.85848688020264
O           -1.89967550547831        1.64290340911923       -2.26178521346352
H           -5.10783771146849        0.49637386426920        3.27486290546919
H           -5.58884070005292        1.71017319306759        2.06144230235490
H           -6.07357358227419        0.01070869824040        1.85821795590759
H           -0.67274807486082       -0.48351915786346        2.52475401217168
H            1.08318845004681       -0.40936777319939        2.76627741953909
H            0.23781506277570        0.92252597559709        1.95327138726338
H           -0.28058732805203       -2.78460579861812        1.35638825506236
H            1.46305473979556       -2.57594521462716        1.59457948140419
H            0.82062176729404       -2.84973655326464       -0.03097208653045
H            1.51538607879780        0.05586007796888       -0.88760935874331
H            7.27206448779768        1.96065070055495       -2.19458276222559
H            7.44026977273852        1.87643727459236       -0.42554945967658
H            7.65332964815213        0.42034445386116       -1.39602488506949
H            0.01261712780414       -1.65991647575815       -1.74080064390475
H           -4.43275834498701       -0.53331650678898       -2.58519375068896
H           -3.58921390632615        0.29474254417100       -3.91111264321472
H           -4.50028603579717        1.23857990523739       -2.72535816482758

          :  Hamiltonian                  GFN1-xTB          :
         :: total energy             -83.614011706490 Eh    ::
         :: gradient norm              0.000727657244 Eh/a0 ::
         :: HOMO-LUMO gap              0.161990445589 eV    ::
         :: SCC energy               -84.350234292644 Eh    ::
         :: -> Gsolv                  -0.299930529597 Eh    ::
         :: repulsion energy           0.761857336455 Eh    ::

    * Orbital Energies and Occupations

         #    Occupation            Energy/Eh            Energy/eV
      -------------------------------------------------------------
         1        2.0000           -0.8471442             -23.0520
       ...           ...                  ...                  ...
        56        2.0000           -0.4434631             -12.0672
        57        2.0000           -0.4418864             -12.0243
        58        2.0000           -0.4320839             -11.7576
        59        2.0000           -0.4254956             -11.5783
        60        2.0000           -0.4216792             -11.4745
        61        2.0000           -0.4158355             -11.3155
        62        2.0000           -0.4031405             -10.9700
        63        2.0000           -0.3939755             -10.7206
        64        2.0000           -0.3836367             -10.4393
        65        2.0000           -0.3726629             -10.1407
        66        2.0000           -0.3089077              -8.4058
        67        1.9992           -0.3022418              -8.2244
        68        1.9169           -0.2977770              -8.1029 (HOMO)
        69        0.0839           -0.2918240              -7.9409 (LUMO)
        70                         -0.2435228              -6.6266
        71                         -0.2146321              -5.8404
        72                         -0.1788066              -4.8656
        73                         -0.1747905              -4.7563
        74                         -0.1374503              -3.7402
        75                         -0.1139148              -3.0998
        76                         -0.1071011              -2.9144
        77                         -0.1046511              -2.8477
        78                         -0.0990823              -2.6962
        79                         -0.0801192              -2.1802
       ...                                ...                  ...
       134                          0.7252619              19.7354
      -------------------------------------------------------------
                  HL-Gap            0.0059530 Eh            0.1620 eV

Wiberg/Mayer (AO) data.
largest (>0.10) Wiberg bond orders for each atom

     #   Z sym  total        # sym  WBO       # sym  WBO       # sym  WBO
 ---------------------------------------------------------------------------
     1   6 C    3.924 --    26 H    0.986    27 H    0.980    28 H    0.980
                             2 O    0.958
     2   8 O    2.053 --     1 C    0.958     3 C    0.916
     3   6 C    3.851 --     4 O    1.443     5 C    1.350     2 O    0.916
     4   8 O    1.775 --     3 C    1.443     5 C    0.110
     5   6 C    3.834 --     3 C    1.350     6 N    1.182    23 C    0.911
                             4 O    0.110
     6   7 N    3.052 --     7 C    1.629     5 C    1.182
     7   6 C    3.902 --     6 N    1.629    20 N    1.000     8 C    0.978
     8   6 C    3.925 --     9 C    0.995    10 C    0.982     7 C    0.978
                            11 N    0.905
     9   6 C    3.994 --     8 C    0.995    31 H    0.986    30 H    0.984
                            29 H    0.984
    10   6 C    3.990 --    32 H    0.987    34 H    0.984    33 H    0.983
                             8 C    0.982
    11   7 N    3.346 --    12 C    1.271     8 C    0.905    35 H    0.898
                            13 O    0.177
    12   6 C    3.893 --    13 O    1.546    11 N    1.271    14 C    1.000
    13   8 O    1.853 --    12 C    1.546    11 N    0.177
    14   6 C    3.830 --    15 N    1.583    19 O    1.047    12 C    1.000
    15   7 N    2.964 --    14 C    1.583    16 N    1.189
    16   7 N    2.980 --    17 C    1.618    15 N    1.189
    17   6 C    3.864 --    16 N    1.618    19 O    1.075    18 C    1.029
    18   6 C    3.989 --    17 C    1.029    36 H    0.983    37 H    0.968
                            38 H    0.964
    19   8 O    2.299 --    17 C    1.075    14 C    1.047
    20   7 N    3.340 --    21 C    1.165     7 C    1.000    39 H    0.913
                            22 O    0.115
    21   6 C    3.808 --    22 O    1.563    20 N    1.165    23 C    0.877
    22   8 O    1.831 --    21 C    1.563    20 N    0.115
    23   6 C    3.960 --    25 O    1.124    24 C    0.951     5 C    0.911
                            21 C    0.877
    24   6 C    3.990 --    40 H    0.990    41 H    0.987    42 H    0.987
                            23 C    0.951
    25   8 O    1.393 --    23 C    1.124
    26   1 H    1.021 --     1 C    0.986
    27   1 H    1.022 --     1 C    0.980
    28   1 H    1.023 --     1 C    0.980
    29   1 H    1.022 --     9 C    0.984
    30   1 H    1.015 --     9 C    0.984
    31   1 H    1.013 --     9 C    0.986
    32   1 H    1.007 --    10 C    0.987
    33   1 H    1.012 --    10 C    0.983
    34   1 H    1.006 --    10 C    0.984
    35   1 H    0.968 --    11 N    0.898
    36   1 H    1.000 --    18 C    0.983
    37   1 H    0.998 --    18 C    0.968
    38   1 H    0.998 --    18 C    0.964
    39   1 H    0.966 --    20 N    0.913
    40   1 H    1.018 --    24 C    0.990
    41   1 H    1.026 --    24 C    0.987
    42   1 H    1.036 --    24 C    0.987
 ---------------------------------------------------------------------------

           -------------------------------------------------
          | TOTAL ENERGY              -83.614011706490 Eh   |
          | GRADIENT NORM               0.000727657244 Eh/α |
          | HOMO-LUMO GAP               0.161990445589 eV   |
           -------------------------------------------------

 * finished run on 2023/06/21 at 17:16:25.960
