   * xtb version 6.5.1 (579679a) compiled by 'ehlert@majestix' on 2022-07-11
          program call               : /lustre/hpc/kemi/ree/PhD/git/ReactivityQM/dep/xtb-6.5.1/bin/xtb --gfn 1 /lustre/hpc/kemi/ree/PhD/git/ReactivityQM/calculations/RaltegravirCLI/reac01prodE06/conf06/RaltegravirCLI_reac01prodE06_conf06_gfn1.xyz --opt --vfukui --chrg -1 --uhf 0 --alpb DMSO

   ID    Z sym.   atoms
    1    6 C      1, 3, 5, 8, 9
    2    8 O      2, 10
    3   17 Cl     4
    4    7 N      6, 7
    5    1 H      11-16

      * Solvation model:               ALPB
        Solvent                        DMSO
        Solvent mass                       7.8130E+01 g/mol
          :  Hamiltonian                  GFN1-xTB          :
 * total energy  :   -34.1167940 Eh     change       -0.6750156E-12 Eh
 * total energy  :   -34.1229903 Eh     change       -0.6196303E-02 Eh
 * total energy  :   -34.1254495 Eh     change       -0.2459191E-02 Eh
 * total energy  :   -34.1260292 Eh     change       -0.5797123E-03 Eh
 * total energy  :   -34.1264526 Eh     change       -0.4234078E-03 Eh
 * total energy  :   -34.1266074 Eh     change       -0.1547842E-03 Eh
 * total energy  :   -34.1267243 Eh     change       -0.1168776E-03 Eh
 * total energy  :   -34.1268400 Eh     change       -0.1157266E-03 Eh
 * total energy  :   -34.1269563 Eh     change       -0.1163373E-03 Eh
 * total energy  :   -34.1270671 Eh     change       -0.1108119E-03 Eh
 * total energy  :   -34.1274569 Eh     change       -0.6343656E-04 Eh
 * total energy  :   -34.1275090 Eh     change       -0.5207101E-04 Eh
 * total energy  :   -34.1275392 Eh     change       -0.3018785E-04 Eh
 * total energy  :   -34.1275669 Eh     change       -0.2769968E-04 Eh
 * total energy  :   -34.1276012 Eh     change       -0.3433409E-04 Eh
 * total energy  :   -34.1276172 Eh     change       -0.1598693E-04 Eh
 * total energy  :   -34.1276313 Eh     change       -0.1403208E-04 Eh
 * total energy  :   -34.1276371 Eh     change       -0.5849415E-05 Eh
 * total energy  :   -34.1276420 Eh     change       -0.4877738E-05 Eh
   *** GEOMETRY OPTIMIZATION CONVERGED AFTER 23 ITERATIONS ***

 final structure:
================
16
 xtb: 6.5.1 (579679a)
C           -3.51635998442514       -0.11503539473345        0.21640475398596
O           -2.32580865121447       -0.88314575095142        0.27261150816745
C           -1.26350995437045       -0.33071268838242       -0.44780470378436
Cl          -1.28856808978070       -0.82238929755233       -2.19350830479105
C           -0.01804948112979       -0.28725625010084        0.16307603391404
N            0.23067432017026       -0.19606505261880        1.47747694378544
N            1.57708117617715        0.10212175818753        1.59317998543210
C            2.06256680840772        0.17663577783026        0.40623894922802
C            3.46377525513370        0.48383555222572        0.01466030389055
O            1.12806846287346       -0.05277603176036       -0.56599650909114
H           -4.25667522651227       -0.60856684644837        0.84858565051361
H           -3.89999002822362       -0.06137974215588       -0.81011207747880
H           -3.34780959005699        0.90626949968117        0.58130677216998
H            3.50991792461502        1.42124360019384       -0.54177412250797
H            3.86678181779593       -0.30461485105354       -0.62184364701041
H            4.07790624054029        0.57183771763886        0.90838046357645

          :  Hamiltonian                  GFN1-xTB          :
         :: total energy             -34.127641986095 Eh    ::
         :: gradient norm              0.000564161888 Eh/a0 ::
         :: HOMO-LUMO gap              2.898659525051 eV    ::
         :: SCC energy               -34.377648265500 Eh    ::
         :: -> Gsolv                  -0.095258830967 Eh    ::
         :: repulsion energy           0.256840156370 Eh    ::

    * Orbital Energies and Occupations

         #    Occupation            Energy/Eh            Energy/eV
      -------------------------------------------------------------
         1        2.0000           -0.8497063             -23.1217
       ...           ...                  ...                  ...
        16        2.0000           -0.5124094             -13.9434
        17        2.0000           -0.5055760             -13.7574
        18        2.0000           -0.4955504             -13.4846
        19        2.0000           -0.4771209             -12.9831
        20        2.0000           -0.4736318             -12.8882
        21        2.0000           -0.4509846             -12.2719
        22        2.0000           -0.4338544             -11.8058
        23        2.0000           -0.4300495             -11.7022
        24        2.0000           -0.4254771             -11.5778
        25        2.0000           -0.4064539             -11.0602
        26        2.0000           -0.3951070             -10.7514
        27        2.0000           -0.3813487             -10.3770
        28        2.0000           -0.3029986              -8.2450 (HOMO)
        29                         -0.1964748              -5.3464 (LUMO)
        30                         -0.1743477              -4.7442
        31                         -0.1346362              -3.6636
        32                         -0.1196363              -3.2555
        33                         -0.1077998              -2.9334
        34                         -0.0529569              -1.4410
        35                         -0.0526523              -1.4327
        36                         -0.0518605              -1.4112
        37                         -0.0500226              -1.3612
        38                          0.0133625               0.3636
        39                          0.0186929               0.5087
       ...                                ...                  ...
        57                          0.6395994              17.4044
      -------------------------------------------------------------
                  HL-Gap            0.1065238 Eh            2.8987 eV

Wiberg/Mayer (AO) data.
largest (>0.10) Wiberg bond orders for each atom

     #   Z sym  total        # sym  WBO       # sym  WBO       # sym  WBO
 ---------------------------------------------------------------------------
     1   6 C    3.929 --    11 H    0.986    13 H    0.982    12 H    0.981
                             2 O    0.950
     2   8 O    2.046 --     3 C    0.970     1 C    0.950
     3   6 C    3.494 --     5 C    1.389     2 O    0.970     4 Cl   0.835
                             6 N    0.152
     4  17 Cl   0.945 --     3 C    0.835
     5   6 C    3.865 --     3 C    1.389     6 N    1.362    10 O    0.983
     6   7 N    2.845 --     5 C    1.362     7 N    1.144     3 C    0.152
     7   7 N    2.985 --     8 C    1.678     6 N    1.144
     8   6 C    3.887 --     7 N    1.678     9 C    1.019    10 O    1.012
     9   6 C    3.996 --     8 C    1.019    16 H    0.986    15 H    0.975
                            14 H    0.973
    10   8 O    2.207 --     8 C    1.012     5 C    0.983
    11   1 H    1.022 --     1 C    0.986
    12   1 H    1.025 --     1 C    0.981
    13   1 H    1.026 --     1 C    0.982
    14   1 H    1.006 --     9 C    0.973
    15   1 H    1.005 --     9 C    0.975
    16   1 H    1.006 --     9 C    0.986
 ---------------------------------------------------------------------------

           -------------------------------------------------
          | TOTAL ENERGY              -34.127641986095 Eh   |
          | GRADIENT NORM               0.000564161888 Eh/α |
          | HOMO-LUMO GAP               2.898659525051 eV   |
           -------------------------------------------------

 * finished run on 2023/06/20 at 14:54:04.468
