   * xtb version 6.5.1 (579679a) compiled by 'ehlert@majestix' on 2022-07-11
          program call               : /lustre/hpc/kemi/ree/PhD/git/ReactivityQM/dep/xtb-6.5.1/bin/xtb --gfn 1 /lustre/hpc/kemi/ree/PhD/git/ReactivityQM/calculations/R02/reac01prodN17/conf20/R02_reac01prodN17_conf20_gfn1.xyz --opt --vfukui --chrg 1 --uhf 0 --alpb DMSO

   ID    Z sym.   atoms
    1    6 C      1, 3, 5, 7-10, 12, 13, 15, 18, 19, 22, 24
    2    8 O      2, 4, 14, 20, 23, 25
    3    7 N      6, 11, 16, 17, 21
    4    1 H      26-43

      * Solvation model:               ALPB
        Solvent                        DMSO
        Solvent mass                       7.8130E+01 g/mol
          :  Hamiltonian                  GFN1-xTB          :
 * total energy  :   -83.1316420 Eh     change       -0.3507239E-10 Eh
 * total energy  :   -83.1432200 Eh     change       -0.1157799E-01 Eh
 * total energy  :   -83.1472617 Eh     change       -0.4041675E-02 Eh
 * total energy  :   -83.1482873 Eh     change       -0.1025616E-02 Eh
 * total energy  :   -83.1490773 Eh     change       -0.7900404E-03 Eh
 * total energy  :   -83.1495499 Eh     change       -0.4725625E-03 Eh
 * total energy  :   -83.1499375 Eh     change       -0.3876006E-03 Eh
 * total energy  :   -83.1502292 Eh     change       -0.2916808E-03 Eh
 * total energy  :   -83.1504019 Eh     change       -0.1727014E-03 Eh
 * total energy  :   -83.1504990 Eh     change       -0.9707419E-04 Eh
 * total energy  :   -83.1523413 Eh     change       -0.2289237E-04 Eh
 * total energy  :   -83.1523615 Eh     change       -0.2024204E-04 Eh
 * total energy  :   -83.1523817 Eh     change       -0.2016345E-04 Eh
 * total energy  :   -83.1523913 Eh     change       -0.9653794E-05 Eh
 * total energy  :   -83.1524030 Eh     change       -0.1160660E-04 Eh
 * total energy  :   -83.1524081 Eh     change       -0.5187927E-05 Eh
 * total energy  :   -83.1524156 Eh     change       -0.7500812E-05 Eh
 * total energy  :   -83.1524195 Eh     change       -0.3818104E-05 Eh
 * total energy  :   -83.1524242 Eh     change       -0.4741975E-05 Eh
   *** GEOMETRY OPTIMIZATION CONVERGED AFTER 49 ITERATIONS ***

 final structure:
================
43
 xtb: 6.5.1 (579679a)
C           -4.32757622080461        0.27925793579744        2.76910313930732
O           -3.50344285556542        0.20249388264145        1.59835025749109
C           -4.12045819826289        0.37195359457412        0.42897606264848
O           -5.30500431160751        0.57474278235125        0.32110114811389
C           -3.16422560541033        0.28406641145080       -0.71442495647241
N           -1.85557830158285        0.01462596800035       -0.38154932732301
C           -0.95054589195681       -0.05639790845887       -1.29579809676172
C            0.45829395505550       -0.41859250487761       -0.86276643167829
C            1.52647733248706        0.39234042757930       -1.58459845750713
C            0.66237629019297       -1.92120952599402       -1.08443735928053
N            0.44210518086775       -0.14584585202949        0.63285600979144
C            0.68911351753512        1.26177768702230        1.02937917239270
C            1.18996603719060       -1.14017244665387        1.47770883193125
O            0.54272437499175       -1.99799815520818        1.99700509199072
C            2.61450913754286       -0.96651749969898        1.61491069011373
N            3.39046675555431       -1.72915997602381        2.34453825948190
N            4.63518105930437       -1.25763964994723        2.22325704058703
C            4.58105684028138       -0.22387575327475        1.42243030560767
C            5.69153385832352        0.63458565850992        0.97567785725236
O            3.33155508196086        0.00429192330227        1.00863659273435
N           -1.22300451333337        0.10284443925260       -2.61556148926448
C           -2.49828437846443        0.36753988769524       -3.07967815903458
O           -2.74659892010780        0.51355892491756       -4.26114377452905
C           -3.51341836777444        0.45528616791044       -2.02609420866050
O           -4.75192852529690        0.71246657485962       -2.43800645935481
H           -5.12806606993860       -0.46280010669540        2.71342899368518
H           -3.67769314996914        0.07589044865862        3.61737059769314
H           -4.76037759440403        1.27898732461168        2.85291560865803
H            2.50079150042251        0.22364503430964       -1.13397460005978
H            1.29837437582434        1.45562428758101       -1.56858323925944
H            1.57305173013688        0.06246445387637       -2.62117225944649
H            1.66780505700064       -2.21407313309557       -0.78687526842095
H            0.53461472130582       -2.13649230527646       -2.14386791884533
H           -0.06905265861688       -2.49457847614275       -0.51649681123033
H           -0.56806846364347       -0.31552258199245        0.86238574092093
H           -0.05426975856167        1.87038789760826        0.52119787263552
H            1.69023049073940        1.56537953786683        0.75011062653094
H            0.55851545365575        1.32658545104423        2.10684185450052
H            5.43785562495531        1.68126800016458        1.14071877436520
H            5.85314912579083        0.49737803087361       -0.09464954153368
H            6.59992505960133        0.37867258198927        1.51696395057570
H           -0.49173619183314        0.04850117279843       -3.30760217103356
H           -4.76034058357486        0.80399338810499       -3.40858394929603

          :  Hamiltonian                  GFN1-xTB          :
         :: total energy             -83.152424202729 Eh    ::
         :: gradient norm              0.000955559308 Eh/a0 ::
         :: HOMO-LUMO gap              1.792028337819 eV    ::
         :: SCC energy               -83.946554499952 Eh    ::
         :: -> Gsolv                  -0.127346276935 Eh    ::
         :: repulsion energy           0.822900306990 Eh    ::

    * Orbital Energies and Occupations

         #    Occupation            Energy/Eh            Energy/eV
      -------------------------------------------------------------
         1        2.0000           -0.9074544             -24.6931
       ...           ...                  ...                  ...
        55        2.0000           -0.5394348             -14.6788
        56        2.0000           -0.5328707             -14.5002
        57        2.0000           -0.5267949             -14.3348
        58        2.0000           -0.5213039             -14.1854
        59        2.0000           -0.5177240             -14.0880
        60        2.0000           -0.5106131             -13.8945
        61        2.0000           -0.5027269             -13.6799
        62        2.0000           -0.4991197             -13.5817
        63        2.0000           -0.4938942             -13.4395
        64        2.0000           -0.4895696             -13.3219
        65        2.0000           -0.4858396             -13.2204
        66        2.0000           -0.4694769             -12.7751
        67        2.0000           -0.4507001             -12.2642 (HOMO)
        68                         -0.3848443             -10.4721 (LUMO)
        69                         -0.3398887              -9.2488
        70                         -0.3101178              -8.4387
        71                         -0.2933381              -7.9821
        72                         -0.2606319              -7.0922
        73                         -0.2541212              -6.9150
        74                         -0.1760726              -4.7912
        75                         -0.1716837              -4.6718
        76                         -0.1631202              -4.4387
        77                         -0.1575080              -4.2860
        78                         -0.1460010              -3.9729
       ...                                ...                  ...
       136                          0.7386938              20.1009
      -------------------------------------------------------------
                  HL-Gap            0.0658558 Eh            1.7920 eV

Wiberg/Mayer (AO) data.
largest (>0.10) Wiberg bond orders for each atom

     #   Z sym  total        # sym  WBO       # sym  WBO       # sym  WBO
 ---------------------------------------------------------------------------
     1   6 C    3.865 --    27 H    0.986    26 H    0.979    28 H    0.979
                             2 O    0.891
     2   8 O    2.199 --     3 C    1.114     1 C    0.891     4 O    0.137
     3   6 C    3.857 --     4 O    1.670     2 O    1.114     5 C    0.996
     4   8 O    1.936 --     3 C    1.670     2 O    0.137
     5   6 C    3.955 --    24 C    1.505     6 N    1.156     3 C    0.996
     6   7 N    3.094 --     7 C    1.583     5 C    1.156
     7   6 C    3.942 --     6 N    1.583    21 N    1.190     8 C    0.979
     8   6 C    3.896 --     9 C    0.999    10 C    0.982     7 C    0.979
                            11 N    0.856
     9   6 C    3.980 --     8 C    0.999    30 H    0.980    29 H    0.975
                            31 H    0.972
    10   6 C    3.980 --     8 C    0.982    34 H    0.980    33 H    0.977
                            32 H    0.977
    11   7 N    3.587 --    12 C    0.902    13 C    0.864     8 C    0.856
                            35 H    0.823
    12   6 C    3.888 --    38 H    0.980    36 H    0.979    37 H    0.979
                            11 N    0.902
    13   6 C    3.878 --    14 O    1.779    15 C    1.090    11 N    0.864
    14   8 O    2.044 --    13 C    1.779
    15   6 C    3.885 --    16 N    1.526    13 C    1.090    20 O    1.039
    16   7 N    3.019 --    15 C    1.526    17 N    1.285
    17   7 N    2.994 --    18 C    1.523    16 N    1.285
    18   6 C    3.850 --    17 N    1.523    20 O    1.095    19 C    1.042
    19   6 C    3.977 --    18 C    1.042    41 H    0.978    39 H    0.957
                            40 H    0.948
    20   8 O    2.343 --    18 C    1.095    15 C    1.039
    21   7 N    3.468 --     7 C    1.190    22 C    1.114    42 H    0.874
                            23 O    0.131
    22   6 C    3.905 --    23 O    1.609    21 N    1.114    24 C    1.052
    23   8 O    1.931 --    22 C    1.609    21 N    0.131
    24   6 C    3.922 --     5 C    1.505    25 O    1.129    22 C    1.052
    25   8 O    2.106 --    24 C    1.129    43 H    0.801
    26   1 H    1.006 --     1 C    0.979
    27   1 H    1.010 --     1 C    0.986
    28   1 H    1.005 --     1 C    0.979
    29   1 H    1.001 --     9 C    0.975
    30   1 H    0.994 --     9 C    0.980
    31   1 H    0.993 --     9 C    0.972
    32   1 H    0.995 --    10 C    0.977
    33   1 H    0.994 --    10 C    0.977
    34   1 H    0.996 --    10 C    0.980
    35   1 H    0.950 --    11 N    0.823
    36   1 H    0.994 --    12 C    0.979
    37   1 H    1.001 --    12 C    0.979
    38   1 H    0.989 --    12 C    0.980
    39   1 H    0.991 --    19 C    0.957
    40   1 H    0.990 --    19 C    0.948
    41   1 H    0.994 --    19 C    0.978
    42   1 H    0.916 --    21 N    0.874
    43   1 H    0.837 --    25 O    0.801
 ---------------------------------------------------------------------------

           -------------------------------------------------
          | TOTAL ENERGY              -83.152424202729 Eh   |
          | GRADIENT NORM               0.000955559308 Eh/α |
          | HOMO-LUMO GAP               1.792028337819 eV   |
           -------------------------------------------------

 * finished run on 2023/06/20 at 15:43:14.114
