                         Program Version 5.0.1 -  RELEASE  -
|  1> # ORCA input file
|  2> ! SP r2SCAN-3c CPCM
|  3>
|  4> %maxcore 1875.0
|  5> %pal nprocs 4 end
|  6> %cpcm smd true SMDsolvent "DMSO" end
|  7>
|  8> *xyz 0 1
|  9> C      -5.411445    2.732039   -0.962890
| 10> O      -4.199031    2.066104   -0.594603
| 11> C      -4.258517    0.747424   -0.482290
| 12> O      -5.273989    0.105845   -0.687428
| 13> C      -2.978068    0.118376   -0.077482
| 14> N      -1.906136    0.914213    0.114141
| 15> C      -0.775064    0.360212    0.484300
| 16> C       0.408337    1.269676    0.758577
| 17> C       0.491825    1.495826    2.271648
| 18> C       0.263885    2.597242    0.009369
| 19> N       1.640252    0.596364    0.343708
| 20> C       1.793338    0.084110   -0.891072
| 21> O       0.944431    0.104777   -1.768470
| 22> C       3.127148   -0.539024   -1.095731
| 23> N       3.576625   -1.119318   -2.164503
| 24> N       4.844595   -1.534533   -1.883834
| 25> C       5.090579   -1.182744   -0.660794
| 26> C       6.330738   -1.401698    0.114565
| 27> O       4.044762   -0.549618   -0.103813
| 28> N      -0.603311   -0.952124    0.715413
| 29> C      -1.628237   -1.756414    0.525506
| 30> O      -1.490639   -3.068791    0.738480
| 31> C      -0.216120   -3.515589    1.192801
| 32> C      -2.892568   -1.256290    0.106206
| 33> O      -3.908116   -2.109025   -0.072981
| 34> H      -5.747068    2.383983   -1.942296
| 35> H      -6.187093    2.528916   -0.221339
| 36> H      -5.184776    3.795576   -0.993909
| 37> H      -0.419121    1.979789    2.620441
| 38> H       1.342935    2.130525    2.511011
| 39> H       0.602264    0.540405    2.782807
| 40> H       1.125623    3.230758    0.209218
| 41> H      -0.640340    3.103670    0.342852
| 42> H       0.190229    2.416287   -1.062492
| 43> H       2.409162    0.567852    0.990152
| 44> H       6.117490   -2.011070    0.992452
| 45> H       7.069301   -1.901717   -0.507125
| 46> H       6.725941   -0.446191    0.458931
| 47> H       0.559123   -3.259302    0.465107
| 48> H       0.028301   -3.050127    2.151153
| 49> H      -0.286973   -4.596030    1.305769
| 50> H      -4.720274   -1.620367   -0.335821
| 51> **                         ****END OF INPUT****

CARTESIAN COORDINATES (ANGSTROEM)
---------------------------------
  C     -5.411445    2.732039   -0.962890
  O     -4.199031    2.066104   -0.594603
  C     -4.258517    0.747424   -0.482290
  O     -5.273989    0.105845   -0.687428
  C     -2.978068    0.118376   -0.077482
  N     -1.906136    0.914213    0.114141
  C     -0.775064    0.360212    0.484300
  C      0.408337    1.269676    0.758577
  C      0.491825    1.495826    2.271648
  C      0.263885    2.597242    0.009369
  N      1.640252    0.596364    0.343708
  C      1.793338    0.084110   -0.891072
  O      0.944431    0.104777   -1.768470
  C      3.127148   -0.539024   -1.095731
  N      3.576625   -1.119318   -2.164503
  N      4.844595   -1.534533   -1.883834
  C      5.090579   -1.182744   -0.660794
  C      6.330738   -1.401698    0.114565
  O      4.044762   -0.549618   -0.103813
  N     -0.603311   -0.952124    0.715413
  C     -1.628237   -1.756414    0.525506
  O     -1.490639   -3.068791    0.738480
  C     -0.216120   -3.515589    1.192801
  C     -2.892568   -1.256290    0.106206
  O     -3.908116   -2.109025   -0.072981
  H     -5.747068    2.383983   -1.942296
  H     -6.187093    2.528916   -0.221339
  H     -5.184776    3.795576   -0.993909
  H     -0.419121    1.979789    2.620441
  H      1.342935    2.130525    2.511011
  H      0.602264    0.540405    2.782807
  H      1.125623    3.230758    0.209218
  H     -0.640340    3.103670    0.342852
  H      0.190229    2.416287   -1.062492
  H      2.409162    0.567852    0.990152
  H      6.117490   -2.011070    0.992452
  H      7.069301   -1.901717   -0.507125
  H      6.725941   -0.446191    0.458931
  H      0.559123   -3.259302    0.465107
  H      0.028301   -3.050127    2.151153
  H     -0.286973   -4.596030    1.305769
  H     -4.720274   -1.620367   -0.335821

 Total Charge           Charge          ....    0
 Multiplicity           Mult            ....    1
 Number of Electrons    NEL             ....  184
 Basis Dimension        Dim             ....  615

ORBITAL ENERGIES
----------------

  NO   OCC          E(Eh)            E(eV)
   0   2.0000     -19.065074      -518.7871
   1   2.0000     -19.011931      -517.3409
   2   2.0000     -19.007963      -517.2330
   3   2.0000     -18.996231      -516.9137
   4   2.0000     -18.959105      -515.9035
   5   2.0000     -18.932965      -515.1922
   6   2.0000     -14.203998      -386.5104
   7   2.0000     -14.198131      -386.3508
   8   2.0000     -14.196768      -386.3137
   9   2.0000     -14.169795      -385.5797
  10   2.0000     -14.163768      -385.4157
  11   2.0000     -10.176511      -276.9169
  12   2.0000     -10.153991      -276.3042
  13   2.0000     -10.148360      -276.1509
  14   2.0000     -10.146762      -276.1074
  15   2.0000     -10.142044      -275.9790
  16   2.0000     -10.126576      -275.5581
  17   2.0000     -10.107508      -275.0393
  18   2.0000     -10.095412      -274.7101
  19   2.0000     -10.094015      -274.6721
  20   2.0000     -10.080698      -274.3097
  21   2.0000     -10.078291      -274.2442
  22   2.0000     -10.045163      -273.3428
  23   2.0000     -10.024999      -272.7941
  24   2.0000     -10.014761      -272.5155
  25   2.0000      -1.154512       -31.4159
  26   2.0000      -1.091399       -29.6985
  27   2.0000      -1.068966       -29.0880
  28   2.0000      -1.042865       -28.3778
  29   2.0000      -1.021417       -27.7942
  30   2.0000      -0.999996       -27.2113
  31   2.0000      -0.974849       -26.5270
  32   2.0000      -0.960729       -26.1428
  33   2.0000      -0.910111       -24.7654
  34   2.0000      -0.863752       -23.5039
  35   2.0000      -0.830928       -22.6107
  36   2.0000      -0.787111       -21.4184
  37   2.0000      -0.746820       -20.3220
  38   2.0000      -0.720095       -19.5948
  39   2.0000      -0.713022       -19.4023
  40   2.0000      -0.690279       -18.7835
  41   2.0000      -0.664868       -18.0920
  42   2.0000      -0.660983       -17.9863
  43   2.0000      -0.642508       -17.4835
  44   2.0000      -0.628779       -17.1099
  45   2.0000      -0.601335       -16.3632
  46   2.0000      -0.583741       -15.8844
  47   2.0000      -0.562504       -15.3065
  48   2.0000      -0.554297       -15.0832
  49   2.0000      -0.537736       -14.6325
  50   2.0000      -0.524956       -14.2848
  51   2.0000      -0.520379       -14.1602
  52   2.0000      -0.507507       -13.8100
  53   2.0000      -0.493998       -13.4424
  54   2.0000      -0.475891       -12.9496
  55   2.0000      -0.467645       -12.7253
  56   2.0000      -0.462485       -12.5848
  57   2.0000      -0.458813       -12.4849
  58   2.0000      -0.453687       -12.3455
  59   2.0000      -0.449374       -12.2281
  60   2.0000      -0.424489       -11.5509
  61   2.0000      -0.414762       -11.2862
  62   2.0000      -0.409096       -11.1321
  63   2.0000      -0.407159       -11.0794
  64   2.0000      -0.405615       -11.0374
  65   2.0000      -0.399631       -10.8745
  66   2.0000      -0.390349       -10.6219
  67   2.0000      -0.385269       -10.4837
  68   2.0000      -0.382154       -10.3989
  69   2.0000      -0.381024       -10.3682
  70   2.0000      -0.372309       -10.1311
  71   2.0000      -0.369289       -10.0489
  72   2.0000      -0.358002        -9.7417
  73   2.0000      -0.349066        -9.4986
  74   2.0000      -0.348754        -9.4901
  75   2.0000      -0.343786        -9.3549
  76   2.0000      -0.337683        -9.1888
  77   2.0000      -0.329834        -8.9752
  78   2.0000      -0.326614        -8.8876
  79   2.0000      -0.325897        -8.8681
  80   2.0000      -0.320189        -8.7128
  81   2.0000      -0.313716        -8.5366
  82   2.0000      -0.288972        -7.8633
  83   2.0000      -0.286521        -7.7966
  84   2.0000      -0.276049        -7.5117
  85   2.0000      -0.273988        -7.4556
  86   2.0000      -0.267070        -7.2673
  87   2.0000      -0.261478        -7.1152
  88   2.0000      -0.248005        -6.7485
  89   2.0000      -0.245560        -6.6820
  90   2.0000      -0.226001        -6.1498
  91   2.0000      -0.217266        -5.9121
  92   0.0000      -0.095765        -2.6059
  93   0.0000      -0.084871        -2.3095
  94   0.0000      -0.041325        -1.1245
  95   0.0000      -0.019513        -0.5310
  96   0.0000       0.009278         0.2525

MULLIKEN ATOMIC CHARGES
-----------------------
   0 C :   -0.310218
   1 O :   -0.182087
   2 C :    0.196815
   3 O :   -0.474480
   4 C :    0.148277
   5 N :   -0.115704
   6 C :    0.267946
   7 C :    0.051005
   8 C :   -0.573586
   9 C :   -0.608453
  10 N :   -0.105584
  11 C :   -0.151144
  12 O :   -0.430561
  13 C :    0.447751
  14 N :   -0.176338
  15 N :   -0.283991
  16 C :    0.396243
  17 C :   -0.634627
  18 O :   -0.057486
  19 N :   -0.247002
  20 C :    0.221689
  21 O :   -0.173340
  22 C :   -0.320686
  23 C :   -0.009828
  24 O :   -0.369026
  25 H :    0.179944
  26 H :    0.180173
  27 H :    0.180689
  28 H :    0.193526
  29 H :    0.186286
  30 H :    0.190651
  31 H :    0.181898
  32 H :    0.183879
  33 H :    0.193198
  34 H :    0.317964
  35 H :    0.201409
  36 H :    0.204695
  37 H :    0.200443
  38 H :    0.175668
  39 H :    0.176959
  40 H :    0.177166
  41 H :    0.369868
Sum of atomic charges:   -0.0000000

LOEWDIN ATOMIC CHARGES
----------------------
   0 C :   -0.031192
   1 O :   -0.555603
   2 C :    0.409736
   3 O :   -0.458429
   4 C :    0.207513
   5 N :   -0.548627
   6 C :    0.330321
   7 C :    0.103248
   8 C :   -0.341030
   9 C :   -0.349142
  10 N :   -0.564063
  11 C :    0.376435
  12 O :   -0.441940
  13 C :    0.414766
  14 N :   -0.336665
  15 N :   -0.362141
  16 C :    0.377859
  17 C :   -0.317519
  18 O :   -0.392166
  19 N :   -0.494868
  20 C :    0.394849
  21 O :   -0.570820
  22 C :   -0.033515
  23 C :    0.285236
  24 O :   -0.443837
  25 H :    0.184545
  26 H :    0.184943
  27 H :    0.188583
  28 H :    0.176814
  29 H :    0.172399
  30 H :    0.174776
  31 H :    0.166493
  32 H :    0.175584
  33 H :    0.178870
  34 H :    0.299166
  35 H :    0.191845
  36 H :    0.190917
  37 H :    0.191551
  38 H :    0.182775
  39 H :    0.182778
  40 H :    0.186162
  41 H :    0.313390

  Mayer bond orders larger than 0.100000
B(  0-C ,  1-O ) :   0.8240 B(  0-C , 25-H ) :   0.9541 B(  0-C , 26-H ) :   0.9545
B(  0-C , 27-H ) :   0.9606 B(  1-O ,  2-C ) :   1.2006 B(  2-C ,  3-O ) :   1.7285
B(  2-C ,  4-C ) :   1.0724 B(  4-C ,  5-N ) :   1.1204 B(  4-C , 19-N ) :   0.1059
B(  4-C , 23-C ) :   1.2272 B(  5-N ,  6-C ) :   1.5333 B(  6-C ,  7-C ) :   0.7862
B(  6-C , 19-N ) :   1.0658 B(  7-C ,  8-C ) :   0.8987 B(  7-C ,  9-C ) :   0.9106
B(  7-C , 10-N ) :   0.8265 B(  8-C , 28-H ) :   0.9661 B(  8-C , 29-H ) :   0.9610
B(  8-C , 30-H ) :   0.9663 B(  9-C , 31-H ) :   0.9744 B(  9-C , 32-H ) :   0.9628
B(  9-C , 33-H ) :   0.9689 B( 10-N , 11-C ) :   1.1651 B( 10-N , 34-H ) :   0.8858
B( 11-C , 12-O ) :   1.8869 B( 11-C , 13-C ) :   0.7756 B( 12-O , 13-C ) :  -0.1049
B( 13-C , 14-N ) :   1.7259 B( 13-C , 16-C ) :   0.1159 B( 13-C , 18-O ) :   1.0705
B( 14-N , 15-N ) :   1.2696 B( 15-N , 16-C ) :   1.6286 B( 16-C , 17-C ) :   0.8261
B( 16-C , 18-O ) :   1.0666 B( 17-C , 35-H ) :   0.9413 B( 17-C , 36-H ) :   0.9901
B( 17-C , 37-H ) :   0.9439 B( 19-N , 20-C ) :   1.4036 B( 20-C , 21-O ) :   1.2042
B( 20-C , 23-C ) :   1.2023 B( 21-O , 22-C ) :   0.8364 B( 22-C , 38-H ) :   0.9546
B( 22-C , 39-H ) :   0.9557 B( 22-C , 40-H ) :   0.9581 B( 23-C , 24-O ) :   1.1485
B( 24-O , 41-H ) :   0.7753

Dispersion correction           -0.018565230
FINAL SINGLE POINT ENERGY     -1268.649648481346

DIPOLE MOMENT
-------------
                                X             Y             Z
Electronic contribution:     -4.01563      -7.88555      -7.90391
Nuclear contribution   :      5.31033       9.10751      11.61261
                        -----------------------------------------
Total Dipole Moment    :      1.29469       1.22197       3.70870
                        -----------------------------------------
Magnitude (a.u.)       :      4.11387
Magnitude (Debye)      :     10.45662

Rotational constants in cm-1:     0.013982     0.003873     0.003460
Rotational constants in MHz :   419.184392   116.101951   103.723783

                             ****ORCA TERMINATED NORMALLY****
TOTAL RUN TIME: 0 days 0 hours 1 minutes 59 seconds 767 msec
