   * xtb version 6.5.1 (579679a) compiled by 'ehlert@majestix' on 2022-07-11
          program call               : /lustre/hpc/kemi/ree/PhD/git/ReactivityQM/dep/xtb-6.5.1/bin/xtb --gfn 1 /lustre/hpc/kemi/ree/PhD/git/ReactivityQM/calculations/R02deprot/reac01prodN19/conf13/R02deprot_reac01prodN19_conf13_gfn1.xyz --opt --vfukui --chrg 0 --uhf 0 --alpb DMSO

   ID    Z sym.   atoms
    1    6 C      1, 3, 5, 7-10, 12, 14, 17, 18, 21, 23, 24
    2    8 O      2, 4, 13, 19, 22, 25
    3    7 N      6, 11, 15, 16, 20
    4    1 H      26-42

      * Solvation model:               ALPB
        Solvent                        DMSO
        Solvent mass                       7.8130E+01 g/mol
          :  Hamiltonian                  GFN1-xTB          :
 * total energy  :   -82.9943419 Eh     change       -0.5599077E-11 Eh
 * total energy  :   -83.0065625 Eh     change       -0.1222062E-01 Eh
 * total energy  :   -83.0112281 Eh     change       -0.4665655E-02 Eh
 * total energy  :   -83.0122466 Eh     change       -0.1018452E-02 Eh
 * total energy  :   -83.0131942 Eh     change       -0.9475969E-03 Eh
 * total energy  :   -83.0137410 Eh     change       -0.5468619E-03 Eh
 * total energy  :   -83.0142339 Eh     change       -0.4928597E-03 Eh
 * total energy  :   -83.0146516 Eh     change       -0.4177460E-03 Eh
 * total energy  :   -83.0148850 Eh     change       -0.2333902E-03 Eh
 * total energy  :   -83.0149895 Eh     change       -0.1044238E-03 Eh
 * total energy  :   -83.0162201 Eh     change       -0.1444827E-04 Eh
 * total energy  :   -83.0162381 Eh     change       -0.1799640E-04 Eh
 * total energy  :   -83.0162482 Eh     change       -0.1002591E-04 Eh
 * total energy  :   -83.0162599 Eh     change       -0.1169757E-04 Eh
 * total energy  :   -83.0162737 Eh     change       -0.1386868E-04 Eh
 * total energy  :   -83.0162813 Eh     change       -0.7550046E-05 Eh
 * total energy  :   -83.0162867 Eh     change       -0.5435704E-05 Eh
 * total energy  :   -83.0162935 Eh     change       -0.6763415E-05 Eh
 * total energy  :   -83.0162967 Eh     change       -0.3216814E-05 Eh
   *** GEOMETRY OPTIMIZATION CONVERGED AFTER 46 ITERATIONS ***

 final structure:
================
42
 xtb: 6.5.1 (579679a)
C           -5.41144507075953        2.73203936518682       -0.96288990292015
O           -4.19903136239472        2.06610366817716       -0.59460296082739
C           -4.25851726346555        0.74742443302878       -0.48229015113391
O           -5.27398948967681        0.10584464726662       -0.68742830695063
C           -2.97806810950788        0.11837553206595       -0.07748208907420
N           -1.90613590280508        0.91421271750386        0.11414134766667
C           -0.77506404371897        0.36021228965914        0.48430045641574
C            0.40833683895304        1.26967625305001        0.75857704691259
C            0.49182498832680        1.49582558436073        2.27164773896220
C            0.26388491134770        2.59724168880656        0.00936851220504
N            1.64025183284997        0.59636410319335        0.34370801409185
C            1.79333780763508        0.08410984916993       -0.89107189280342
O            0.94443071456206        0.10477712084763       -1.76846954153913
C            3.12714843183839       -0.53902405448576       -1.09573077992985
N            3.57662541010611       -1.11931776979393       -2.16450315100979
N            4.84459478137724       -1.53453288836749       -1.88383431993595
C            5.09057894446332       -1.18274449074919       -0.66079414250444
C            6.33073834494227       -1.40169797417662        0.11456495823507
O            4.04476207820694       -0.54961826452347       -0.10381255946970
N           -0.60331079342899       -0.95212376735498        0.71541322510697
C           -1.62823665982299       -1.75641364195545        0.52550612484290
O           -1.49063882380147       -3.06879108966394        0.73848013013187
C           -0.21611958898639       -3.51558853039013        1.19280069070311
C           -2.89256827638250       -1.25629031416103        0.10620572186815
O           -3.90811606573826       -2.10902458417775       -0.07298142673264
H           -5.74706795770479        2.38398327035587       -1.94229570549794
H           -6.18709339540314        2.52891593500521       -0.22133935348956
H           -5.18477640547294        3.79557639775772       -0.99390940054050
H           -0.41912069360156        1.97978858913140        2.62044066196447
H            1.34293500403549        2.13052483585248        2.51101097933414
H            0.60226367800229        0.54040542031328        2.78280706043724
H            1.12562340685171        3.23075775565838        0.20921802606926
H           -0.64033952995834        3.10366964847536        0.34285235150950
H            0.19022899741533        2.41628717863733       -1.06249249995652
H            2.40916187766438        0.56785217303312        0.99015165335931
H            6.11749031664607       -2.01107039955169        0.99245237125499
H            7.06930084944701       -1.90171659450311       -0.50712543913995
H            6.72594097137658       -0.44619079870238        0.45893135744767
H            0.55912315902599       -3.25930185150105        0.46510695992325
H            0.02830067757150       -3.05012714965351        2.15115347977356
H           -0.28697259263414       -4.59602977266002        1.30576862855199
H           -4.72027399737534       -1.62036652016211       -0.33582087331789

          :  Hamiltonian                  GFN1-xTB          :
         :: total energy             -83.016296695880 Eh    ::
         :: gradient norm              0.000795659264 Eh/a0 ::
         :: HOMO-LUMO gap              2.805068935751 eV    ::
         :: SCC energy               -83.791154830898 Eh    ::
         :: -> Gsolv                  -0.056116566931 Eh    ::
         :: repulsion energy           0.800403404894 Eh    ::

    * Orbital Energies and Occupations

         #    Occupation            Energy/Eh            Energy/eV
      -------------------------------------------------------------
         1        2.0000           -0.8643752             -23.5208
       ...           ...                  ...                  ...
        55        2.0000           -0.5033828             -13.6977
        56        2.0000           -0.4999282             -13.6037
        57        2.0000           -0.4967218             -13.5165
        58        2.0000           -0.4829165             -13.1408
        59        2.0000           -0.4792604             -13.0413
        60        2.0000           -0.4731489             -12.8750
        61        2.0000           -0.4681904             -12.7401
        62        2.0000           -0.4629004             -12.5962
        63        2.0000           -0.4574033             -12.4466
        64        2.0000           -0.4507926             -12.2667
        65        2.0000           -0.4436758             -12.0730
        66        2.0000           -0.4315722             -11.7437
        67        2.0000           -0.4261733             -11.5968 (HOMO)
        68                         -0.3230889              -8.7917 (LUMO)
        69                         -0.3079972              -8.3810
        70                         -0.2792376              -7.5984
        71                         -0.2558061              -6.9608
        72                         -0.2388711              -6.5000
        73                         -0.1955701              -5.3217
        74                         -0.1532978              -4.1714
        75                         -0.1418673              -3.8604
        76                         -0.1397458              -3.8027
        77                         -0.1381848              -3.7602
        78                         -0.1284574              -3.4955
       ...                                ...                  ...
       134                          0.7274332              19.7945
      -------------------------------------------------------------
                  HL-Gap            0.1030844 Eh            2.8051 eV

Wiberg/Mayer (AO) data.
largest (>0.10) Wiberg bond orders for each atom

     #   Z sym  total        # sym  WBO       # sym  WBO       # sym  WBO
 ---------------------------------------------------------------------------
     1   6 C    3.867 --    28 H    0.986    27 H    0.979    26 H    0.979
                             2 O    0.892
     2   8 O    2.220 --     3 C    1.137     1 C    0.892     4 O    0.131
     3   6 C    3.845 --     4 O    1.611     2 O    1.137     5 C    1.012
     4   8 O    1.942 --     3 C    1.611     2 O    0.131
     5   6 C    3.969 --    24 C    1.390     6 N    1.286     3 C    1.012
     6   7 N    3.029 --     7 C    1.473     5 C    1.286
     7   6 C    3.944 --     6 N    1.473    20 N    1.304     8 C    0.975
     8   6 C    3.935 --    10 C    0.991     9 C    0.984     7 C    0.975
                            11 N    0.923
     9   6 C    3.991 --    31 H    0.984    29 H    0.984     8 C    0.984
                            30 H    0.983
    10   6 C    3.990 --     8 C    0.991    32 H    0.986    33 H    0.984
                            34 H    0.982
    11   7 N    3.358 --    12 C    1.269     8 C    0.923    35 H    0.894
                            13 O    0.180
    12   6 C    3.920 --    13 O    1.579    11 N    1.269    14 C    0.989
    13   8 O    1.884 --    12 C    1.579    11 N    0.180
    14   6 C    3.871 --    15 N    1.625    19 O    1.047    12 C    0.989
    15   7 N    2.998 --    14 C    1.625    16 N    1.196
    16   7 N    2.981 --    17 C    1.613    15 N    1.196
    17   6 C    3.869 --    16 N    1.613    19 O    1.072    18 C    1.031
    18   6 C    3.986 --    17 C    1.031    37 H    0.983    38 H    0.964
                            36 H    0.963
    19   8 O    2.315 --    17 C    1.072    14 C    1.047
    20   7 N    3.018 --    21 C    1.417     7 C    1.304
    21   6 C    3.908 --    20 N    1.417    24 C    1.201    22 O    1.087
    22   8 O    2.185 --    21 C    1.087    23 C    0.906
    23   6 C    3.879 --    41 H    0.985    39 H    0.980    40 H    0.979
                            22 O    0.906
    24   6 C    3.926 --     5 C    1.390    21 C    1.201    25 O    1.106
    25   8 O    2.070 --    24 C    1.106    42 H    0.782
    26   1 H    1.006 --     1 C    0.979
    27   1 H    1.006 --     1 C    0.979
    28   1 H    1.010 --     1 C    0.986
    29   1 H    1.001 --     9 C    0.984
    30   1 H    0.998 --     9 C    0.983
    31   1 H    1.003 --     9 C    0.984
    32   1 H    1.002 --    10 C    0.986
    33   1 H    1.012 --    10 C    0.984
    34   1 H    1.011 --    10 C    0.982
    35   1 H    0.937 --    11 N    0.894
    36   1 H    0.997 --    18 C    0.963
    37   1 H    0.998 --    18 C    0.983
    38   1 H    0.997 --    18 C    0.964
    39   1 H    1.012 --    23 C    0.980
    40   1 H    1.011 --    23 C    0.979
    41   1 H    1.011 --    23 C    0.985
    42   1 H    0.854 --    25 O    0.782
 ---------------------------------------------------------------------------

           -------------------------------------------------
          | TOTAL ENERGY              -83.016296695880 Eh   |
          | GRADIENT NORM               0.000795659264 Eh/α |
          | HOMO-LUMO GAP               2.805068935751 eV   |
           -------------------------------------------------

 * finished run on 2023/06/20 at 18:31:08.111
