   * xtb version 6.5.1 (579679a) compiled by 'ehlert@majestix' on 2022-07-11
          program call               : /lustre/hpc/kemi/ree/PhD/git/ReactivityQM/dep/xtb-6.5.1/bin/xtb --gfn 1 /lustre/hpc/kemi/ree/PhD/git/ReactivityQM/calculations/R02methylcation/reac01prodN12/conf11/R02methylcation_reac01prodN12_conf11_gfn1.xyz --opt --vfukui --chrg 0 --uhf 0 --alpb DMSO

   ID    Z sym.   atoms
    1    6 C      1, 3, 5, 7-10, 12, 14, 15, 18, 19, 22, 24
    2    8 O      2, 4, 13, 20, 23, 25
    3    7 N      6, 11, 16, 17, 21
    4    1 H      26-42

      * Solvation model:               ALPB
        Solvent                        DMSO
        Solvent mass                       7.8130E+01 g/mol
          :  Hamiltonian                  GFN1-xTB          :
 * total energy  :   -82.9301952 Eh     change       -0.2774811E-09 Eh
 * total energy  :   -82.9401623 Eh     change       -0.9967128E-02 Eh
 * total energy  :   -82.9437309 Eh     change       -0.3568592E-02 Eh
 * total energy  :   -82.9443883 Eh     change       -0.6573938E-03 Eh
 * total energy  :   -82.9449085 Eh     change       -0.5201820E-03 Eh
 * total energy  :   -82.9451735 Eh     change       -0.2649654E-03 Eh
 * total energy  :   -82.9453506 Eh     change       -0.1771460E-03 Eh
 * total energy  :   -82.9454449 Eh     change       -0.9429288E-04 Eh
 * total energy  :   -82.9455011 Eh     change       -0.5618720E-04 Eh
 * total energy  :   -82.9455475 Eh     change       -0.4646230E-04 Eh
 * total energy  :   -82.9460341 Eh     change       -0.7623053E-05 Eh
 * total energy  :   -82.9460406 Eh     change       -0.6529768E-05 Eh
 * total energy  :   -82.9460462 Eh     change       -0.5600860E-05 Eh
 * total energy  :   -82.9460527 Eh     change       -0.6456594E-05 Eh
 * total energy  :   -82.9460639 Eh     change       -0.1127029E-04 Eh
 * total energy  :   -82.9460831 Eh     change       -0.1914894E-04 Eh
 * total energy  :   -82.9460984 Eh     change       -0.1528084E-04 Eh
 * total energy  :   -82.9461057 Eh     change       -0.7344730E-05 Eh
 * total energy  :   -82.9461107 Eh     change       -0.4980875E-05 Eh
   *** GEOMETRY OPTIMIZATION CONVERGED AFTER 35 ITERATIONS ***

 final structure:
================
42
 xtb: 6.5.1 (579679a)
C            6.08188142326123       -1.25159037557179       -0.13442415849274
O            4.75449294965887       -0.78894895466838        0.10998750131659
C            4.42545192851150       -0.59527797605134        1.40268347539223
O            5.21150874972870       -0.80092673460410        2.30307009053606
C            3.03529541351983       -0.12081365100310        1.55580545830604
N            2.33799155733297        0.03852795079551        0.40115049487165
C            1.12021832698899        0.47503866736339        0.41863354951626
C            0.36407908155917        0.67096887530533       -0.87291200322528
C            0.11293523997759        2.16585829784481       -1.10976011938799
C            1.13361065850571        0.03875272238105       -2.03346400055573
N           -0.93632189896479       -0.01793181905717       -0.70088702001633
C           -1.86841818224983       -0.04849724218746       -1.64304707069930
O           -1.83418726567207        0.44484590544914       -2.74355370224605
C           -3.17125307716831       -0.84672704731826       -1.17916007316714
C           -3.88455928103268       -1.38892298847730       -2.41227630880265
N           -2.81986429679091       -1.84498911619897       -0.23409602041779
N           -3.33321161981953       -1.53425544589940        0.91405067714552
C           -4.03247216832899       -0.40211612689201        0.76853332259203
C           -4.79720873896543        0.27950443914759        1.82120443756258
O           -3.98461471056022        0.05865047522788       -0.45500365073464
N            0.47708591901104        0.78639866747446        1.58394127852722
C            1.04238242103988        0.65166140510929        2.83894514099791
O            0.39553916501582        0.93490756535872        3.83058572967858
C            2.47110402339872        0.14671674887017        2.84861828862953
O            3.04943060204321        0.00036634598433        3.92573884124057
H            6.81166529155098       -0.52397052434258        0.23148845573509
H            6.24873778478128       -2.20972484101602        0.36574015327391
H            6.17945372231034       -1.36963806207498       -1.21190178185867
H           -0.39868354754529        2.31511795311600       -2.05843049324485
H           -0.50063831655808        2.57311529105871       -0.30863218444109
H            1.06537131003865        2.69313927695457       -1.13344760893026
H            2.11721114502768        0.50096579462679       -2.10180938318347
H            1.25787718749495       -1.02911909367001       -1.85985092575613
H            0.59987173478522        0.19289138423572       -2.96853125761120
H           -1.10420094803242       -0.51861247527678        0.15883104823283
H           -4.05616256267364       -0.57032830125062       -3.10839825380166
H           -4.83331664072154       -1.82762527026135       -2.11379096235467
H           -3.25729928361672       -2.14369618585136       -2.88049277435570
H           -5.85665613422538        0.04044418060905        1.70119510277497
H           -4.69108058977978        1.35896735258034        1.72406033643709
H           -4.47028266184259       -0.05531577226185        2.80286728669453
H           -0.46276471099455        1.14565770444225        1.55673708383416

          :  Hamiltonian                  GFN1-xTB          :
         :: total energy             -82.946110677710 Eh    ::
         :: gradient norm              0.000300931175 Eh/a0 ::
         :: HOMO-LUMO gap              0.090604376670 eV    ::
         :: SCC energy               -83.716767583194 Eh    ::
         :: -> Gsolv                  -0.076565869368 Eh    ::
         :: repulsion energy           0.797298531327 Eh    ::

    * Orbital Energies and Occupations

         #    Occupation            Energy/Eh            Energy/eV
      -------------------------------------------------------------
         1        2.0000           -0.8904616             -24.2307
       ...           ...                  ...                  ...
        55        2.0000           -0.5118380             -13.9278
        56        2.0000           -0.5098168             -13.8728
        57        2.0000           -0.5064200             -13.7804
        58        2.0000           -0.4964107             -13.5080
        59        2.0000           -0.4882169             -13.2851
        60        2.0000           -0.4876296             -13.2691
        61        2.0000           -0.4789264             -13.0323
        62        2.0000           -0.4762555             -12.9596
        63        2.0000           -0.4753990             -12.9363
        64        2.0000           -0.4687574             -12.7555
        65        2.0000           -0.4548743             -12.3778
        66        2.0000           -0.4150473             -11.2940
        67        1.7045           -0.4015687             -10.9272 (HOMO)
        68        0.2955           -0.3982390             -10.8366 (LUMO)
        69                         -0.3035231              -8.2593
        70                         -0.2943747              -8.0103
        71                         -0.2813696              -7.6565
        72                         -0.2781433              -7.5687
        73                         -0.2286570              -6.2221
        74                         -0.1582508              -4.3062
        75                         -0.1486692              -4.0455
        76                         -0.1410359              -3.8378
        77                         -0.1362149              -3.7066
        78                         -0.1332288              -3.6253
       ...                                ...                  ...
       134                          0.7540991              20.5201
      -------------------------------------------------------------
                  HL-Gap            0.0033296 Eh            0.0906 eV

Wiberg/Mayer (AO) data.
largest (>0.10) Wiberg bond orders for each atom

     #   Z sym  total        # sym  WBO       # sym  WBO       # sym  WBO
 ---------------------------------------------------------------------------
     1   6 C    3.881 --    28 H    0.986    27 H    0.980    26 H    0.979
                             2 O    0.908
     2   8 O    2.167 --     3 C    1.076     1 C    0.908     4 O    0.126
     3   6 C    3.841 --     4 O    1.638     2 O    1.076     5 C    1.044
     4   8 O    1.883 --     3 C    1.638     2 O    0.126
     5   6 C    3.740 --     6 N    1.255    24 C    1.186     3 C    1.044
     6   7 N    3.001 --     7 C    1.525     5 C    1.255
     7   6 C    3.849 --     6 N    1.525    21 N    1.152     8 C    0.985
     8   6 C    3.917 --    10 C    0.995     7 C    0.985     9 C    0.980
                            11 N    0.890
     9   6 C    3.982 --    31 H    0.984    30 H    0.983     8 C    0.980
                            29 H    0.979
    10   6 C    3.988 --     8 C    0.995    33 H    0.984    32 H    0.982
                            34 H    0.982
    11   7 N    3.366 --    12 C    1.333     8 C    0.890    35 H    0.887
                            13 O    0.179
    12   6 C    3.869 --    13 O    1.644    11 N    1.333    14 C    0.790
    13   8 O    1.991 --    12 C    1.644    11 N    0.179
    14   6 C    3.843 --    16 N    1.073    15 C    0.944    20 O    0.898
                            12 C    0.790
    15   6 C    3.940 --    38 H    0.981    37 H    0.980    36 H    0.976
                            14 C    0.944
    16   7 N    2.732 --    17 N    1.474    14 C    1.073
    17   7 N    2.962 --    16 N    1.474    18 C    1.328
    18   6 C    3.710 --    17 N    1.328    20 O    1.191    19 C    1.054
    19   6 C    3.971 --    18 C    1.054    41 H    0.974    40 H    0.959
                            39 H    0.930
    20   8 O    2.253 --    18 C    1.191    14 C    0.898
    21   7 N    3.425 --     7 C    1.152    22 C    1.116    42 H    0.890
                            23 O    0.119
    22   6 C    3.847 --    23 O    1.639    21 N    1.116    24 C    0.952
    23   8 O    1.873 --    22 C    1.639    21 N    0.119
    24   6 C    3.885 --    25 O    1.597     5 C    1.186    22 C    0.952
    25   8 O    1.797 --    24 C    1.597
    26   1 H    1.008 --     1 C    0.979
    27   1 H    1.009 --     1 C    0.980
    28   1 H    1.013 --     1 C    0.986
    29   1 H    1.003 --     9 C    0.979
    30   1 H    1.000 --     9 C    0.983
    31   1 H    0.999 --     9 C    0.984
    32   1 H    1.009 --    10 C    0.982
    33   1 H    1.005 --    10 C    0.984
    34   1 H    1.005 --    10 C    0.982
    35   1 H    0.941 --    11 N    0.887
    36   1 H    1.001 --    15 C    0.976
    37   1 H    0.995 --    15 C    0.980
    38   1 H    0.997 --    15 C    0.981
    39   1 H    0.977 --    19 C    0.930
    40   1 H    0.986 --    19 C    0.959
    41   1 H    0.992 --    19 C    0.974
    42   1 H    0.935 --    21 N    0.890
 ---------------------------------------------------------------------------

           -------------------------------------------------
          | TOTAL ENERGY              -82.946110677710 Eh   |
          | GRADIENT NORM               0.000300931175 Eh/α |
          | HOMO-LUMO GAP               0.090604376670 eV   |
           -------------------------------------------------

 * finished run on 2023/06/21 at 17:44:41.427
