   * xtb version 6.5.1 (579679a) compiled by 'ehlert@majestix' on 2022-07-11
          program call               : /lustre/hpc/kemi/ree/PhD/git/ReactivityQM/dep/xtb-6.5.1/bin/xtb --gfn 1 /lustre/hpc/kemi/ree/PhD/git/ReactivityQM/calculations/RaltegravirCLI/reac02prodE04/conf19/RaltegravirCLI_reac02prodE04_conf19_gfn1.xyz --opt --vfukui --chrg -1 --uhf 0 --alpb DMSO

   ID    Z sym.   atoms
    1    6 C      1, 3, 5, 7-9, 12-16, 18, 19, 21-24
    2    7 N      2, 11, 20, 25
    3    8 O      4, 6, 10
    4    9 F      17
    5    1 H      26-47

      * Solvation model:               ALPB
        Solvent                        DMSO
        Solvent mass                       7.8130E+01 g/mol
          :  Hamiltonian                  GFN1-xTB          :
 * total energy  :   -80.1900475 Eh     change       -0.1800515E-10 Eh
 * total energy  :   -80.2032565 Eh     change       -0.1320899E-01 Eh
 * total energy  :   -80.2067839 Eh     change       -0.3527368E-02 Eh
 * total energy  :   -80.2073924 Eh     change       -0.6084930E-03 Eh
 * total energy  :   -80.2079407 Eh     change       -0.5483661E-03 Eh
 * total energy  :   -80.2081800 Eh     change       -0.2392858E-03 Eh
 * total energy  :   -80.2084844 Eh     change       -0.3043549E-03 Eh
 * total energy  :   -80.2087466 Eh     change       -0.2622130E-03 Eh
 * total energy  :   -80.2089931 Eh     change       -0.2465176E-03 Eh
 * total energy  :   -80.2091815 Eh     change       -0.1883966E-03 Eh
 * total energy  :   -80.2105834 Eh     change       -0.7337254E-05 Eh
 * total energy  :   -80.2105906 Eh     change       -0.7183782E-05 Eh
 * total energy  :   -80.2105964 Eh     change       -0.5796162E-05 Eh
 * total energy  :   -80.2106029 Eh     change       -0.6522413E-05 Eh
 * total energy  :   -80.2106091 Eh     change       -0.6125883E-05 Eh
 * total energy  :   -80.2106162 Eh     change       -0.7118451E-05 Eh
 * total energy  :   -80.2106249 Eh     change       -0.8723067E-05 Eh
 * total energy  :   -80.2106368 Eh     change       -0.1189323E-04 Eh
 * total energy  :   -80.2106414 Eh     change       -0.4550126E-05 Eh
   *** GEOMETRY OPTIMIZATION CONVERGED AFTER 44 ITERATIONS ***

 final structure:
================
47
 xtb: 6.5.1 (579679a)
C           -2.68395282141988        1.28464901493582       -1.63317180868832
N           -1.88129255516866        0.08198522013355       -1.45165368146012
C           -1.15068768450930       -0.35364946412734       -2.64748437803414
O           -1.37391292327606        0.26006805080459       -3.74033762940785
C           -0.31165974842231       -1.40103538675227       -2.46489587686871
O            0.40693957129537       -1.90176174882744       -3.58526858338171
C           -0.06192473861605       -2.09736684976134       -1.16036350146584
C           -0.25067053074519       -3.62639035872667       -1.27532279298796
C            1.40749354887329       -1.84505058421140       -0.72983763439981
O            2.37319911908550       -2.37553006524743       -1.26982854677967
N            1.53885892193977       -0.93353613240614        0.25906675768488
C            2.82273061983468       -0.59082207594062        0.84969767991924
C            3.04188704477546        0.90357447046273        0.77260510262193
C            2.35785482238128        1.74842444917281        1.64537027524064
C            2.52070127182033        3.12437053168764        1.57423282004016
C            3.37524683775024        3.63252667490096        0.61256355304049
F            3.54113192062315        4.96493806102978        0.53551153901689
C            4.07047240300392        2.82570131559903       -0.26943981188138
C            3.89479331188195        1.45109757110971       -0.18263724645956
N           -0.93768724360815       -1.59337901695482       -0.11048610135547
C           -1.73096548458208       -0.58826925788730       -0.28428737314931
C           -2.49339777884281       -0.17210930506873        0.98401718030780
C           -1.93455338371903        1.15663920561266        1.51032700004936
C           -2.30733613257513       -1.24331101070690        2.07300463169820
N           -3.92541328303017       -0.01903076349308        0.71191460159240
H           -2.09759226160951        2.18072202353329       -1.40364309752822
H           -3.57177332584887        1.26365629125825       -1.00478371342097
H           -2.99611710782076        1.33895208149026       -2.67993577566089
H            0.11133666095035       -1.36775476740170       -4.33925212450284
H            0.47233647529630       -4.03341087168962       -1.98262954940601
H           -1.25864746389551       -3.84709208273451       -1.62473625134605
H           -0.10491573838034       -4.09438188797973       -0.30190075568671
H            0.70987918702838       -0.66246269917437        0.77185449467056
H            2.83525536311521       -0.91702675023136        1.89585997548850
H            3.60364766712096       -1.12866635006220        0.30154166013441
H            1.69493263509341        1.32852991162166        2.39312499656345
H            1.99996873845951        3.78938466696250        2.25002409375370
H            4.73525107651259        3.26501796824699       -1.00166307765204
H            4.43650230207091        0.80165378086203       -0.86183884864822
H           -2.37866105504801        1.38959184410502        2.47767476764410
H           -0.85378818397916        1.07903996336653        1.63513959794122
H           -2.15014548310211        1.97804245447646        0.82976415378361
H           -2.89686669201177       -0.97760297004029        2.94931365071347
H           -1.25884840964467       -1.31604311433025        2.36002051974938
H           -2.63509676601595       -2.21599131685071        1.70756982026844
H           -4.36588893614154        0.38565439414939        1.52555826392544
H           -4.33862276696220       -0.93254311490534        0.57365902435242

          :  Hamiltonian                  GFN1-xTB          :
         :: total energy             -80.210641359300 Eh    ::
         :: gradient norm              0.000325169890 Eh/a0 ::
         :: HOMO-LUMO gap              0.809285241056 eV    ::
         :: SCC energy               -81.071355173673 Eh    ::
         :: -> Gsolv                  -0.116142710897 Eh    ::
         :: repulsion energy           0.893047317165 Eh    ::

    * Orbital Energies and Occupations

         #    Occupation            Energy/Eh            Energy/eV
      -------------------------------------------------------------
         1        2.0000           -0.8601515             -23.4059
       ...           ...                  ...                  ...
        56        2.0000           -0.4606401             -12.5347
        57        2.0000           -0.4547834             -12.3753
        58        2.0000           -0.4492768             -12.2254
        59        2.0000           -0.4473857             -12.1740
        60        2.0000           -0.4415880             -12.0162
        61        2.0000           -0.4336492             -11.8002
        62        2.0000           -0.4163438             -11.3293
        63        2.0000           -0.4130279             -11.2391
        64        2.0000           -0.3956082             -10.7650
        65        2.0000           -0.3789385             -10.3114
        66        2.0000           -0.3722404             -10.1292
        67        2.0000           -0.3640279              -9.9057
        68        2.0000           -0.2992432              -8.1428 (HOMO)
        69        0.0000           -0.2695025              -7.3335 (LUMO)
        70                         -0.2618298              -7.1248
        71                         -0.2165233              -5.8919
        72                         -0.2084101              -5.6711
        73                         -0.1414459              -3.8489
        74                         -0.1283041              -3.4913
        75                         -0.1221527              -3.3239
        76                         -0.1091666              -2.9706
        77                         -0.1079841              -2.9384
        78                         -0.1016457              -2.7659
        79                         -0.0987558              -2.6873
       ...                                ...                  ...
       144                          0.6921268              18.8337
      -------------------------------------------------------------
                  HL-Gap            0.0297407 Eh            0.8093 eV

Wiberg/Mayer (AO) data.
largest (>0.10) Wiberg bond orders for each atom

     #   Z sym  total        # sym  WBO       # sym  WBO       # sym  WBO
 ---------------------------------------------------------------------------
     1   6 C    3.957 --    26 H    0.981    28 H    0.976    27 H    0.975
                             2 N    0.956
     2   7 N    3.386 --    21 C    1.226     1 C    0.956     3 C    0.896
                            20 N    0.173
     3   6 C    3.916 --     5 C    1.553     4 O    1.329     2 N    0.896
     4   8 O    1.694 --     3 C    1.329     5 C    0.176
     5   6 C    3.798 --     3 C    1.553     7 C    0.976     6 O    0.940
                             4 O    0.176
     6   8 O    1.913 --     5 C    0.940    29 H    0.861
     7   6 C    3.964 --    20 N    0.977     5 C    0.976     8 C    0.971
                             9 C    0.914
     8   6 C    3.996 --    32 H    0.988    31 H    0.988    30 H    0.986
                             7 C    0.971
     9   6 C    3.868 --    10 O    1.583    11 N    1.247     7 C    0.914
    10   8 O    1.869 --     9 C    1.583    11 N    0.153
    11   7 N    3.315 --     9 C    1.247    12 C    0.947    33 H    0.895
                            10 O    0.153
    12   6 C    3.959 --    13 C    0.998    35 H    0.972    34 H    0.971
                            11 N    0.947
    13   6 C    3.988 --    19 C    1.420    14 C    1.414    12 C    0.998
    14   6 C    3.993 --    15 C    1.446    13 C    1.414    36 H    0.971
                            18 C    0.111
    15   6 C    3.992 --    14 C    1.446    16 C    1.399    37 H    0.970
                            19 C    0.110
    16   6 C    3.857 --    18 C    1.403    15 C    1.399    17 F    0.921
    17   9 F    1.048 --    16 C    0.921
    18   6 C    3.991 --    19 C    1.441    16 C    1.403    38 H    0.970
                            14 C    0.111
    19   6 C    3.993 --    18 C    1.441    13 C    1.420    39 H    0.971
                            15 C    0.110
    20   7 N    2.975 --    21 C    1.604     7 C    0.977     2 N    0.173
    21   6 C    3.947 --    20 N    1.604     2 N    1.226    22 C    0.964
    22   6 C    3.964 --    24 C    0.993    23 C    0.991    25 N    0.976
                            21 C    0.964
    23   6 C    3.996 --    22 C    0.991    40 H    0.984    41 H    0.984
                            42 H    0.981
    24   6 C    3.997 --    22 C    0.993    43 H    0.986    45 H    0.984
                            44 H    0.983
    25   7 N    2.991 --    22 C    0.976    46 H    0.948    47 H    0.946
    26   1 H    1.012 --     1 C    0.981
    27   1 H    1.034 --     1 C    0.975
    28   1 H    1.028 --     1 C    0.976
    29   1 H    0.902 --     6 O    0.861
    30   1 H    1.016 --     8 C    0.986
    31   1 H    1.015 --     8 C    0.988
    32   1 H    1.011 --     8 C    0.988
    33   1 H    0.976 --    11 N    0.895
    34   1 H    1.005 --    12 C    0.971
    35   1 H    1.015 --    12 C    0.972
    36   1 H    1.001 --    14 C    0.971
    37   1 H    0.998 --    15 C    0.970
    38   1 H    0.999 --    18 C    0.970
    39   1 H    1.001 --    19 C    0.971
    40   1 H    1.003 --    23 C    0.984
    41   1 H    1.009 --    23 C    0.984
    42   1 H    1.008 --    23 C    0.981
    43   1 H    1.006 --    24 C    0.986
    44   1 H    1.020 --    24 C    0.983
    45   1 H    1.018 --    24 C    0.984
    46   1 H    0.963 --    25 N    0.948
    47   1 H    0.963 --    25 N    0.946
 ---------------------------------------------------------------------------

           -------------------------------------------------
          | TOTAL ENERGY              -80.210641359300 Eh   |
          | GRADIENT NORM               0.000325169890 Eh/α |
          | HOMO-LUMO GAP               0.809285241056 eV   |
           -------------------------------------------------

 * finished run on 2023/06/20 at 15:00:22.775
