   * xtb version 6.5.1 (579679a) compiled by 'ehlert@majestix' on 2022-07-11
          program call               : /lustre/hpc/kemi/ree/PhD/git/ReactivityQM/dep/xtb-6.5.1/bin/xtb --gfn 1 /lustre/hpc/kemi/ree/PhD/git/ReactivityQM/calculations/RaltegravirCLI/reac02prodN02/conf10/RaltegravirCLI_reac02prodN02_conf10_gfn1.xyz --opt --vfukui --chrg 1 --uhf 0 --alpb DMSO

   ID    Z sym.   atoms
    1    6 C      1, 3-6, 8, 9, 12-16, 18-20, 22, 25
    2    7 N      2, 7, 11, 24
    3    8 O      10, 21, 23
    4    9 F      17
    5    1 H      26-47

      * Solvation model:               ALPB
        Solvent                        DMSO
        Solvent mass                       7.8130E+01 g/mol
          :  Hamiltonian                  GFN1-xTB          :
 * total energy  :   -79.5193728 Eh     change       -0.9691803E-11 Eh
 * total energy  :   -79.5312964 Eh     change       -0.1192356E-01 Eh
 * total energy  :   -79.5345600 Eh     change       -0.3263622E-02 Eh
 * total energy  :   -79.5354004 Eh     change       -0.8404298E-03 Eh
 * total energy  :   -79.5360116 Eh     change       -0.6112318E-03 Eh
 * total energy  :   -79.5364169 Eh     change       -0.4052560E-03 Eh
 * total energy  :   -79.5368327 Eh     change       -0.4158429E-03 Eh
 * total energy  :   -79.5372138 Eh     change       -0.3810688E-03 Eh
 * total energy  :   -79.5374715 Eh     change       -0.2577400E-03 Eh
 * total energy  :   -79.5376478 Eh     change       -0.1762810E-03 Eh
 * total energy  :   -79.5417635 Eh     change       -0.9080984E-04 Eh
 * total energy  :   -79.5417953 Eh     change       -0.3177715E-04 Eh
 * total energy  :   -79.5418324 Eh     change       -0.3710967E-04 Eh
 * total energy  :   -79.5418400 Eh     change       -0.7588242E-05 Eh
 * total energy  :   -79.5418492 Eh     change       -0.9178706E-05 Eh
 * total energy  :   -79.5418565 Eh     change       -0.7338964E-05 Eh
 * total energy  :   -79.5418530 Eh     change        0.3558910E-05 Eh
 * total energy  :   -79.5418593 Eh     change       -0.6298578E-05 Eh
 * total energy  :   -79.5418612 Eh     change       -0.1913635E-05 Eh
   *** GEOMETRY OPTIMIZATION CONVERGED AFTER 103 ITERATIONS ***

 final structure:
================
47
 xtb: 6.5.1 (579679a)
C           -2.84644602922225        1.14569067163309       -2.34938174022731
N           -2.77117893624492       -0.26501478145909       -1.89907028191607
C           -3.28960140313945       -0.55514917695964       -0.50981510717306
C           -4.67876136558235        0.06615766900952       -0.37922123393169
C           -3.34278412519263       -2.08466090955275       -0.41565019142668
C           -2.21003199339357       -0.01537581529620        0.42391810046416
N           -1.08078726458452        0.22535138673715       -0.15848540958887
C            0.01554692882910        0.68560383646389        0.51914377955821
C            1.18528283862336        0.94242160299037       -0.38613495480856
O            1.06181955195781        0.84492653789892       -1.60181525830894
N            2.33282565825049        1.29179616674277        0.21623369784032
C            3.53703290308079        1.56579615626727       -0.55897222219483
C            4.46769636813495        0.37240239783468       -0.58197796509120
C            5.82224800295302        0.53696658487676       -0.30439335515044
C            6.68872136326490       -0.54739396465373       -0.34205492349825
C            6.17007830164288       -1.79014804922980       -0.65624866891701
F            6.99935211733559       -2.84541100083370       -0.69006553535349
C            4.82978945201153       -1.98933672772310       -0.93636672410101
C            3.97990193329238       -0.89384025421818       -0.89971464123542
C           -0.08706898390613        0.88610459506836        1.86295003567083
O            0.90995770671978        1.34319663032995        2.63611237178335
C           -1.33496378740277        0.61314195472791        2.55946857900001
O           -1.45035512947206        0.78894694605513        3.76454247761725
N           -2.37956029606168        0.13883584199700        1.76964050111217
C           -3.62388179016005       -0.15116044948899        2.48522398261414
H           -3.88501808132348        1.42661986571672       -2.49097197527897
H           -2.30718584277106        1.21230488936807       -3.29163141682436
H           -2.37101996430737        1.77190553135083       -1.59919564368791
H           -1.77244331769304       -0.51549833180450       -1.88141608890773
H           -3.25362621711849       -0.85669270473157       -2.56799560490280
H           -5.23087671671199       -0.09222025320408       -1.30451086415481
H           -4.61811927363967        1.13386337294494       -0.17761612870867
H           -5.23558647169589       -0.41564849502028        0.42024765075979
H           -4.06546339292997       -2.47329306938801       -1.13120604791632
H           -2.36172393281150       -2.50696388960979       -0.62861969081824
H           -3.64536656319761       -2.39047960333643        0.58333190357338
H            2.40600266531448        1.31569709711216        1.21984430826564
H            3.22466058388711        1.81512423382327       -1.57942784901850
H            4.03815719309178        2.43347800164446       -0.12187211149658
H            6.20800070954757        1.51911869424502       -0.05715534378234
H            7.74316702430519       -0.43159927934822       -0.12707130626446
H            4.46157916817743       -2.97794242087078       -1.17750346108194
H            2.92778227324104       -1.02625847843006       -1.11972715941670
H            0.59330535926662        1.40702043975018        3.55813693439515
H           -3.38444183228544       -0.23448537661298        3.54529113860060
H           -4.04611333987536       -1.08772991540392        2.13626449347331
H           -4.33049905219564        0.66383284260561        2.33801795045658

          :  Hamiltonian                  GFN1-xTB          :
         :: total energy             -79.541861179097 Eh    ::
         :: gradient norm              0.000166028880 Eh/a0 ::
         :: HOMO-LUMO gap              2.941887166718 eV    ::
         :: SCC energy               -80.442483129961 Eh    ::
         :: -> Gsolv                  -0.119627437024 Eh    ::
         :: repulsion energy           0.931375757746 Eh    ::

    * Orbital Energies and Occupations

         #    Occupation            Energy/Eh            Energy/eV
      -------------------------------------------------------------
         1        2.0000           -0.8811505             -23.9773
       ...           ...                  ...                  ...
        55        2.0000           -0.5271878             -14.3455
        56        2.0000           -0.5185207             -14.1097
        57        2.0000           -0.5088262             -13.8459
        58        2.0000           -0.5026449             -13.6777
        59        2.0000           -0.4885975             -13.2954
        60        2.0000           -0.4841105             -13.1733
        61        2.0000           -0.4763724             -12.9628
        62        2.0000           -0.4713426             -12.8259
        63        2.0000           -0.4548163             -12.3762
        64        2.0000           -0.4543204             -12.3627
        65        2.0000           -0.4486570             -12.2086
        66        2.0000           -0.4404328             -11.9848
        67        2.0000           -0.4373476             -11.9008 (HOMO)
        68                         -0.3292353              -8.9589 (LUMO)
        69                         -0.3013571              -8.2003
        70                         -0.2760493              -7.5117
        71                         -0.2690532              -7.3213
        72                         -0.2412872              -6.5658
        73                         -0.1779729              -4.8429
        74                         -0.1671997              -4.5497
        75                         -0.1666631              -4.5351
        76                         -0.1654675              -4.5026
        77                         -0.1480434              -4.0285
        78                         -0.1477193              -4.0196
       ...                                ...                  ...
       144                          0.7096050              19.3093
      -------------------------------------------------------------
                  HL-Gap            0.1081124 Eh            2.9419 eV

Wiberg/Mayer (AO) data.
largest (>0.10) Wiberg bond orders for each atom

     #   Z sym  total        # sym  WBO       # sym  WBO       # sym  WBO
 ---------------------------------------------------------------------------
     1   6 C    3.898 --    26 H    0.984    28 H    0.982    27 H    0.980
                             2 N    0.920
     2   7 N    3.601 --     1 C    0.920    30 H    0.894     3 C    0.890
                            29 H    0.864
     3   6 C    3.906 --     4 C    0.998     5 C    0.985     6 C    0.979
                             2 N    0.890
     4   6 C    3.984 --     3 C    0.998    32 H    0.982    31 H    0.978
                            33 H    0.975
     5   6 C    3.982 --     3 C    0.985    35 H    0.981    34 H    0.979
                            36 H    0.974
     6   6 C    3.942 --     7 N    1.562    24 N    1.191     3 C    0.979
     7   7 N    3.067 --     6 C    1.562     8 C    1.178
     8   6 C    3.954 --    20 C    1.510     7 N    1.178     9 C    0.987
     9   6 C    3.912 --    10 O    1.566    11 N    1.279     8 C    0.987
    10   8 O    1.876 --     9 C    1.566    11 N    0.177
    11   7 N    3.361 --     9 C    1.279    12 C    0.942    37 H    0.887
                            10 O    0.177
    12   6 C    3.944 --    13 C    0.995    39 H    0.975    38 H    0.961
                            11 N    0.942
    13   6 C    3.988 --    14 C    1.421    19 C    1.414    12 C    0.995
    14   6 C    3.994 --    15 C    1.440    13 C    1.421    40 H    0.970
                            18 C    0.110
    15   6 C    3.991 --    14 C    1.440    16 C    1.403    41 H    0.969
                            19 C    0.111
    16   6 C    3.861 --    15 C    1.403    18 C    1.398    17 F    0.926
    17   9 F    1.054 --    16 C    0.926
    18   6 C    3.992 --    19 C    1.448    16 C    1.398    42 H    0.969
                            14 C    0.110
    19   6 C    3.994 --    18 C    1.448    13 C    1.414    43 H    0.970
                            15 C    0.111
    20   6 C    3.920 --     8 C    1.510    21 O    1.090    22 C    1.080
    21   8 O    2.080 --    20 C    1.090    44 H    0.794
    22   6 C    3.911 --    23 O    1.572    24 N    1.108    20 C    1.080
    23   8 O    1.918 --    22 C    1.572    24 N    0.130
    24   7 N    3.510 --     6 C    1.191    22 C    1.108    25 C    0.924
                            23 O    0.130
    25   6 C    3.914 --    46 H    0.977    47 H    0.975    45 H    0.971
                            24 N    0.924
    26   1 H    0.995 --     1 C    0.984
    27   1 H    0.990 --     1 C    0.980
    28   1 H    1.003 --     1 C    0.982
    29   1 H    0.952 --     2 N    0.864
    30   1 H    0.921 --     2 N    0.894
    31   1 H    0.993 --     4 C    0.978
    32   1 H    0.997 --     4 C    0.982
    33   1 H    0.999 --     4 C    0.975
    34   1 H    0.992 --     5 C    0.979
    35   1 H    0.995 --     5 C    0.981
    36   1 H    0.997 --     5 C    0.974
    37   1 H    0.942 --    11 N    0.887
    38   1 H    1.010 --    12 C    0.961
    39   1 H    1.003 --    12 C    0.975
    40   1 H    0.999 --    14 C    0.970
    41   1 H    0.997 --    15 C    0.969
    42   1 H    0.998 --    18 C    0.969
    43   1 H    1.004 --    19 C    0.970
    44   1 H    0.836 --    21 O    0.794
    45   1 H    1.003 --    25 C    0.971
    46   1 H    1.002 --    25 C    0.977
    47   1 H    0.998 --    25 C    0.975
 ---------------------------------------------------------------------------

           -------------------------------------------------
          | TOTAL ENERGY              -79.541861179097 Eh   |
          | GRADIENT NORM               0.000166028880 Eh/α |
          | HOMO-LUMO GAP               2.941887166718 eV   |
           -------------------------------------------------

 * finished run on 2023/06/20 at 15:17:16.374
