   * xtb version 6.5.1 (579679a) compiled by 'ehlert@majestix' on 2022-07-11
          program call               : /lustre/hpc/kemi/ree/PhD/git/ReactivityQM/dep/xtb-6.5.1/bin/xtb --gfn 1 /lustre/hpc/kemi/ree/PhD/git/ReactivityQM/calculations/R02oxygendeprot/reac01prodN10/conf09/R02oxygendeprot_reac01prodN10_conf09_gfn1.xyz --opt --vfukui --chrg 0 --uhf 0 --alpb DMSO

   ID    Z sym.   atoms
    1    6 C      1, 3, 5, 6, 8, 11-15, 17, 19, 22, 23
    2    8 O      2, 4, 7, 9, 18, 24
    3    7 N      10, 16, 20, 21, 25
    4    1 H      26-42

      * Solvation model:               ALPB
        Solvent                        DMSO
        Solvent mass                       7.8130E+01 g/mol
          :  Hamiltonian                  GFN1-xTB          :
 * total energy  :   -82.9632253 Eh     change       -0.1450928E-10 Eh
 * total energy  :   -82.9754627 Eh     change       -0.1223736E-01 Eh
 * total energy  :   -82.9809427 Eh     change       -0.5479991E-02 Eh
 * total energy  :   -82.9821486 Eh     change       -0.1205895E-02 Eh
 * total energy  :   -82.9828200 Eh     change       -0.6714880E-03 Eh
 * total energy  :   -82.9831520 Eh     change       -0.3319445E-03 Eh
 * total energy  :   -82.9833333 Eh     change       -0.1812808E-03 Eh
 * total energy  :   -82.9834371 Eh     change       -0.1038022E-03 Eh
 * total energy  :   -82.9835234 Eh     change       -0.8634191E-04 Eh
 * total energy  :   -82.9836047 Eh     change       -0.8128097E-04 Eh
 * total energy  :   -82.9837436 Eh     change       -0.2170916E-04 Eh
 * total energy  :   -82.9837588 Eh     change       -0.1525492E-04 Eh
 * total energy  :   -82.9837757 Eh     change       -0.1680382E-04 Eh
 * total energy  :   -82.9837861 Eh     change       -0.1044290E-04 Eh
 * total energy  :   -82.9837968 Eh     change       -0.1065923E-04 Eh
 * total energy  :   -82.9838076 Eh     change       -0.1080059E-04 Eh
 * total energy  :   -82.9838163 Eh     change       -0.8718507E-05 Eh
 * total energy  :   -82.9838234 Eh     change       -0.7092018E-05 Eh
 * total energy  :   -82.9838277 Eh     change       -0.4293271E-05 Eh
   *** GEOMETRY OPTIMIZATION CONVERGED AFTER 22 ITERATIONS ***

 final structure:
================
42
 xtb: 6.5.1 (579679a)
C           -4.23333834226997        3.56157467732901        0.04043919425885
O           -3.92429180468842        2.17871347007596       -0.17999853363325
C           -2.80715285561478        1.72270890008646        0.35445836720715
O           -2.03502109194977        2.38041770636358        1.00441728855211
C           -2.57684632129826        0.25761360536965        0.03502033335399
C           -3.71007364766458       -0.65028465294539       -0.30475487063534
O           -4.85024356113353       -0.45716209396125        0.02998493420995
C           -3.28734045875481       -1.89927186288488       -1.08343853340551
O           -4.06301888112470       -2.55603845572426       -1.74645846849769
N           -1.97239811932620       -2.18799287715227       -0.98701552507264
C           -1.00267443518596       -1.50497605330645       -0.15272033434358
C           -0.91723696706530       -2.21434524556628        1.20830612759364
C            0.37420078039617       -1.44840213703582       -0.89046950920546
C            0.18990434655894       -0.78799324750017       -2.26190801928113
C            1.00899752419676       -2.83290835693113       -1.02759409088633
N            1.21943059080322       -0.59544781746737       -0.05600816615883
C            2.51680860594613       -0.33024838039690       -0.32267666925473
O            3.18921587990989       -0.85317197687256       -1.19257676276462
C            3.04227052306867        0.69259137704183        0.61871983245715
N            2.35932343728638        1.32088641946599        1.52777963419371
N            3.22414691439944        2.16718048936436        2.15382215902964
C            4.38027204401292        2.00156313123863        1.58567161063388
C            5.65193291259813        2.68699591352662        1.90498539633110
O            4.32902187898803        1.08518073793132        0.60775724318022
N           -1.37139541429766       -0.14865507658538        0.11340872506046
H           -4.37356815900951        3.74429328015403        1.10763732499991
H           -3.41998424860090        4.18728614813927       -0.33231335114236
H           -5.15182964170940        3.76338264264202       -0.50598146529648
H           -1.69024136187727       -3.06868992221001       -1.38994456009284
H           -0.72582569381946       -3.27335551679575        1.05644284299298
H           -0.11792483090935       -1.78165401899864        1.80563645864166
H           -1.86491024497436       -2.09555022547747        1.73042009312470
H           -0.46070748559225       -1.39911446214660       -2.88407739197949
H            1.15703638967838       -0.68924643908237       -2.75210143750585
H           -0.25343278974826        0.19979859269465       -2.14321201889301
H            1.88825374324130       -2.77132747078390       -1.66666927991305
H            0.30629348807259       -3.52922370317931       -1.47943138013877
H            1.31392036311066       -3.21408776465824       -0.05511448729594
H            0.73983429754760        0.02026396152304        0.59105346954805
H            5.51253802281521        3.33571536289860        2.76613979678396
H            6.42636105675885        1.95147475198543        2.12067662702608
H            5.97969055721985        3.28092958982725        1.05168839621739

          :  Hamiltonian                  GFN1-xTB          :
         :: total energy             -82.983827658067 Eh    ::
         :: gradient norm              0.000481429589 Eh/a0 ::
         :: HOMO-LUMO gap              1.760265360879 eV    ::
         :: SCC energy               -83.764852817805 Eh    ::
         :: -> Gsolv                  -0.053406107502 Eh    ::
         :: repulsion energy           0.808324760675 Eh    ::

    * Orbital Energies and Occupations

         #    Occupation            Energy/Eh            Energy/eV
      -------------------------------------------------------------
         1        2.0000           -0.8650269             -23.5386
       ...           ...                  ...                  ...
        55        2.0000           -0.5085122             -13.8373
        56        2.0000           -0.5071565             -13.8004
        57        2.0000           -0.5056572             -13.7596
        58        2.0000           -0.5024243             -13.6717
        59        2.0000           -0.4977456             -13.5443
        60        2.0000           -0.4842664             -13.1776
        61        2.0000           -0.4837280             -13.1629
        62        2.0000           -0.4714172             -12.8279
        63        2.0000           -0.4655922             -12.6694
        64        2.0000           -0.4609855             -12.5441
        65        2.0000           -0.4537236             -12.3464
        66        2.0000           -0.4484380             -12.2026
        67        2.0000           -0.4403206             -11.9817 (HOMO)
        68                         -0.3756321             -10.2215 (LUMO)
        69                         -0.3216729              -8.7532
        70                         -0.3124075              -8.5010
        71                         -0.2581974              -7.0259
        72                         -0.2531735              -6.8892
        73                         -0.2070462              -5.6340
        74                         -0.2007609              -5.4630
        75                         -0.1441910              -3.9236
        76                         -0.1436926              -3.9101
        77                         -0.1432717              -3.8986
        78                         -0.1390719              -3.7843
       ...                                ...                  ...
       134                          0.7657469              20.8370
      -------------------------------------------------------------
                  HL-Gap            0.0646886 Eh            1.7603 eV

Wiberg/Mayer (AO) data.
largest (>0.10) Wiberg bond orders for each atom

     #   Z sym  total        # sym  WBO       # sym  WBO       # sym  WBO
 ---------------------------------------------------------------------------
     1   6 C    3.858 --    28 H    0.985    27 H    0.979    26 H    0.978
                             2 O    0.884
     2   8 O    2.226 --     3 C    1.148     1 C    0.884     4 O    0.147
     3   6 C    3.854 --     4 O    1.685     2 O    1.148     5 C    0.944
     4   8 O    1.949 --     3 C    1.685     2 O    0.147
     5   6 C    3.952 --    25 N    1.791     6 C    0.992     3 C    0.944
     6   6 C    3.856 --     7 O    1.805     5 C    0.992     8 C    0.906
     7   8 O    2.011 --     6 C    1.805
     8   6 C    3.903 --     9 O    1.636    10 N    1.247     6 C    0.906
     9   8 O    1.930 --     8 C    1.636    10 N    0.184
    10   7 N    3.362 --     8 C    1.247    11 C    0.940    29 H    0.882
                             9 O    0.184
    11   6 C    3.913 --    25 N    1.000    12 C    0.947    10 N    0.940
                            13 C    0.929
    12   6 C    3.982 --    32 H    0.982    31 H    0.981    30 H    0.980
                            11 C    0.947
    13   6 C    3.929 --    15 C    0.999    14 C    0.991    16 N    0.934
                            11 C    0.929
    14   6 C    3.990 --    13 C    0.991    33 H    0.984    35 H    0.984
                            34 H    0.981
    15   6 C    3.989 --    13 C    0.999    38 H    0.982    37 H    0.981
                            36 H    0.974
    16   7 N    3.341 --    17 C    1.245    13 C    0.934    39 H    0.886
                            18 O    0.175
    17   6 C    3.916 --    18 O    1.598    16 N    1.245    19 C    0.989
    18   8 O    1.914 --    17 C    1.598    16 N    0.175
    19   6 C    3.875 --    20 N    1.611    24 O    1.064    17 C    0.989
    20   7 N    3.017 --    19 C    1.611    21 N    1.200
    21   7 N    2.981 --    22 C    1.605    20 N    1.200
    22   6 C    3.871 --    21 N    1.605    24 O    1.083    23 C    1.031
    23   6 C    3.986 --    22 C    1.031    40 H    0.982    41 H    0.965
                            42 H    0.962
    24   8 O    2.330 --    22 C    1.083    19 C    1.064
    25   7 N    3.065 --     5 C    1.791    11 C    1.000
    26   1 H    1.004 --     1 C    0.978
    27   1 H    1.005 --     1 C    0.979
    28   1 H    1.008 --     1 C    0.985
    29   1 H    0.929 --    10 N    0.882
    30   1 H    0.999 --    12 C    0.980
    31   1 H    0.999 --    12 C    0.981
    32   1 H    0.999 --    12 C    0.982
    33   1 H    1.002 --    14 C    0.984
    34   1 H    1.004 --    14 C    0.981
    35   1 H    1.004 --    14 C    0.984
    36   1 H    1.009 --    15 C    0.974
    37   1 H    0.998 --    15 C    0.981
    38   1 H    1.001 --    15 C    0.982
    39   1 H    0.969 --    16 N    0.886
    40   1 H    0.998 --    23 C    0.982
    41   1 H    0.997 --    23 C    0.965
    42   1 H    0.997 --    23 C    0.962
 ---------------------------------------------------------------------------

           -------------------------------------------------
          | TOTAL ENERGY              -82.983827658067 Eh   |
          | GRADIENT NORM               0.000481429589 Eh/α |
          | HOMO-LUMO GAP               1.760265360879 eV   |
           -------------------------------------------------

 * finished run on 2023/06/21 at 17:25:35.619
