   * xtb version 6.5.1 (579679a) compiled by 'ehlert@majestix' on 2022-07-11
          program call               : /lustre/hpc/kemi/ree/PhD/git/ReactivityQM/dep/xtb-6.5.1/bin/xtb --gfn 1 /lustre/hpc/kemi/ree/PhD/git/ReactivityQM/calculations/RaltegravirCLI/reac01prodN07/conf03/RaltegravirCLI_reac01prodN07_conf03_gfn1.xyz --opt --vfukui --chrg 1 --uhf 0 --alpb DMSO

   ID    Z sym.   atoms
    1    6 C      1, 3, 5, 8, 9
    2    8 O      2, 10
    3   17 Cl     4
    4    7 N      6, 7
    5    1 H      11-16

      * Solvation model:               ALPB
        Solvent                        DMSO
        Solvent mass                       7.8130E+01 g/mol
          :  Hamiltonian                  GFN1-xTB          :
 * total energy  :   -33.4083981 Eh     change       -0.1764278E-10 Eh
 * total energy  :   -33.4153386 Eh     change       -0.6940429E-02 Eh
 * total energy  :   -33.4173863 Eh     change       -0.2047760E-02 Eh
 * total energy  :   -33.4178897 Eh     change       -0.5033299E-03 Eh
 * total energy  :   -33.4183235 Eh     change       -0.4338691E-03 Eh
 * total energy  :   -33.4186042 Eh     change       -0.2806510E-03 Eh
 * total energy  :   -33.4187625 Eh     change       -0.1582986E-03 Eh
 * total energy  :   -33.4188394 Eh     change       -0.7694120E-04 Eh
 * total energy  :   -33.4188698 Eh     change       -0.3037196E-04 Eh
 * total energy  :   -33.4188824 Eh     change       -0.1261674E-04 Eh
 * total energy  :   -33.4188843 Eh     change       -0.1932129E-05 Eh
   *** GEOMETRY OPTIMIZATION CONVERGED AFTER 11 ITERATIONS ***

 final structure:
================
16
 xtb: 6.5.1 (579679a)
C            3.28877840933237       -0.13274584603945        0.70354129508745
O            1.87980565212489       -0.02707565690838        0.45425222197463
C            1.34153203335006       -0.22321235966407       -0.68771514705656
Cl           2.23253063880431       -0.62759259739382       -2.03153966908690
C           -0.06997892751863       -0.08291633235473       -0.78098045751738
N           -0.82474974851252       -0.24125079879717       -1.85166778366141
N           -2.07587673082800       -0.01779034735871       -1.48516928399723
C           -2.06053042518200        0.27321713405787       -0.19459534207844
C           -3.21314544771066        0.59138811054355        0.66282579455433
O           -0.82847199387287        0.24487459458302        0.28746640049255
H            3.42035289256593        0.11762926268990        1.75388749291256
H            3.61559641300311       -1.15260127040183        0.49726303238122
H            3.82426604711668        0.56640317592884        0.06051515642155
H           -3.82962471674677       -0.30064232038721        0.78947186481284
H           -3.82814705215958        1.35481371302504        0.18613151298031
H           -2.87233904376632        0.93506453847712        1.63631391178052

          :  Hamiltonian                  GFN1-xTB          :
         :: total energy             -33.418884335537 Eh    ::
         :: gradient norm              0.000433313246 Eh/a0 ::
         :: HOMO-LUMO gap              2.395583507643 eV    ::
         :: SCC energy               -33.697226958467 Eh    ::
         :: -> Gsolv                  -0.080413454654 Eh    ::
         :: repulsion energy           0.285075220767 Eh    ::

    * Orbital Energies and Occupations

         #    Occupation            Energy/Eh            Energy/eV
      -------------------------------------------------------------
         1        2.0000           -1.0219139             -27.8077
       ...           ...                  ...                  ...
        15        2.0000           -0.6305333             -17.1577
        16        2.0000           -0.6009514             -16.3527
        17        2.0000           -0.5854537             -15.9310
        18        2.0000           -0.5810563             -15.8113
        19        2.0000           -0.5729295             -15.5902
        20        2.0000           -0.5594962             -15.2247
        21        2.0000           -0.5584741             -15.1969
        22        2.0000           -0.5573642             -15.1667
        23        2.0000           -0.5450945             -14.8328
        24        2.0000           -0.5336416             -14.5211
        25        2.0000           -0.5312280             -14.4555
        26        2.0000           -0.5019006             -13.6574
        27        2.0000           -0.4996138             -13.5952 (HOMO)
        28                         -0.4115777             -11.1996 (LUMO)
        29                         -0.3049560              -8.2983
        30                         -0.2839689              -7.7272
        31                         -0.2656566              -7.2289
        32                         -0.1736584              -4.7255
        33                         -0.1620905              -4.4107
        34                         -0.1477950              -4.0217
        35                         -0.1462395              -3.9794
        36                         -0.1453865              -3.9562
        37                         -0.1084043              -2.9498
        38                         -0.1022865              -2.7834
       ...                                ...                  ...
        57                          0.5205886              14.1659
      -------------------------------------------------------------
                  HL-Gap            0.0880361 Eh            2.3956 eV

Wiberg/Mayer (AO) data.
largest (>0.10) Wiberg bond orders for each atom

     #   Z sym  total        # sym  WBO       # sym  WBO       # sym  WBO
 ---------------------------------------------------------------------------
     1   6 C    3.807 --    11 H    0.977    13 H    0.966    12 H    0.964
                             2 O    0.847
     2   8 O    2.367 --     3 C    1.310     1 C    0.847     4 Cl   0.106
     3   6 C    3.879 --     2 O    1.310     4 Cl   1.220     5 C    1.176
     4  17 Cl   1.462 --     3 C    1.220     2 O    0.106
     5   6 C    3.889 --     6 N    1.455     3 C    1.176    10 O    1.041
     6   7 N    3.021 --     5 C    1.455     7 N    1.348
     7   7 N    2.993 --     8 C    1.449     6 N    1.348
     8   6 C    3.841 --     7 N    1.449    10 O    1.139     9 C    1.048
     9   6 C    3.973 --     8 C    1.048    16 H    0.977    15 H    0.953
                            14 H    0.940
    10   8 O    2.365 --     8 C    1.139     5 C    1.041
    11   1 H    0.997 --     1 C    0.977
    12   1 H    0.995 --     1 C    0.964
    13   1 H    0.995 --     1 C    0.966
    14   1 H    0.983 --     9 C    0.940
    15   1 H    0.986 --     9 C    0.953
    16   1 H    0.991 --     9 C    0.977
 ---------------------------------------------------------------------------

           -------------------------------------------------
          | TOTAL ENERGY              -33.418884335537 Eh   |
          | GRADIENT NORM               0.000433313246 Eh/α |
          | HOMO-LUMO GAP               2.395583507643 eV   |
           -------------------------------------------------

 * finished run on 2023/06/20 at 14:55:31.682
