   * xtb version 6.5.1 (579679a) compiled by 'ehlert@majestix' on 2022-07-11
          program call               : /lustre/hpc/kemi/ree/PhD/git/ReactivityQM/dep/xtb-6.5.1/bin/xtb --gfn 1 /lustre/hpc/kemi/ree/PhD/git/ReactivityQM/calculations/R01/reac01prodN03/conf01/R01_reac01prodN03_conf01_gfn1.xyz --opt --vfukui --chrg 1 --uhf 0 --alpb DMSO

   ID    Z sym.   atoms
    1    6 C      1, 3, 5, 7, 8, 11
    2    8 O      2, 4, 6
    3    7 N      9, 10
    4    1 H      12-20

      * Solvation model:               ALPB
        Solvent                        DMSO
        Solvent mass                       7.8130E+01 g/mol
          :  Hamiltonian                  GFN1-xTB          :
 * total energy  :   -37.6202322 Eh     change       -0.2557243E-10 Eh
 * total energy  :   -37.6365337 Eh     change       -0.1630148E-01 Eh
 * total energy  :   -37.6425200 Eh     change       -0.5986286E-02 Eh
 * total energy  :   -37.6433595 Eh     change       -0.8394664E-03 Eh
 * total energy  :   -37.6436478 Eh     change       -0.2883460E-03 Eh
 * total energy  :   -37.6436850 Eh     change       -0.3718749E-04 Eh
 * total energy  :   -37.6437088 Eh     change       -0.2385400E-04 Eh
 * total energy  :   -37.6437399 Eh     change       -0.3103796E-04 Eh
 * total energy  :   -37.6437686 Eh     change       -0.2871699E-04 Eh
 * total energy  :   -37.6438057 Eh     change       -0.3711961E-04 Eh
 * total energy  :   -37.6442487 Eh     change       -0.1926726E-04 Eh
 * total energy  :   -37.6442686 Eh     change       -0.1987454E-04 Eh
 * total energy  :   -37.6442999 Eh     change       -0.3125063E-04 Eh
 * total energy  :   -37.6443112 Eh     change       -0.1132252E-04 Eh
 * total energy  :   -37.6443271 Eh     change       -0.1593052E-04 Eh
 * total energy  :   -37.6443464 Eh     change       -0.1933424E-04 Eh
 * total energy  :   -37.6443567 Eh     change       -0.1030424E-04 Eh
 * total energy  :   -37.6443628 Eh     change       -0.6074854E-05 Eh
 * total energy  :   -37.6443661 Eh     change       -0.3293099E-05 Eh
   *** GEOMETRY OPTIMIZATION CONVERGED AFTER 31 ITERATIONS ***

 final structure:
================
20
 xtb: 6.5.1 (579679a)
C            3.49000302402933        0.64237959345711        0.24607751098207
O            2.13291021040673        0.18137705431013        0.06297287344563
C            1.17095433531862        1.03173446460533        0.33425250283025
O            1.28100453885474        2.15705915618061        0.71974274705457
C           -0.16874721666982        0.38147106249059        0.08133016105801
O           -1.30975378836609        1.02569586451549        0.25708654265025
C           -2.28186474305479        0.16140085052153       -0.05995136708180
C           -3.69932076988141        0.55050082327558        0.00659571367990
N           -1.77934964231820       -0.98910975440295       -0.42204990213480
N           -0.45294211300282       -0.83579835853986       -0.32946114059820
C            0.42398432357129       -1.93462182624295       -0.67171794326467
H            3.66889150912648        0.81933081549008        1.30728220209237
H            3.63890056780977        1.56389841470793       -0.31810390470642
H            4.12829116077907       -0.15362566403853       -0.12798412155160
H           -3.92199773777656        0.96793981675243        0.98901040506838
H           -4.33001434602273       -0.31399968934880       -0.18697549898541
H           -3.89820365232435        1.32454696635899       -0.73707444221130
H            1.05047431981946       -2.16408668175952        0.18826967875429
H            1.05288019010366       -1.63069914784151       -1.50692446626205
H           -0.19610017040255       -2.78539376049081       -0.94146455081964

          :  Hamiltonian                  GFN1-xTB          :
         :: total energy             -37.644366117946 Eh    ::
         :: gradient norm              0.000286337495 Eh/a0 ::
         :: HOMO-LUMO gap              3.655684965786 eV    ::
         :: SCC energy               -37.999151528729 Eh    ::
         :: -> Gsolv                  -0.081161866928 Eh    ::
         :: repulsion energy           0.363121960480 Eh    ::

    * Orbital Energies and Occupations

         #    Occupation            Energy/Eh            Energy/eV
      -------------------------------------------------------------
         1        2.0000           -0.9439774             -25.6869
       ...           ...                  ...                  ...
        18        2.0000           -0.6268607             -17.0577
        19        2.0000           -0.6086559             -16.5624
        20        2.0000           -0.6081557             -16.5488
        21        2.0000           -0.5934760             -16.1493
        22        2.0000           -0.5876484             -15.9907
        23        2.0000           -0.5743986             -15.6302
        24        2.0000           -0.5685311             -15.4705
        25        2.0000           -0.5615402             -15.2803
        26        2.0000           -0.5522934             -15.0287
        27        2.0000           -0.5441848             -14.8080
        28        2.0000           -0.5334520             -14.5160
        29        2.0000           -0.5322143             -14.4823
        30        2.0000           -0.5221474             -14.2084 (HOMO)
        31                         -0.3878034             -10.5527 (LUMO)
        32                         -0.3290687              -8.9544
        33                         -0.2702196              -7.3530
        34                         -0.1755158              -4.7760
        35                         -0.1693376              -4.6079
        36                         -0.1570641              -4.2739
        37                         -0.1120089              -3.0479
        38                         -0.1070446              -2.9128
        39                         -0.1003302              -2.7301
        40                         -0.0997112              -2.7133
        41                         -0.0921906              -2.5086
       ...                                ...                  ...
        62                          0.7338485              19.9690
      -------------------------------------------------------------
                  HL-Gap            0.1343440 Eh            3.6557 eV

Wiberg/Mayer (AO) data.
largest (>0.10) Wiberg bond orders for each atom

     #   Z sym  total        # sym  WBO       # sym  WBO       # sym  WBO
 ---------------------------------------------------------------------------
     1   6 C    3.824 --    14 H    0.983    13 H    0.977    12 H    0.975
                             2 O    0.853
     2   8 O    2.236 --     3 C    1.161     1 C    0.853     4 O    0.158
     3   6 C    3.882 --     4 O    1.711     2 O    1.161     5 C    0.940
     4   8 O    1.996 --     3 C    1.711     2 O    0.158
     5   6 C    3.852 --    10 N    1.449     6 O    1.136     3 C    0.940
     6   8 O    2.390 --     5 C    1.136     7 C    1.087
     7   6 C    3.837 --     9 N    1.547     6 O    1.087     8 C    1.045
     8   6 C    3.968 --     7 C    1.045    16 H    0.976    15 H    0.951
                            17 H    0.943
     9   7 N    2.967 --     7 C    1.547    10 N    1.177
    10   7 N    3.669 --     5 C    1.449     9 N    1.177    11 C    0.908
    11   6 C    3.876 --    20 H    0.978    18 H    0.962    19 H    0.961
                            10 N    0.908
    12   1 H    0.998 --     1 C    0.975
    13   1 H    0.998 --     1 C    0.977
    14   1 H    1.003 --     1 C    0.983
    15   1 H    0.988 --     8 C    0.951
    16   1 H    0.990 --     8 C    0.976
    17   1 H    0.987 --     8 C    0.943
    18   1 H    0.995 --    11 C    0.962
    19   1 H    0.994 --    11 C    0.961
    20   1 H    0.992 --    11 C    0.978
 ---------------------------------------------------------------------------

           -------------------------------------------------
          | TOTAL ENERGY              -37.644366117946 Eh   |
          | GRADIENT NORM               0.000286337495 Eh/α |
          | HOMO-LUMO GAP               3.655684965786 eV   |
           -------------------------------------------------

 * finished run on 2023/06/20 at 14:55:24.901
