   * xtb version 6.5.1 (579679a) compiled by 'ehlert@majestix' on 2022-07-11
          program call               : /lustre/hpc/kemi/ree/PhD/git/ReactivityQM/dep/xtb-6.5.1/bin/xtb --gfn 1 /lustre/hpc/kemi/ree/PhD/git/ReactivityQM/calculations/R03/reac02prodE02/conf17/R03_reac02prodE02_conf17_gfn1.xyz --opt --vfukui --chrg -1 --uhf 0 --alpb DMSO

   ID    Z sym.   atoms
    1    6 C      1, 3, 4, 6, 8-11, 13, 15, 18, 19, 22, 23, 25
    2    8 O      2, 5, 14, 20, 24, 26
    3    7 N      7, 12, 16, 17, 21
    4    1 H      27-46

      * Solvation model:               ALPB
        Solvent                        DMSO
        Solvent mass                       7.8130E+01 g/mol
          :  Hamiltonian                  GFN1-xTB          :
 * total energy  :   -87.0235033 Eh     change       -0.3288392E-10 Eh
 * total energy  :   -87.0373010 Eh     change       -0.1379764E-01 Eh
 * total energy  :   -87.0427969 Eh     change       -0.5495929E-02 Eh
 * total energy  :   -87.0441001 Eh     change       -0.1303171E-02 Eh
 * total energy  :   -87.0447401 Eh     change       -0.6400305E-03 Eh
 * total energy  :   -87.0450369 Eh     change       -0.2967593E-03 Eh
 * total energy  :   -87.0452251 Eh     change       -0.1881895E-03 Eh
 * total energy  :   -87.0453402 Eh     change       -0.1151734E-03 Eh
 * total energy  :   -87.0454185 Eh     change       -0.7828034E-04 Eh
 * total energy  :   -87.0454775 Eh     change       -0.5903320E-04 Eh
 * total energy  :   -87.0459296 Eh     change       -0.1088535E-04 Eh
 * total energy  :   -87.0459429 Eh     change       -0.1332438E-04 Eh
 * total energy  :   -87.0459592 Eh     change       -0.1630579E-04 Eh
 * total energy  :   -87.0459705 Eh     change       -0.1130972E-04 Eh
 * total energy  :   -87.0459858 Eh     change       -0.1531725E-04 Eh
 * total energy  :   -87.0459940 Eh     change       -0.8131032E-05 Eh
 * total energy  :   -87.0459963 Eh     change       -0.2375294E-05 Eh
 * total energy  :   -87.0460065 Eh     change       -0.1019739E-04 Eh
 * total energy  :   -87.0460094 Eh     change       -0.2898748E-05 Eh
   *** GEOMETRY OPTIMIZATION CONVERGED AFTER 41 ITERATIONS ***

 final structure:
================
46
 xtb: 6.5.1 (579679a)
C           -5.10530366508613        2.26754082331885       -1.20636354390467
O           -4.11460736595095        1.42265170238000       -1.72973224213661
C           -4.05844536966261        0.00623830348806       -1.13532738782609
C           -3.56882645851790       -0.81851865557790       -2.37061115379662
O           -5.15159572160701       -0.40459366540834       -0.60244083900183
C           -2.85210929902460        0.10691816564557       -0.10538516760155
N           -1.70573127386320       -0.57096484672475       -0.41647950334065
C           -0.68014081000949       -0.60815088986882        0.37067159065672
C            0.51917727815868       -1.42047617028667       -0.11237670960370
C            0.26584404707353       -1.90229423199711       -1.54812175044648
C            0.75411919997558       -2.63335121746359        0.79925395037775
N            1.68906269806956       -0.52788087727574       -0.13761072797984
C            2.94964793787688       -0.95046282250254       -0.37281758461307
O            3.31936031167381       -2.10922312524313       -0.42876892356137
C            3.86486368831004        0.21024622205226       -0.54015237887720
N            3.51269504089399        1.46035401137702       -0.58104596868247
N            4.65038672051939        2.18427116868518       -0.77018975879248
C            5.62630836023332        1.32848744655586       -0.83366586193810
C            7.06782993000300        1.61361463921856       -1.01675862813598
O            5.19351669848903        0.06755089440746       -0.69790982336483
N           -0.67758254041355        0.02976190198526        1.58499256520576
C            0.42641854903358        0.00532598718496        2.54071370737475
C           -1.79761699555955        0.73398510108250        2.01160937137926
O           -1.82030216624736        1.30183837384789        3.11070516189928
C           -2.91001406341266        0.75722288568671        1.09541929095469
O           -3.98494181891121        1.46855178705014        1.53019757832820
H           -5.59059509966404        2.81307132292462       -2.02738323486386
H           -4.67754115025177        3.00658594070560       -0.51100665870887
H           -5.88101125846803        1.69978707122480       -0.66824878481038
H           -4.37560355184517       -0.83556974970900       -3.10179729133675
H           -3.34878252204637       -1.83747157374144       -2.05668337929045
H           -2.68189405458934       -0.37383933601703       -2.81821588742035
H           -0.60177843929999       -2.55951421821406       -1.56882772661612
H            0.08215873295753       -1.05244677063017       -2.20387855377813
H            1.13647156246557       -2.44820546609650       -1.90674811559772
H           -0.20437585762018       -3.09512117894617        1.03406112911174
H            1.38021138420879       -3.36732799001669        0.29583804999882
H            1.24493380263743       -2.34698174612142        1.72519981792610
H            1.51198162356560        0.46042005237148       -0.25373893848244
H            7.21053127651508        2.29117332688881       -1.85721496602794
H            7.60904107122167        0.68785507136310       -1.19573783098690
H            7.46761601942019        2.09252093581180       -0.12257287310604
H            0.41993471664423        0.94852526444680        3.08777143148857
H            1.37661492859731       -0.10780849251472        2.03043041171081
H            0.28229139404114       -0.81203781023559        3.24796660798170
H           -3.77221449053546        1.81773743488559        2.41161053023384

          :  Hamiltonian                  GFN1-xTB          :
         :: total energy             -87.046009435468 Eh    ::
         :: gradient norm              0.000967482817 Eh/a0 ::
         :: HOMO-LUMO gap              0.913056696180 eV    ::
         :: SCC energy               -87.842948134329 Eh    ::
         :: -> Gsolv                  -0.130940812313 Eh    ::
         :: repulsion energy           0.826415488619 Eh    ::

    * Orbital Energies and Occupations

         #    Occupation            Energy/Eh            Energy/eV
      -------------------------------------------------------------
         1        2.0000           -0.8628312             -23.4788
       ...           ...                  ...                  ...
        59        2.0000           -0.4630162             -12.5993
        60        2.0000           -0.4579367             -12.4611
        61        2.0000           -0.4537206             -12.3464
        62        2.0000           -0.4506586             -12.2630
        63        2.0000           -0.4467691             -12.1572
        64        2.0000           -0.4434942             -12.0681
        65        2.0000           -0.4361768             -11.8690
        66        2.0000           -0.4298616             -11.6971
        67        2.0000           -0.4198926             -11.4259
        68        2.0000           -0.4028165             -10.9612
        69        2.0000           -0.3891487             -10.5893
        70        2.0000           -0.3647402              -9.9251
        71        2.0000           -0.3420345              -9.3072 (HOMO)
        72                         -0.3084803              -8.3942 (LUMO)
        73                         -0.2737809              -7.4500
        74                         -0.2562649              -6.9733
        75                         -0.2494343              -6.7875
        76                         -0.1972757              -5.3681
        77                         -0.1419943              -3.8639
        78                         -0.1412501              -3.8436
        79                         -0.1332242              -3.6252
        80                         -0.1177924              -3.2053
        81                         -0.1142437              -3.1087
        82                         -0.0947248              -2.5776
       ...                                ...                  ...
       144                          0.7296388              19.8545
      -------------------------------------------------------------
                  HL-Gap            0.0335542 Eh            0.9131 eV

Wiberg/Mayer (AO) data.
largest (>0.10) Wiberg bond orders for each atom

     #   Z sym  total        # sym  WBO       # sym  WBO       # sym  WBO
 ---------------------------------------------------------------------------
     1   6 C    3.934 --    27 H    0.983    28 H    0.981     2 O    0.978
                            29 H    0.969
     2   8 O    1.929 --     1 C    0.978     3 C    0.757
     3   6 C    3.897 --     5 O    1.271     4 C    0.941     6 C    0.876
                             2 O    0.757
     4   6 C    3.992 --    32 H    0.989    30 H    0.987    31 H    0.987
                             3 C    0.941
     5   8 O    1.569 --     3 C    1.271
     6   6 C    3.913 --    25 C    1.512     7 N    1.202     3 C    0.876
     7   7 N    3.039 --     8 C    1.566     6 C    1.202
     8   6 C    3.937 --     7 N    1.566    21 N    1.169     9 C    0.973
     9   6 C    3.930 --    10 C    0.991    11 C    0.987     8 C    0.973
                            12 N    0.913
    10   6 C    3.992 --     9 C    0.991    34 H    0.984    33 H    0.984
                            35 H    0.984
    11   6 C    3.990 --     9 C    0.987    36 H    0.985    38 H    0.981
                            37 H    0.979
    12   7 N    3.349 --    13 C    1.248     9 C    0.913    39 H    0.897
                            14 O    0.176
    13   6 C    3.917 --    14 O    1.597    12 N    1.248    15 C    0.986
    14   8 O    1.911 --    13 C    1.597    12 N    0.176
    15   6 C    3.873 --    16 N    1.609    20 O    1.063    13 C    0.986
    16   7 N    3.018 --    15 C    1.609    17 N    1.202
    17   7 N    2.979 --    18 C    1.602    16 N    1.202
    18   6 C    3.871 --    17 N    1.602    20 O    1.086    19 C    1.030
    19   6 C    3.986 --    18 C    1.030    41 H    0.982    40 H    0.969
                            42 H    0.960
    20   8 O    2.333 --    18 C    1.086    15 C    1.063
    21   7 N    3.495 --     8 C    1.169    23 C    1.110    22 C    0.937
                            24 O    0.122
    22   6 C    3.934 --    44 H    0.979    45 H    0.977    43 H    0.975
                            21 N    0.937
    23   6 C    3.909 --    24 O    1.505    25 C    1.129    21 N    1.110
    24   8 O    1.856 --    23 C    1.505    21 N    0.122
    25   6 C    3.914 --     6 C    1.512    23 C    1.129    26 O    1.048
    26   8 O    2.043 --    25 C    1.048    46 H    0.830
    27   1 H    1.023 --     1 C    0.983
    28   1 H    1.029 --     1 C    0.981
    29   1 H    1.034 --     1 C    0.969
    30   1 H    1.021 --     4 C    0.987
    31   1 H    1.020 --     4 C    0.987
    32   1 H    1.019 --     4 C    0.989
    33   1 H    1.012 --    10 C    0.984
    34   1 H    1.012 --    10 C    0.984
    35   1 H    1.005 --    10 C    0.984
    36   1 H    1.003 --    11 C    0.985
    37   1 H    1.013 --    11 C    0.979
    38   1 H    1.004 --    11 C    0.981
    39   1 H    0.957 --    12 N    0.897
    40   1 H    0.998 --    19 C    0.969
    41   1 H    0.997 --    19 C    0.982
    42   1 H    0.997 --    19 C    0.960
    43   1 H    1.011 --    22 C    0.975
    44   1 H    1.011 --    22 C    0.979
    45   1 H    1.004 --    22 C    0.977
    46   1 H    0.873 --    26 O    0.830
 ---------------------------------------------------------------------------

           -------------------------------------------------
          | TOTAL ENERGY              -87.046009435468 Eh   |
          | GRADIENT NORM               0.000967482817 Eh/α |
          | HOMO-LUMO GAP               0.913056696180 eV   |
           -------------------------------------------------

 * finished run on 2023/06/20 at 15:15:29.874
