   * xtb version 6.5.1 (579679a) compiled by 'ehlert@majestix' on 2022-07-11
          program call               : /lustre/hpc/kemi/ree/PhD/git/ReactivityQM/dep/xtb-6.5.1/bin/xtb --gfn 1 /lustre/hpc/kemi/ree/PhD/git/ReactivityQM/calculations/RaltegravirCLI/reac01prodE06/conf10/RaltegravirCLI_reac01prodE06_conf10_gfn1.xyz --opt --vfukui --chrg -1 --uhf 0 --alpb DMSO

   ID    Z sym.   atoms
    1    6 C      1, 3, 5, 8, 9
    2    8 O      2, 10
    3   17 Cl     4
    4    7 N      6, 7
    5    1 H      11-16

      * Solvation model:               ALPB
        Solvent                        DMSO
        Solvent mass                       7.8130E+01 g/mol
          :  Hamiltonian                  GFN1-xTB          :
 * total energy  :   -34.1180853 Eh     change       -0.4973799E-12 Eh
 * total energy  :   -34.1235026 Eh     change       -0.5417321E-02 Eh
 * total energy  :   -34.1257513 Eh     change       -0.2248680E-02 Eh
 * total energy  :   -34.1263975 Eh     change       -0.6462654E-03 Eh
 * total energy  :   -34.1272274 Eh     change       -0.8298496E-03 Eh
 * total energy  :   -34.1278601 Eh     change       -0.6326857E-03 Eh
 * total energy  :   -34.1284174 Eh     change       -0.5573775E-03 Eh
 * total energy  :   -34.1291055 Eh     change       -0.6880947E-03 Eh
 * total energy  :   -34.1294326 Eh     change       -0.3270513E-03 Eh
 * total energy  :   -34.1296555 Eh     change       -0.2229008E-03 Eh
 * total energy  :   -34.1304217 Eh     change       -0.5315085E-05 Eh
 * total energy  :   -34.1304329 Eh     change       -0.1114614E-04 Eh
 * total energy  :   -34.1304486 Eh     change       -0.1571434E-04 Eh
 * total energy  :   -34.1304189 Eh     change        0.2971660E-04 Eh
 * total energy  :   -34.1304609 Eh     change       -0.4209757E-04 Eh
 * total energy  :   -34.1304696 Eh     change       -0.8622305E-05 Eh
 * total energy  :   -34.1304833 Eh     change       -0.1370906E-04 Eh
 * total energy  :   -34.1304917 Eh     change       -0.8413255E-05 Eh
 * total energy  :   -34.1304966 Eh     change       -0.4923204E-05 Eh
   *** GEOMETRY OPTIMIZATION CONVERGED AFTER 34 ITERATIONS ***

 final structure:
================
16
 xtb: 6.5.1 (579679a)
C           -2.67037986536400        0.43220437029634       -0.12575395543038
O           -2.26406049198801       -0.05524356511162        1.15383832536367
C           -1.35911060578419       -1.09165820027145        1.18962561617941
Cl          -2.13225983768778       -2.69823809923703        0.75043726258049
C           -0.08714206060573       -0.93997413317509        0.61403071128631
N            0.81648439223791       -1.88526690849313        0.36186877845466
N            2.00989651084969       -1.22849433809240        0.11268783218807
C            1.78647201792932        0.03134366794391        0.22993470341894
C            2.75782878224007        1.14404677748148        0.06057109741339
O            0.48972075034774        0.31186371158366        0.54725650891129
H           -3.11950978282383       -0.36819122881180       -0.72657625713867
H           -3.41511210056233        1.21136542597689        0.04620390291557
H           -1.82204731100622        0.85883165874236       -0.67499976022080
H            2.41352406663732        1.83790254915623       -0.70648491584368
H            2.87178699225247        1.70083914600505        0.99135840493222
H            3.72390954332696        0.73866816600723       -0.23211825501031

          :  Hamiltonian                  GFN1-xTB          :
         :: total energy             -34.130496617760 Eh    ::
         :: gradient norm              0.000927471124 Eh/a0 ::
         :: HOMO-LUMO gap              2.976320364934 eV    ::
         :: SCC energy               -34.379194413772 Eh    ::
         :: -> Gsolv                  -0.094070272600 Eh    ::
         :: repulsion energy           0.255837297348 Eh    ::

    * Orbital Energies and Occupations

         #    Occupation            Energy/Eh            Energy/eV
      -------------------------------------------------------------
         1        2.0000           -0.8471709             -23.0527
       ...           ...                  ...                  ...
        16        2.0000           -0.5138885             -13.9836
        17        2.0000           -0.5084817             -13.8365
        18        2.0000           -0.4880577             -13.2807
        19        2.0000           -0.4845064             -13.1841
        20        2.0000           -0.4670134             -12.7081
        21        2.0000           -0.4475046             -12.1772
        22        2.0000           -0.4341282             -11.8132
        23        2.0000           -0.4323581             -11.7651
        24        2.0000           -0.4240181             -11.5381
        25        2.0000           -0.4093238             -11.1383
        26        2.0000           -0.3964984             -10.7893
        27        2.0000           -0.3840545             -10.4507
        28        2.0000           -0.3090064              -8.4085 (HOMO)
        29                         -0.1996286              -5.4322 (LUMO)
        30                         -0.1804498              -4.9103
        31                         -0.1345136              -3.6603
        32                         -0.1200393              -3.2664
        33                         -0.1083084              -2.9472
        34                         -0.0537990              -1.4639
        35                         -0.0530600              -1.4438
        36                         -0.0472086              -1.2846
        37                         -0.0428840              -1.1669
        38                          0.0163791               0.4457
        39                          0.0208923               0.5685
       ...                                ...                  ...
        57                          0.6357418              17.2994
      -------------------------------------------------------------
                  HL-Gap            0.1093778 Eh            2.9763 eV

Wiberg/Mayer (AO) data.
largest (>0.10) Wiberg bond orders for each atom

     #   Z sym  total        # sym  WBO       # sym  WBO       # sym  WBO
 ---------------------------------------------------------------------------
     1   6 C    3.932 --    12 H    0.987    13 H    0.982    11 H    0.982
                             2 O    0.932
     2   8 O    2.057 --     3 C    1.006     1 C    0.932
     3   6 C    3.429 --     5 C    1.338     2 O    1.006     4 Cl   0.804
                             6 N    0.145
     4  17 Cl   0.912 --     3 C    0.804
     5   6 C    3.855 --     6 N    1.407     3 C    1.338    10 O    0.982
     6   7 N    2.864 --     5 C    1.407     7 N    1.141     3 C    0.145
     7   7 N    2.983 --     8 C    1.678     6 N    1.141
     8   6 C    3.890 --     7 N    1.678    10 O    1.020     9 C    1.020
     9   6 C    3.995 --     8 C    1.020    16 H    0.986    14 H    0.974
                            15 H    0.973
    10   8 O    2.221 --     8 C    1.020     5 C    0.982
    11   1 H    1.019 --     1 C    0.982
    12   1 H    1.021 --     1 C    0.987
    13   1 H    1.019 --     1 C    0.982
    14   1 H    1.005 --     9 C    0.974
    15   1 H    1.005 --     9 C    0.973
    16   1 H    1.006 --     9 C    0.986
 ---------------------------------------------------------------------------

           -------------------------------------------------
          | TOTAL ENERGY              -34.130496617760 Eh   |
          | GRADIENT NORM               0.000927471124 Eh/α |
          | HOMO-LUMO GAP               2.976320364934 eV   |
           -------------------------------------------------

 * finished run on 2023/06/20 at 14:54:02.931
