                         Program Version 5.0.1 -  RELEASE  -
|  1> # ORCA input file
|  2> ! SP r2SCAN-3c CPCM
|  3>
|  4> %maxcore 1875.0
|  5> %pal nprocs 4 end
|  6> %cpcm smd true SMDsolvent "DMSO" end
|  7>
|  8> *xyz -1 1
|  9> C       2.708826   -0.325617   -0.204833
| 10> C       1.248206   -0.208504    0.053835
| 11> N       0.457554   -1.193681    0.234412
| 12> N      -0.848590   -0.650256    0.472382
| 13> C      -1.757914   -1.186519   -0.551661
| 14> C      -0.660890    0.795441    0.363596
| 15> C      -1.550129    1.685770    0.827746
| 16> O      -2.739384    1.611836    1.141648
| 17> Cl     -0.824308    3.466883    0.745642
| 18> O       0.708321    1.019865    0.105299
| 19> H       2.988041   -1.374521   -0.263793
| 20> H       2.960356    0.171068   -1.141177
| 21> H       3.272718    0.155060    0.594530
| 22> H      -1.427678   -0.920581   -1.560231
| 23> H      -2.749921   -0.776247   -0.366658
| 24> H      -1.785211   -2.269999   -0.450736
| 25> **                         ****END OF INPUT****

CARTESIAN COORDINATES (ANGSTROEM)
---------------------------------
  C      2.708826   -0.325617   -0.204833
  C      1.248206   -0.208504    0.053835
  N      0.457554   -1.193681    0.234412
  N     -0.848590   -0.650256    0.472382
  C     -1.757914   -1.186519   -0.551661
  C     -0.660890    0.795441    0.363596
  C     -1.550129    1.685770    0.827746
  O     -2.739384    1.611836    1.141648
  Cl    -0.824308    3.466883    0.745642
  O      0.708321    1.019865    0.105299
  H      2.988041   -1.374521   -0.263793
  H      2.960356    0.171068   -1.141177
  H      3.272718    0.155060    0.594530
  H     -1.427678   -0.920581   -1.560231
  H     -2.749921   -0.776247   -0.366658
  H     -1.785211   -2.269999   -0.450736

 Total Charge           Charge          ....   -1
 Multiplicity           Mult            ....    1
 Number of Electrons    NEL             ....   84
 Basis Dimension        Dim             ....  248

ORBITAL ENERGIES
----------------

  NO   OCC          E(Eh)            E(eV)
   0   2.0000    -101.158184     -2752.6541
   1   2.0000     -18.994721      -516.8726
   2   2.0000     -18.889887      -514.0200
   3   2.0000     -14.186124      -386.0241
   4   2.0000     -14.160616      -385.3300
   5   2.0000     -10.113420      -275.2001
   6   2.0000     -10.088680      -274.5269
   7   2.0000     -10.066713      -273.9292
   8   2.0000     -10.035247      -273.0729
   9   2.0000     -10.030232      -272.9365
  10   2.0000      -9.314553      -253.4619
  11   2.0000      -7.059230      -192.0914
  12   2.0000      -7.051575      -191.8831
  13   2.0000      -7.051206      -191.8731
  14   2.0000      -1.072420       -29.1820
  15   2.0000      -0.954736       -25.9797
  16   2.0000      -0.925445       -25.1826
  17   2.0000      -0.802533       -21.8380
  18   2.0000      -0.738648       -20.0996
  19   2.0000      -0.701057       -19.0767
  20   2.0000      -0.665921       -18.1206
  21   2.0000      -0.601062       -16.3557
  22   2.0000      -0.550551       -14.9812
  23   2.0000      -0.511395       -13.9158
  24   2.0000      -0.447858       -12.1868
  25   2.0000      -0.438731       -11.9385
  26   2.0000      -0.401207       -10.9174
  27   2.0000      -0.387616       -10.5476
  28   2.0000      -0.383408       -10.4331
  29   2.0000      -0.372434       -10.1344
  30   2.0000      -0.368871       -10.0375
  31   2.0000      -0.357155        -9.7187
  32   2.0000      -0.351945        -9.5769
  33   2.0000      -0.329713        -8.9720
  34   2.0000      -0.322205        -8.7676
  35   2.0000      -0.275704        -7.5023
  36   2.0000      -0.267137        -7.2692
  37   2.0000      -0.246482        -6.7071
  38   2.0000      -0.244817        -6.6618
  39   2.0000      -0.219978        -5.9859
  40   2.0000      -0.209396        -5.6979
  41   2.0000      -0.115512        -3.1433
  42   0.0000       0.004748         0.1292
  43   0.0000       0.018657         0.5077
  44   0.0000       0.054646         1.4870
  45   0.0000       0.084795         2.3074
  46   0.0000       0.106500         2.8980

MULLIKEN ATOMIC CHARGES
-----------------------
   0 C :   -0.646990
   1 C :    0.372160
   2 N :   -0.322649
   3 N :   -0.157716
   4 C :   -0.376012
   5 C :   -0.051152
   6 C :    0.040642
   7 O :   -0.428331
   8 Cl:   -0.411198
   9 O :   -0.081013
  10 H :    0.192479
  11 H :    0.186353
  12 H :    0.187278
  13 H :    0.154125
  14 H :    0.176313
  15 H :    0.165710
Sum of atomic charges:   -1.0000000

LOEWDIN ATOMIC CHARGES
----------------------
   0 C :   -0.327365
   1 C :    0.347379
   2 N :   -0.422637
   3 N :   -0.647781
   4 C :   -0.113369
   5 C :    0.233978
   6 C :    0.088156
   7 O :   -0.609394
   8 Cl:   -0.122903
   9 O :   -0.501566
  10 H :    0.182325
  11 H :    0.182347
  12 H :    0.181730
  13 H :    0.164823
  14 H :    0.184387
  15 H :    0.179892

  Mayer bond orders larger than 0.100000
B(  0-C ,  1-C ) :   0.8443 B(  0-C , 10-H ) :   0.9966 B(  0-C , 11-H ) :   0.9499
B(  0-C , 12-H ) :   0.9453 B(  1-C ,  2-N ) :   1.7689 B(  1-C ,  9-O ) :   1.0788
B(  2-N ,  3-N ) :   1.1790 B(  3-N ,  4-C ) :   0.9007 B(  3-N ,  5-C ) :   0.8956
B(  4-C , 13-H ) :   0.9525 B(  4-C , 14-H ) :   0.9624 B(  4-C , 15-H ) :   0.9685
B(  5-C ,  6-C ) :   1.5226 B(  5-C ,  9-O ) :   0.9192 B(  6-C ,  7-O ) :   1.7847
B(  6-C ,  8-Cl) :   0.7972

Dispersion correction           -0.005613188
FINAL SINGLE POINT ENERGY      -914.267438551412

DIPOLE MOMENT
-------------
                                X             Y             Z
Electronic contribution:     -3.26135      11.57766       4.12559
Nuclear contribution   :      5.84672     -13.16696      -5.54812
                        -----------------------------------------
Total Dipole Moment    :      2.58537      -1.58930      -1.42254
                        -----------------------------------------
Magnitude (a.u.)       :      3.35166
Magnitude (Debye)      :      8.51924

Rotational constants in cm-1:     0.058249     0.029004     0.020166
Rotational constants in MHz :  1746.265492   869.524581   604.551370

                             ****ORCA TERMINATED NORMALLY****
TOTAL RUN TIME: 0 days 0 hours 0 minutes 27 seconds 988 msec
