   * xtb version 6.5.1 (579679a) compiled by 'ehlert@majestix' on 2022-07-11
          program call               : /lustre/hpc/kemi/ree/PhD/git/ReactivityQM/dep/xtb-6.5.1/bin/xtb --gfn 1 /lustre/hpc/kemi/ree/PhD/git/ReactivityQM/calculations/RaltegravirCLI/reac01prodE04/conf09/RaltegravirCLI_reac01prodE04_conf09_gfn1.xyz --opt --vfukui --chrg -1 --uhf 0 --alpb DMSO

   ID    Z sym.   atoms
    1    6 C      1, 2, 5-7
    2    7 N      3, 4
    3    8 O      8, 10
    4   17 Cl     9
    5    1 H      11-16

      * Solvation model:               ALPB
        Solvent                        DMSO
        Solvent mass                       7.8130E+01 g/mol
          :  Hamiltonian                  GFN1-xTB          :
 * total energy  :   -34.1284944 Eh     change       -0.1251266E-10 Eh
 * total energy  :   -34.1338837 Eh     change       -0.5389322E-02 Eh
 * total energy  :   -34.1363609 Eh     change       -0.2477176E-02 Eh
 * total energy  :   -34.1375508 Eh     change       -0.1189892E-02 Eh
 * total energy  :   -34.1404129 Eh     change       -0.2862077E-02 Eh
 * total energy  :   -34.1415006 Eh     change       -0.1087725E-02 Eh
 * total energy  :   -34.1434879 Eh     change       -0.1987357E-02 Eh
 * total energy  :   -34.1444969 Eh     change       -0.1008993E-02 Eh
 * total energy  :   -34.1467000 Eh     change       -0.2203043E-02 Eh
 * total energy  :   -34.1478315 Eh     change       -0.1131480E-02 Eh
 * total energy  :   -34.1514294 Eh     change       -0.1900516E-04 Eh
 * total energy  :   -34.1514321 Eh     change       -0.2675064E-05 Eh
 * total energy  :   -34.1514506 Eh     change       -0.1853199E-04 Eh
 * total energy  :   -34.1514576 Eh     change       -0.7040612E-05 Eh
 * total energy  :   -34.1514677 Eh     change       -0.1011422E-04 Eh
 * total energy  :   -34.1514842 Eh     change       -0.1643171E-04 Eh
 * total energy  :   -34.1514912 Eh     change       -0.6999124E-05 Eh
 * total energy  :   -34.1514990 Eh     change       -0.7874200E-05 Eh
 * total energy  :   -34.1515005 Eh     change       -0.1469936E-05 Eh
   *** GEOMETRY OPTIMIZATION CONVERGED AFTER 42 ITERATIONS ***

 final structure:
================
16
 xtb: 6.5.1 (579679a)
C            2.70882619820812       -0.32561675812386       -0.20483308695620
C            1.24820636722533       -0.20850366162568        0.05383491399904
N            0.45755440132028       -1.19368065547495        0.23441170175840
N           -0.84858955470765       -0.65025576725358        0.47238186355879
C           -1.75791390719025       -1.18651929801973       -0.55166120483602
C           -0.66088982987928        0.79544071781681        0.36359611037817
C           -1.55012939472398        1.68577044489890        0.82774628189673
O           -2.73938423912769        1.61183647881086        1.14164799020975
Cl          -0.82430821161360        3.46688348245497        0.74564225449502
O            0.70832126676072        1.01986537455821        0.10529869971914
H            2.98804128307348       -1.37452053907043       -0.26379259040233
H            2.96035569873856        0.17106841437921       -1.14117730469065
H            3.27271808599697        0.15505974443169        0.59453015213882
H           -1.42767751741791       -0.92058146222262       -1.56023144564735
H           -2.74992074361512       -0.77624680101921       -0.36665797336366
H           -1.78521090304816       -2.26999871454088       -0.45073636225765

          :  Hamiltonian                  GFN1-xTB          :
         :: total energy             -34.151500514577 Eh    ::
         :: gradient norm              0.000612798055 Eh/a0 ::
         :: HOMO-LUMO gap              2.679355973074 eV    ::
         :: SCC energy               -34.422818201237 Eh    ::
         :: -> Gsolv                  -0.094315161687 Eh    ::
         :: repulsion energy           0.278744168949 Eh    ::

    * Orbital Energies and Occupations

         #    Occupation            Energy/Eh            Energy/eV
      -------------------------------------------------------------
         1        2.0000           -0.8442165             -22.9723
       ...           ...                  ...                  ...
        16        2.0000           -0.5186800             -14.1140
        17        2.0000           -0.5142565             -13.9936
        18        2.0000           -0.5114527             -13.9173
        19        2.0000           -0.4996224             -13.5954
        20        2.0000           -0.4952129             -13.4754
        21        2.0000           -0.4773826             -12.9902
        22        2.0000           -0.4409140             -11.9979
        23        2.0000           -0.4398579             -11.9691
        24        2.0000           -0.4365896             -11.8802
        25        2.0000           -0.4277278             -11.6391
        26        2.0000           -0.4118713             -11.2076
        27        2.0000           -0.4039884             -10.9931
        28        2.0000           -0.3200741              -8.7097 (HOMO)
        29                         -0.2216096              -6.0303 (LUMO)
        30                         -0.1788301              -4.8662
        31                         -0.1562245              -4.2511
        32                         -0.1274720              -3.4687
        33                         -0.1012763              -2.7559
        34                         -0.0607757              -1.6538
        35                         -0.0599129              -1.6303
        36                         -0.0489328              -1.3315
        37                         -0.0447135              -1.2167
        38                         -0.0090180              -0.2454
        39                          0.0217148               0.5909
       ...                                ...                  ...
        57                          0.7884372              21.4545
      -------------------------------------------------------------
                  HL-Gap            0.0984645 Eh            2.6794 eV

Wiberg/Mayer (AO) data.
largest (>0.10) Wiberg bond orders for each atom

     #   Z sym  total        # sym  WBO       # sym  WBO       # sym  WBO
 ---------------------------------------------------------------------------
     1   6 C    3.994 --     2 C    1.018    11 H    0.986    12 H    0.971
                            13 H    0.970
     2   6 C    3.902 --     3 N    1.722    10 O    1.070     1 C    1.018
     3   7 N    2.956 --     2 C    1.722     4 N    0.991    10 O    0.124
     4   7 N    3.081 --     3 N    0.991     5 C    0.962     6 C    0.949
     5   6 C    3.975 --    16 H    0.989    15 H    0.987    14 H    0.984
                             4 N    0.962
     6   6 C    3.737 --     7 C    1.597     4 N    0.949    10 O    0.906
                             8 O    0.188
     7   6 C    3.885 --     6 C    1.597     8 O    1.520     9 Cl   0.644
     8   8 O    1.878 --     7 C    1.520     6 C    0.188     9 Cl   0.115
     9  17 Cl   0.812 --     7 C    0.644     8 O    0.115
    10   8 O    2.195 --     2 C    1.070     6 C    0.906     3 N    0.124
    11   1 H    1.004 --     1 C    0.986
    12   1 H    1.002 --     1 C    0.971
    13   1 H    1.002 --     1 C    0.970
    14   1 H    1.015 --     5 C    0.984
    15   1 H    1.022 --     5 C    0.987
    16   1 H    1.021 --     5 C    0.989
 ---------------------------------------------------------------------------

           -------------------------------------------------
          | TOTAL ENERGY              -34.151500514577 Eh   |
          | GRADIENT NORM               0.000612798055 Eh/α |
          | HOMO-LUMO GAP               2.679355973074 eV   |
           -------------------------------------------------

 * finished run on 2023/06/20 at 14:53:32.705
