   * xtb version 6.5.1 (579679a) compiled by 'ehlert@majestix' on 2022-07-11
          program call               : /lustre/hpc/kemi/ree/PhD/git/ReactivityQM/dep/xtb-6.5.1/bin/xtb --gfn 1 /lustre/hpc/kemi/ree/PhD/git/ReactivityQM/calculations/R02methylcation/reac01prodN14/conf20/R02methylcation_reac01prodN14_conf20_gfn1.xyz --opt --vfukui --chrg 0 --uhf 0 --alpb DMSO

   ID    Z sym.   atoms
    1    6 C      1, 3, 5, 6, 8, 9, 12-15, 17, 19, 22, 23
    2    8 O      2, 4, 7, 10, 18, 24
    3    7 N      11, 16, 20, 21, 25
    4    1 H      26-42

      * Solvation model:               ALPB
        Solvent                        DMSO
        Solvent mass                       7.8130E+01 g/mol
          :  Hamiltonian                  GFN1-xTB          :
 * total energy  :   -82.8920883 Eh     change       -0.1278977E-12 Eh
 * total energy  :   -82.9084633 Eh     change       -0.1637498E-01 Eh
 * total energy  :   -82.9185173 Eh     change       -0.1005406E-01 Eh
 * total energy  :   -82.9205065 Eh     change       -0.1989190E-02 Eh
 * total energy  :   -82.9221904 Eh     change       -0.1683891E-02 Eh
 * total energy  :   -82.9231289 Eh     change       -0.9385289E-03 Eh
 * total energy  :   -82.9240863 Eh     change       -0.9573509E-03 Eh
 * total energy  :   -82.9248214 Eh     change       -0.7350798E-03 Eh
 * total energy  :   -82.9254754 Eh     change       -0.6540657E-03 Eh
 * total energy  :   -82.9260410 Eh     change       -0.5655748E-03 Eh
 * total energy  :   -82.9768845 Eh     change       -0.1295313E-04 Eh
 * total energy  :   -82.9768990 Eh     change       -0.1449972E-04 Eh
 * total energy  :   -82.9769127 Eh     change       -0.1368408E-04 Eh
 * total energy  :   -82.9769237 Eh     change       -0.1108091E-04 Eh
 * total energy  :   -82.9769299 Eh     change       -0.6206236E-05 Eh
 * total energy  :   -82.9769365 Eh     change       -0.6519633E-05 Eh
 * total energy  :   -82.9769414 Eh     change       -0.4958549E-05 Eh
 * total energy  :   -82.9769456 Eh     change       -0.4233592E-05 Eh
 * total energy  :   -82.9769486 Eh     change       -0.2979714E-05 Eh
   *** GEOMETRY OPTIMIZATION CONVERGED AFTER 94 ITERATIONS ***

 final structure:
================
42
 xtb: 6.5.1 (579679a)
C           -5.39890395107766       -2.58734264436624        1.52437257003671
O           -4.24678788097813       -1.89411220592444        1.04333404668055
C           -4.14448288133302       -0.59931175709526        1.39848065763551
O           -4.97991030131793       -0.03718791953483        2.07773943613502
C           -2.93548230598524        0.01897344911649        0.87555220124320
C           -2.54248124904377        1.32861400471243        1.08718362936463
O           -2.90753983326233        2.33981312416858        1.61215389838731
C           -1.13476826162557        2.46065941398770       -0.71599283274599
C           -2.30411518130505        2.42480086472724       -1.62847317336078
O           -0.26527450619499        3.27280553024057       -0.68006217739776
N           -1.11559583725333        1.38643710921507        0.29647450491417
C           -1.01395116212613       -0.00337102946453       -0.21161938968313
C            0.18799096512042       -0.47534413722804       -0.97999589352566
C            0.24993076549851        0.18802800468949       -2.36277315837873
C            0.10322247325368       -2.00140227427048       -1.11320343396271
N            1.37689050578617       -0.11076222392663       -0.19724879702021
C            2.64031646243292       -0.38758435625089       -0.60064821765459
O            2.95824591570343       -0.83061000368945       -1.68757401233068
C            3.61084722699708       -0.05886110330777        0.47342508841050
N            3.31419731403547        0.37103106694404        1.66344308109221
N            4.49124487394644        0.52985230393067        2.32849372442193
C            5.43268169100893        0.18493148245096        1.50195729731076
C            6.89125416479854        0.17960246278253        1.74812513183226
O            4.93915671534456       -0.19735800774011        0.31507952203310
N           -2.01534150895474       -0.70380906161750        0.12461942398251
H           -5.40439073851873       -2.60103978310522        2.61774167264079
H           -5.33532005972231       -3.60275961919087        1.13726498781022
H           -6.31141179429730       -2.10368554581336        1.16562856330863
H           -2.06184132262488        2.94486154414662       -2.55227852876047
H           -3.11913525335703        2.95849985215887       -1.13396503751345
H           -2.62883951874515        1.40750534484660       -1.82975633837145
H           -0.38208362417471        1.60879057355538        0.96667637747708
H            1.05162471281185       -0.25314637918511       -2.95196081405215
H           -0.69425924178295        0.03163768066400       -2.88114748775376
H            0.43402617123663        1.25547348428692       -2.26317854582775
H            0.08473009496314       -2.46089149325248       -0.12646873560391
H           -0.80851104461894       -2.26759316494626       -1.64526530237057
H            0.96376371597778       -2.37116706846222       -1.66709501375903
H            1.24928947140815        0.13014741634393        0.77357372434751
H            7.09567773912996        0.57235935718105        2.74108534419444
H            7.39745934636945        0.78932187074738        1.00026024964248
H            7.27787913248340       -0.83680716252950        1.67255575716727

          :  Hamiltonian                  GFN1-xTB          :
         :: total energy             -82.976948629001 Eh    ::
         :: gradient norm              0.000416131486 Eh/a0 ::
         :: HOMO-LUMO gap              2.610388780047 eV    ::
         :: SCC energy               -83.774744576820 Eh    ::
         :: -> Gsolv                  -0.058031631728 Eh    ::
         :: repulsion energy           0.824464685027 Eh    ::

    * Orbital Energies and Occupations

         #    Occupation            Energy/Eh            Energy/eV
      -------------------------------------------------------------
         1        2.0000           -0.8673899             -23.6029
       ...           ...                  ...                  ...
        55        2.0000           -0.5085205             -13.8375
        56        2.0000           -0.5080267             -13.8241
        57        2.0000           -0.5065747             -13.7846
        58        2.0000           -0.4947403             -13.4626
        59        2.0000           -0.4876846             -13.2706
        60        2.0000           -0.4854600             -13.2100
        61        2.0000           -0.4726875             -12.8625
        62        2.0000           -0.4682121             -12.7407
        63        2.0000           -0.4648129             -12.6482
        64        2.0000           -0.4615308             -12.5589
        65        2.0000           -0.4553521             -12.3908
        66        2.0000           -0.4519572             -12.2984
        67        2.0000           -0.4209309             -11.4541 (HOMO)
        68                         -0.3250008              -8.8437 (LUMO)
        69                         -0.3150232              -8.5722
        70                         -0.3055842              -8.3154
        71                         -0.2754103              -7.4943
        72                         -0.2590808              -7.0499
        73                         -0.2028755              -5.5205
        74                         -0.1689490              -4.5973
        75                         -0.1610307              -4.3819
        76                         -0.1477166              -4.0196
        77                         -0.1431721              -3.8959
        78                         -0.1415309              -3.8513
       ...                                ...                  ...
       134                          0.8430901              22.9416
      -------------------------------------------------------------
                  HL-Gap            0.0959300 Eh            2.6104 eV

Wiberg/Mayer (AO) data.
largest (>0.10) Wiberg bond orders for each atom

     #   Z sym  total        # sym  WBO       # sym  WBO       # sym  WBO
 ---------------------------------------------------------------------------
     1   6 C    3.879 --    27 H    0.986    26 H    0.980    28 H    0.980
                             2 O    0.906
     2   8 O    2.171 --     3 C    1.074     1 C    0.906     4 O    0.120
     3   6 C    3.865 --     4 O    1.615     5 C    1.082     2 O    1.074
     4   8 O    1.891 --     3 C    1.615     2 O    0.120
     5   6 C    3.885 --     6 C    1.351    25 N    1.112     3 C    1.082
                             7 O    0.139
     6   6 C    3.866 --     7 O    1.686     5 C    1.351    11 N    0.663
     7   8 O    2.033 --     6 C    1.686     5 C    0.139
     8   6 C    3.830 --    10 O    1.811     9 C    1.026    11 N    0.893
     9   6 C    3.983 --     8 C    1.026    31 H    0.971    29 H    0.969
                            30 H    0.932
    10   8 O    2.039 --     8 C    1.811
    11   7 N    3.548 --     8 C    0.893    32 H    0.869    12 C    0.862
                             6 C    0.663
    12   6 C    3.889 --    25 N    1.781    13 C    0.990    11 N    0.862
    13   6 C    3.935 --    12 C    0.990    15 C    0.985    14 C    0.979
                            16 N    0.919
    14   6 C    3.986 --    34 H    0.985    35 H    0.981    13 C    0.979
                            33 H    0.975
    15   6 C    3.987 --    36 H    0.985    13 C    0.985    37 H    0.984
                            38 H    0.982
    16   7 N    3.323 --    17 C    1.233    13 C    0.919    39 H    0.895
                            18 O    0.173
    17   6 C    3.914 --    18 O    1.606    16 N    1.233    19 C    0.991
    18   8 O    1.921 --    17 C    1.606    16 N    0.173
    19   6 C    3.876 --    20 N    1.607    24 O    1.065    17 C    0.991
    20   7 N    3.020 --    19 C    1.607    21 N    1.203
    21   7 N    2.981 --    22 C    1.602    20 N    1.203
    22   6 C    3.870 --    21 N    1.602    24 O    1.084    23 C    1.032
    23   6 C    3.986 --    22 C    1.032    40 H    0.982    41 H    0.964
                            42 H    0.962
    24   8 O    2.332 --    22 C    1.084    19 C    1.065
    25   7 N    3.063 --    12 C    1.781     5 C    1.112
    26   1 H    1.009 --     1 C    0.980
    27   1 H    1.012 --     1 C    0.986
    28   1 H    1.009 --     1 C    0.980
    29   1 H    0.994 --     9 C    0.969
    30   1 H    0.991 --     9 C    0.932
    31   1 H    0.997 --     9 C    0.971
    32   1 H    0.920 --    11 N    0.869
    33   1 H    1.009 --    14 C    0.975
    34   1 H    1.002 --    14 C    0.985
    35   1 H    1.003 --    14 C    0.981
    36   1 H    1.004 --    15 C    0.985
    37   1 H    1.005 --    15 C    0.984
    38   1 H    1.005 --    15 C    0.982
    39   1 H    0.952 --    16 N    0.895
    40   1 H    0.998 --    23 C    0.982
    41   1 H    0.996 --    23 C    0.964
    42   1 H    0.996 --    23 C    0.962
 ---------------------------------------------------------------------------

           -------------------------------------------------
          | TOTAL ENERGY              -82.976948629001 Eh   |
          | GRADIENT NORM               0.000416131486 Eh/α |
          | HOMO-LUMO GAP               2.610388780047 eV   |
           -------------------------------------------------

 * finished run on 2023/06/21 at 17:53:52.819
