   * xtb version 6.5.1 (579679a) compiled by 'ehlert@majestix' on 2022-07-11
          program call               : /lustre/hpc/kemi/ree/PhD/git/ReactivityQM/dep/xtb-6.5.1/bin/xtb --gfn 1 /lustre/hpc/kemi/ree/PhD/git/ReactivityQM/calculations/R02deprot/reac01prodE12/conf07/R02deprot_reac01prodE12_conf07_gfn1.xyz --opt --vfukui --chrg -2 --uhf 0 --alpb DMSO

   ID    Z sym.   atoms
    1    6 C      1, 3, 5, 6, 8, 9, 12-15, 17, 19, 22, 23
    2    8 O      2, 4, 7, 10, 18, 24
    3    7 N      11, 16, 20, 21, 25
    4    1 H      26-42

      * Solvation model:               ALPB
        Solvent                        DMSO
        Solvent mass                       7.8130E+01 g/mol
          :  Hamiltonian                  GFN1-xTB          :
 * total energy  :   -83.5658285 Eh     change       -0.4939693E-10 Eh
 * total energy  :   -83.5766649 Eh     change       -0.1083639E-01 Eh
 * total energy  :   -83.5809874 Eh     change       -0.4322508E-02 Eh
 * total energy  :   -83.5815590 Eh     change       -0.5716045E-03 Eh
 * total energy  :   -83.5819832 Eh     change       -0.4241700E-03 Eh
 * total energy  :   -83.5822069 Eh     change       -0.2237478E-03 Eh
 * total energy  :   -83.5824875 Eh     change       -0.2805946E-03 Eh
 * total energy  :   -83.5827659 Eh     change       -0.2783783E-03 Eh
 * total energy  :   -83.5829434 Eh     change       -0.1775043E-03 Eh
 * total energy  :   -83.5830669 Eh     change       -0.1234902E-03 Eh
 * total energy  :   -83.5885209 Eh     change       -0.8089802E-05 Eh
 * total energy  :   -83.5885278 Eh     change       -0.6902324E-05 Eh
 * total energy  :   -83.5885339 Eh     change       -0.6087827E-05 Eh
 * total energy  :   -83.5885396 Eh     change       -0.5664370E-05 Eh
 * total energy  :   -83.5885452 Eh     change       -0.5627484E-05 Eh
 * total energy  :   -83.5885509 Eh     change       -0.5699231E-05 Eh
 * total energy  :   -83.5885566 Eh     change       -0.5623102E-05 Eh
 * total energy  :   -83.5885616 Eh     change       -0.5025897E-05 Eh
 * total energy  :   -83.5885659 Eh     change       -0.4352321E-05 Eh
   *** GEOMETRY OPTIMIZATION CONVERGED AFTER 151 ITERATIONS ***

 final structure:
================
42
 xtb: 6.5.1 (579679a)
C           -5.67733180586680       -1.71231911727165       -1.40623127102946
O           -4.34733361121052       -1.34407535648988       -1.08295694249249
C           -4.15704480906272       -0.85011209803024        0.17516554052028
O           -5.12157918088618       -0.75110514916483        0.94436206648394
C           -2.79106380260147       -0.48759296459784        0.48007962943736
C           -2.44811365060467        0.01580985813461        1.71016108233851
O           -3.36292863889782        0.23861484558608        2.68917717074218
C           -0.95804992500517        0.23737598325374        2.13758958011184
C           -0.86887198778054        1.71408305071722        2.69998824710934
O           -0.56391244978733       -0.67840872293091        2.99691040584152
N           -0.12386964695873        0.27355639317902        0.87295082213390
C           -0.61714810307216       -0.20171733280005       -0.22722333114183
C            0.34402522371876       -0.25811496722482       -1.43454838659024
C           -0.08703960416914        0.80088691514841       -2.45944002070532
C            0.31116309617888       -1.65762363545445       -2.06183123061563
N            1.68286187230818        0.04092787370237       -0.93004531251736
C            2.79155900455037        0.07130657885723       -1.66522518682007
O            2.85543881653645       -0.13650512843791       -2.88067842147220
C            4.02672586827159        0.36592275553187       -0.89133382007372
N            5.24289298642867        0.42186785004909       -1.36017877578676
N            6.06356655112344        0.67986224210295       -0.29800049242909
C            5.30363022267815        0.76351815188796        0.74836314608203
C            5.72460545763281        1.03588928489211        2.14173301343334
O            4.00671508409811        0.57617819905307        0.44772689490629
N           -1.84531600011556       -0.63180662908784       -0.53738121955482
H           -5.66798619844497       -2.09055150497710       -2.42812845504233
H           -6.04286367865003       -2.49159907765408       -0.72914660164447
H           -6.34808578613353       -0.84942660091088       -1.33990749216186
H           -4.25674213210166       -0.02051310805551        2.37759056666476
H           -1.20896458836109        2.43450346864621        1.95554258014693
H            0.16824284302480        1.92484642008364        2.95803949839857
H           -1.48230594517547        1.79743946413034        3.59694954726796
H            0.51560535791612        0.74487398220557       -3.36584383860062
H            0.01222766613934        1.79860007896822       -2.03116596404317
H           -1.13328712062421        0.63142952400168       -2.71606158478944
H           -0.72655441866044       -1.91776936366493       -2.27460554823230
H            0.88313365650171       -1.69047942453685       -2.98879351272968
H            0.72129675469012       -2.39239172035963       -1.36792461530580
H            1.69671294327838        0.27358691367704        0.06968990132506
H            6.80925597047642        1.00822211652447        2.20273533898147
H            5.37541817869017        2.01983414480687        2.45516958279318
H            5.30131452993132        0.29297380650292        2.81672740904722

          :  Hamiltonian                  GFN1-xTB          :
         :: total energy             -83.588565929061 Eh    ::
         :: gradient norm              0.000173442130 Eh/a0 ::
         :: HOMO-LUMO gap              0.164631835953 eV    ::
         :: SCC energy               -84.314667843422 Eh    ::
         :: -> Gsolv                  -0.282465457747 Eh    ::
         :: repulsion energy           0.751482274058 Eh    ::

    * Orbital Energies and Occupations

         #    Occupation            Energy/Eh            Energy/eV
      -------------------------------------------------------------
         1        2.0000           -0.8416065             -22.9013
       ...           ...                  ...                  ...
        56        2.0000           -0.4355666             -11.8524
        57        2.0000           -0.4343773             -11.8200
        58        2.0000           -0.4240711             -11.5396
        59        2.0000           -0.4156413             -11.3102
        60        2.0000           -0.4095076             -11.1433
        61        2.0000           -0.4058004             -11.0424
        62        2.0000           -0.4022645             -10.9462
        63        2.0000           -0.3726945             -10.1415
        64        2.0000           -0.3631348              -9.8814
        65        2.0000           -0.3304969              -8.9933
        66        2.0000           -0.3043973              -8.2831
        67        2.0000           -0.2993723              -8.1463
        68        1.9205           -0.2875525              -7.8247 (HOMO)
        69        0.0795           -0.2815024              -7.6601 (LUMO)
        70                         -0.2383084              -6.4847
        71                         -0.2331696              -6.3449
        72                         -0.1681010              -4.5743
        73                         -0.1575549              -4.2873
        74                         -0.1344534              -3.6587
        75                         -0.1151177              -3.1325
        76                         -0.0956142              -2.6018
        77                         -0.0900648              -2.4508
        78                         -0.0873700              -2.3775
        79                         -0.0672368              -1.8296
       ...                                ...                  ...
       134                          0.7248559              19.7243
      -------------------------------------------------------------
                  HL-Gap            0.0060501 Eh            0.1646 eV

Wiberg/Mayer (AO) data.
largest (>0.10) Wiberg bond orders for each atom

     #   Z sym  total        # sym  WBO       # sym  WBO       # sym  WBO
 ---------------------------------------------------------------------------
     1   6 C    3.905 --    26 H    0.987    28 H    0.980    27 H    0.980
                             2 O    0.932
     2   8 O    2.148 --     3 C    1.033     1 C    0.932
     3   6 C    3.829 --     4 O    1.518     5 C    1.128     2 O    1.033
     4   8 O    1.873 --     3 C    1.518
     5   6 C    3.950 --     6 C    1.487     3 C    1.128    25 N    1.114
     6   6 C    3.830 --     5 C    1.487     7 O    1.066     8 C    0.896
     7   8 O    2.043 --     6 C    1.066    29 H    0.810
     8   6 C    3.940 --    10 O    1.179     9 C    0.920     6 C    0.896
                            11 N    0.879
     9   6 C    3.980 --    30 H    0.991    32 H    0.989    31 H    0.988
                             8 C    0.920
    10   8 O    1.458 --     8 C    1.179
    11   7 N    2.931 --    12 C    1.568     8 C    0.879    25 N    0.175
    12   6 C    3.962 --    11 N    1.568    25 N    1.334    13 C    0.941
    13   6 C    3.911 --    15 C    0.990    14 C    0.985    12 C    0.941
                            16 N    0.916
    14   6 C    3.994 --    34 H    0.987    13 C    0.985    33 H    0.985
                            35 H    0.985
    15   6 C    3.995 --    13 C    0.990    38 H    0.987    37 H    0.985
                            36 H    0.982
    16   7 N    3.391 --    17 C    1.322    13 C    0.916    39 H    0.864
                            18 O    0.185
    17   6 C    3.907 --    18 O    1.510    16 N    1.322    19 C    0.996
    18   8 O    1.823 --    17 C    1.510    16 N    0.185
    19   6 C    3.825 --    20 N    1.592    24 O    1.038    17 C    0.996
    20   7 N    2.945 --    19 C    1.592    21 N    1.188
    21   7 N    2.978 --    22 C    1.621    20 N    1.188
    22   6 C    3.864 --    21 N    1.621    24 O    1.071    23 C    1.028
    23   6 C    3.990 --    22 C    1.028    40 H    0.984    42 H    0.970
                            41 H    0.964
    24   8 O    2.295 --    22 C    1.071    19 C    1.038
    25   7 N    2.826 --    12 C    1.334     5 C    1.114    11 N    0.175
    26   1 H    1.017 --     1 C    0.987
    27   1 H    1.016 --     1 C    0.980
    28   1 H    1.016 --     1 C    0.980
    29   1 H    0.892 --     7 O    0.810
    30   1 H    1.020 --     9 C    0.991
    31   1 H    1.024 --     9 C    0.988
    32   1 H    1.022 --     9 C    0.989
    33   1 H    1.015 --    14 C    0.985
    34   1 H    1.009 --    14 C    0.987
    35   1 H    1.023 --    14 C    0.985
    36   1 H    1.032 --    15 C    0.982
    37   1 H    1.016 --    15 C    0.985
    38   1 H    1.009 --    15 C    0.987
    39   1 H    0.992 --    16 N    0.864
    40   1 H    1.001 --    23 C    0.984
    41   1 H    0.998 --    23 C    0.964
    42   1 H    0.998 --    23 C    0.970
 ---------------------------------------------------------------------------

           -------------------------------------------------
          | TOTAL ENERGY              -83.588565929061 Eh   |
          | GRADIENT NORM               0.000173442130 Eh/α |
          | HOMO-LUMO GAP               0.164631835953 eV   |
           -------------------------------------------------

 * finished run on 2023/06/20 at 17:58:05.261
