                         Program Version 5.0.1 -  RELEASE  -
|  1> # ORCA input file
|  2> ! SP r2SCAN-3c CPCM
|  3>
|  4> %maxcore 1875.0
|  5> %pal nprocs 4 end
|  6> %cpcm smd true SMDsolvent "DMSO" end
|  7>
|  8> *xyz -1 1
|  9> C      -5.457207   -0.015270    2.531983
| 10> O      -4.176265    0.120518    1.944780
| 11> C      -4.145420   -0.012234    0.559699
| 12> O      -5.217106   -0.222528   -0.052232
| 13> C      -2.880792    0.140579   -0.013238
| 14> N      -1.775559    0.289623    0.778580
| 15> C      -0.617178    0.553698    0.290899
| 16> C       0.558564    0.529534    1.255958
| 17> C       0.803220    1.903063    1.896009
| 18> C       0.256147   -0.481682    2.375030
| 19> N       1.794181    0.113111    0.579156
| 20> C       1.895515   -1.041996   -0.103169
| 21> O       0.981715   -1.822814   -0.320035
| 22> C       3.269467   -1.290709   -0.619014
| 23> N       3.663830   -2.275822   -1.364531
| 24> N       4.996286   -2.089149   -1.591691
| 25> C       5.331599   -1.002635   -0.970540
| 26> C       6.666514   -0.369701   -0.904210
| 27> O       4.285489   -0.446053   -0.336604
| 28> N      -0.451609    0.891564   -1.081869
| 29> C       0.706307    1.645665   -1.553719
| 30> C      -1.485761    0.771432   -1.965824
| 31> O      -1.440259    1.290952   -3.079863
| 32> C      -2.665561   -0.093186   -1.497691
| 33> C      -2.283157   -1.572331   -1.768714
| 34> O      -3.800329    0.246902   -2.269480
| 35> H      -6.149831    0.745742    2.152877
| 36> H      -5.333252    0.113210    3.608117
| 37> H      -5.883535   -1.005525    2.330912
| 38> H       1.084762    2.649218    1.156652
| 39> H       1.599375    1.834097    2.635555
| 40> H      -0.109047    2.232838    2.391643
| 41> H       0.067016   -1.468683    1.955059
| 42> H      -0.628820   -0.158912    2.921623
| 43> H       1.100604   -0.538930    3.059242
| 44> H       2.631730    0.632123    0.773712
| 45> H       7.390459   -0.982421   -1.435768
| 46> H       6.630549    0.623390   -1.351647
| 47> H       6.973096   -0.258326    0.135158
| 48> H       1.171335    2.189277   -0.738809
| 49> H       1.444238    0.975316   -1.998631
| 50> H       0.378266    2.360816   -2.311088
| 51> H      -3.097027   -2.219712   -1.446144
| 52> H      -2.113439   -1.719477   -2.835104
| 53> H      -1.378693   -1.829467   -1.219565
| 54> H      -4.590418    0.064899   -1.707745
| 55> **                         ****END OF INPUT****

CARTESIAN COORDINATES (ANGSTROEM)
---------------------------------
  C     -5.457207   -0.015270    2.531983
  O     -4.176265    0.120518    1.944780
  C     -4.145420   -0.012234    0.559699
  O     -5.217106   -0.222528   -0.052232
  C     -2.880792    0.140579   -0.013238
  N     -1.775559    0.289623    0.778580
  C     -0.617178    0.553698    0.290899
  C      0.558564    0.529534    1.255958
  C      0.803220    1.903063    1.896009
  C      0.256147   -0.481682    2.375030
  N      1.794181    0.113111    0.579156
  C      1.895515   -1.041996   -0.103169
  O      0.981715   -1.822814   -0.320035
  C      3.269467   -1.290709   -0.619014
  N      3.663830   -2.275822   -1.364531
  N      4.996286   -2.089149   -1.591691
  C      5.331599   -1.002635   -0.970540
  C      6.666514   -0.369701   -0.904210
  O      4.285489   -0.446053   -0.336604
  N     -0.451609    0.891564   -1.081869
  C      0.706307    1.645665   -1.553719
  C     -1.485761    0.771432   -1.965824
  O     -1.440259    1.290952   -3.079863
  C     -2.665561   -0.093186   -1.497691
  C     -2.283157   -1.572331   -1.768714
  O     -3.800329    0.246902   -2.269480
  H     -6.149831    0.745742    2.152877
  H     -5.333252    0.113210    3.608117
  H     -5.883535   -1.005525    2.330912
  H      1.084762    2.649218    1.156652
  H      1.599375    1.834097    2.635555
  H     -0.109047    2.232838    2.391643
  H      0.067016   -1.468683    1.955059
  H     -0.628820   -0.158912    2.921623
  H      1.100604   -0.538930    3.059242
  H      2.631730    0.632123    0.773712
  H      7.390459   -0.982421   -1.435768
  H      6.630549    0.623390   -1.351647
  H      6.973096   -0.258326    0.135158
  H      1.171335    2.189277   -0.738809
  H      1.444238    0.975316   -1.998631
  H      0.378266    2.360816   -2.311088
  H     -3.097027   -2.219712   -1.446144
  H     -2.113439   -1.719477   -2.835104
  H     -1.378693   -1.829467   -1.219565
  H     -4.590418    0.064899   -1.707745

 Total Charge           Charge          ....   -1
 Multiplicity           Mult            ....    1
 Number of Electrons    NEL             ....  194
 Basis Dimension        Dim             ....  649

ORBITAL ENERGIES
----------------

  NO   OCC          E(Eh)            E(eV)
   0   2.0000     -19.062122      -518.7067
   1   2.0000     -18.950597      -515.6720
   2   2.0000     -18.928373      -515.0672
   3   2.0000     -18.910335      -514.5764
   4   2.0000     -18.899961      -514.2941
   5   2.0000     -18.889159      -514.0002
   6   2.0000     -14.201497      -386.4424
   7   2.0000     -14.194643      -386.2559
   8   2.0000     -14.193336      -386.2203
   9   2.0000     -14.190527      -386.1439
  10   2.0000     -14.123373      -384.3165
  11   2.0000     -10.150002      -276.1956
  12   2.0000     -10.144418      -276.0437
  13   2.0000     -10.139447      -275.9084
  14   2.0000     -10.104076      -274.9459
  15   2.0000     -10.101767      -274.8831
  16   2.0000     -10.088399      -274.5193
  17   2.0000     -10.075067      -274.1565
  18   2.0000     -10.069011      -273.9917
  19   2.0000     -10.055055      -273.6119
  20   2.0000     -10.044063      -273.3128
  21   2.0000     -10.044038      -273.3122
  22   2.0000     -10.018490      -272.6170
  23   2.0000     -10.008657      -272.3494
  24   2.0000     -10.008080      -272.3337
  25   2.0000      -9.999510      -272.1005
  26   2.0000      -1.151845       -31.3433
  27   2.0000      -1.016598       -27.6630
  28   2.0000      -1.014946       -27.6181
  29   2.0000      -0.990964       -26.9655
  30   2.0000      -0.972168       -26.4540
  31   2.0000      -0.952457       -25.9177
  32   2.0000      -0.922775       -25.1100
  33   2.0000      -0.921592       -25.0778
  34   2.0000      -0.899942       -24.4887
  35   2.0000      -0.843858       -22.9625
  36   2.0000      -0.827922       -22.5289
  37   2.0000      -0.762011       -20.7354
  38   2.0000      -0.715381       -19.4665
  39   2.0000      -0.710699       -19.3391
  40   2.0000      -0.686876       -18.6909
  41   2.0000      -0.661100       -17.9894
  42   2.0000      -0.655776       -17.8446
  43   2.0000      -0.651643       -17.7321
  44   2.0000      -0.635734       -17.2992
  45   2.0000      -0.600753       -16.3473
  46   2.0000      -0.595685       -16.2094
  47   2.0000      -0.576928       -15.6990
  48   2.0000      -0.573588       -15.6081
  49   2.0000      -0.539800       -14.6887
  50   2.0000      -0.525839       -14.3088
  51   2.0000      -0.504886       -13.7386
  52   2.0000      -0.491775       -13.3819
  53   2.0000      -0.489030       -13.3072
  54   2.0000      -0.463931       -12.6242
  55   2.0000      -0.455984       -12.4080
  56   2.0000      -0.448713       -12.2101
  57   2.0000      -0.434408       -11.8209
  58   2.0000      -0.426276       -11.5996
  59   2.0000      -0.418350       -11.3839
  60   2.0000      -0.410716       -11.1762
  61   2.0000      -0.408364       -11.1121
  62   2.0000      -0.406949       -11.0736
  63   2.0000      -0.401272       -10.9192
  64   2.0000      -0.400537       -10.8992
  65   2.0000      -0.393737       -10.7141
  66   2.0000      -0.383799       -10.4437
  67   2.0000      -0.379824       -10.3355
  68   2.0000      -0.377755       -10.2792
  69   2.0000      -0.374937       -10.2026
  70   2.0000      -0.366185        -9.9644
  71   2.0000      -0.361788        -9.8447
  72   2.0000      -0.355775        -9.6811
  73   2.0000      -0.350927        -9.5492
  74   2.0000      -0.343670        -9.3517
  75   2.0000      -0.342978        -9.3329
  76   2.0000      -0.340687        -9.2706
  77   2.0000      -0.332164        -9.0386
  78   2.0000      -0.324454        -8.8288
  79   2.0000      -0.321649        -8.7525
  80   2.0000      -0.318605        -8.6697
  81   2.0000      -0.311450        -8.4750
  82   2.0000      -0.310812        -8.4576
  83   2.0000      -0.299010        -8.1365
  84   2.0000      -0.292733        -7.9657
  85   2.0000      -0.285765        -7.7760
  86   2.0000      -0.265190        -7.2162
  87   2.0000      -0.259465        -7.0604
  88   2.0000      -0.243517        -6.6264
  89   2.0000      -0.240699        -6.5498
  90   2.0000      -0.234594        -6.3836
  91   2.0000      -0.225990        -6.1495
  92   2.0000      -0.223082        -6.0704
  93   2.0000      -0.215917        -5.8754
  94   2.0000      -0.199477        -5.4281
  95   2.0000      -0.191704        -5.2165
  96   2.0000      -0.121210        -3.2983
  97   0.0000      -0.081808        -2.2261
  98   0.0000      -0.019684        -0.5356
  99   0.0000      -0.017413        -0.4738
 100   0.0000       0.033804         0.9199
 101   0.0000       0.054957         1.4954

MULLIKEN ATOMIC CHARGES
-----------------------
   0 C :   -0.342150
   1 O :   -0.217668
   2 C :    0.202822
   3 O :   -0.527261
   4 C :   -0.333631
   5 N :   -0.161568
   6 C :    0.040951
   7 C :    0.041813
   8 C :   -0.531184
   9 C :   -0.641829
  10 N :   -0.119253
  11 C :   -0.133796
  12 O :   -0.426169
  13 C :    0.413887
  14 N :   -0.174235
  15 N :   -0.287539
  16 C :    0.392393
  17 C :   -0.634242
  18 O :   -0.058639
  19 N :    0.244725
  20 C :   -0.435419
  21 C :   -0.004256
  22 O :   -0.435099
  23 C :    0.288968
  24 C :   -0.613652
  25 O :   -0.437179
  26 H :    0.156054
  27 H :    0.155265
  28 H :    0.155187
  29 H :    0.177499
  30 H :    0.182108
  31 H :    0.193619
  32 H :    0.193197
  33 H :    0.184389
  34 H :    0.175850
  35 H :    0.316542
  36 H :    0.204425
  37 H :    0.201306
  38 H :    0.199276
  39 H :    0.175260
  40 H :    0.178659
  41 H :    0.185042
  42 H :    0.163815
  43 H :    0.163764
  44 H :    0.188543
  45 H :    0.339412
Sum of atomic charges:   -1.0000000

LOEWDIN ATOMIC CHARGES
----------------------
   0 C :   -0.065476
   1 O :   -0.643585
   2 C :    0.357057
   3 O :   -0.598898
   4 C :    0.077330
   5 N :   -0.627925
   6 C :    0.310776
   7 C :    0.110206
   8 C :   -0.352954
   9 C :   -0.346803
  10 N :   -0.584645
  11 C :    0.372734
  12 O :   -0.453718
  13 C :    0.413033
  14 N :   -0.338330
  15 N :   -0.363447
  16 C :    0.376137
  17 C :   -0.317636
  18 O :   -0.393264
  19 N :   -0.683786
  20 C :   -0.091085
  21 C :    0.367965
  22 O :   -0.491576
  23 C :    0.169711
  24 C :   -0.373653
  25 O :   -0.591841
  26 H :    0.166872
  27 H :    0.172637
  28 H :    0.166575
  29 H :    0.165555
  30 H :    0.168157
  31 H :    0.174941
  32 H :    0.177816
  33 H :    0.175254
  34 H :    0.160963
  35 H :    0.297977
  36 H :    0.190705
  37 H :    0.191670
  38 H :    0.190848
  39 H :    0.188681
  40 H :    0.182474
  41 H :    0.199037
  42 H :    0.162708
  43 H :    0.161738
  44 H :    0.174733
  45 H :    0.294333

  Mayer bond orders larger than 0.100000
B(  0-C ,  1-O ) :   0.8567 B(  0-C , 26-H ) :   0.9690 B(  0-C , 27-H ) :   0.9692
B(  0-C , 28-H ) :   0.9682 B(  1-O ,  2-C ) :   1.0178 B(  2-C ,  3-O ) :   1.5871
B(  2-C ,  4-C ) :   1.4132 B(  3-O , 45-H ) :   0.1139 B(  4-C ,  5-N ) :   1.0588
B(  4-C , 23-C ) :   0.9170 B(  5-N ,  6-C ) :   1.7152 B(  6-C ,  7-C ) :   0.8023
B(  6-C , 19-N ) :   1.0800 B(  6-C , 23-C ) :   0.1197 B(  7-C ,  8-C ) :   0.9685
B(  7-C ,  9-C ) :   0.8766 B(  7-C , 10-N ) :   0.8256 B(  8-C , 29-H ) :   0.9485
B(  8-C , 30-H ) :   0.9664 B(  8-C , 31-H ) :   0.9736 B(  9-C , 32-H ) :   0.9757
B(  9-C , 33-H ) :   0.9664 B(  9-C , 34-H ) :   0.9734 B( 10-N , 11-C ) :   1.1732
B( 10-N , 35-H ) :   0.8914 B( 11-C , 12-O ) :   1.8889 B( 11-C , 13-C ) :   0.7920
B( 12-O , 13-C ) :  -0.1066 B( 13-C , 14-N ) :   1.7279 B( 13-C , 16-C ) :   0.1174
B( 13-C , 18-O ) :   1.0806 B( 14-N , 15-N ) :   1.2658 B( 15-N , 16-C ) :   1.6302
B( 16-C , 17-C ) :   0.8248 B( 16-C , 18-O ) :   1.0648 B( 17-C , 36-H ) :   0.9906
B( 17-C , 37-H ) :   0.9407 B( 17-C , 38-H ) :   0.9456 B( 19-N , 20-C ) :   0.8458
B( 19-N , 21-C ) :   1.0727 B( 20-C , 39-H ) :   0.9421 B( 20-C , 40-H ) :   0.9553
B( 20-C , 41-H ) :   0.9435 B( 21-C , 22-O ) :   1.9744 B( 21-C , 23-C ) :   0.9032
B( 23-C , 24-C ) :   0.9074 B( 23-C , 25-O ) :   1.0416 B( 24-C , 42-H ) :   0.9649
B( 24-C , 43-H ) :   0.9702 B( 24-C , 44-H ) :   0.9679 B( 25-O , 45-H ) :   0.7830

Dispersion correction           -0.022133865
FINAL SINGLE POINT ENERGY     -1308.655345270233

DIPOLE MOMENT
-------------
                                X             Y             Z
Electronic contribution:      5.17786      -4.73065      -9.28962
Nuclear contribution   :      2.77279       6.83912      12.70910
                        -----------------------------------------
Total Dipole Moment    :      7.95065       2.10847       3.41948
                        -----------------------------------------
Magnitude (a.u.)       :      8.90794
Magnitude (Debye)      :     22.64218

Rotational constants in cm-1:     0.014485     0.003661     0.003364
Rotational constants in MHz :   434.245206   109.754997   100.851143

                             ****ORCA TERMINATED NORMALLY****
TOTAL RUN TIME: 0 days 0 hours 1 minutes 31 seconds 212 msec
