   * xtb version 6.5.1 (579679a) compiled by 'ehlert@majestix' on 2022-07-11
          program call               : /lustre/hpc/kemi/ree/PhD/git/ReactivityQM/dep/xtb-6.5.1/bin/xtb --gfn 1 /lustre/hpc/kemi/ree/PhD/git/ReactivityQM/calculations/R03/reac02prodE14/conf05/R03_reac02prodE14_conf05_gfn1.xyz --opt --vfukui --chrg -1 --uhf 0 --alpb DMSO

   ID    Z sym.   atoms
    1    6 C      1, 3, 5, 7-10, 12, 14, 17, 18, 21, 22, 24, 25
    2    8 O      2, 4, 13, 19, 23, 26
    3    7 N      6, 11, 15, 16, 20
    4    1 H      27-46

      * Solvation model:               ALPB
        Solvent                        DMSO
        Solvent mass                       7.8130E+01 g/mol
          :  Hamiltonian                  GFN1-xTB          :
 * total energy  :   -87.0526141 Eh     change       -0.2589218E-10 Eh
 * total energy  :   -87.0663043 Eh     change       -0.1369018E-01 Eh
 * total energy  :   -87.0711566 Eh     change       -0.4852335E-02 Eh
 * total energy  :   -87.0721541 Eh     change       -0.9975171E-03 Eh
 * total energy  :   -87.0731761 Eh     change       -0.1022010E-02 Eh
 * total energy  :   -87.0737689 Eh     change       -0.5927157E-03 Eh
 * total energy  :   -87.0742602 Eh     change       -0.4913357E-03 Eh
 * total energy  :   -87.0745857 Eh     change       -0.3254824E-03 Eh
 * total energy  :   -87.0747171 Eh     change       -0.1314199E-03 Eh
 * total energy  :   -87.0747700 Eh     change       -0.5290880E-04 Eh
 * total energy  :   -87.0762102 Eh     change       -0.2693833E-04 Eh
 * total energy  :   -87.0762289 Eh     change       -0.1861667E-04 Eh
 * total energy  :   -87.0762464 Eh     change       -0.1751939E-04 Eh
 * total energy  :   -87.0762665 Eh     change       -0.2009490E-04 Eh
 * total energy  :   -87.0762822 Eh     change       -0.1569558E-04 Eh
 * total energy  :   -87.0762967 Eh     change       -0.1451539E-04 Eh
 * total energy  :   -87.0763092 Eh     change       -0.1251159E-04 Eh
 * total energy  :   -87.0763161 Eh     change       -0.6878369E-05 Eh
 * total energy  :   -87.0763202 Eh     change       -0.4150583E-05 Eh
   *** GEOMETRY OPTIMIZATION CONVERGED AFTER 63 ITERATIONS ***

 final structure:
================
46
 xtb: 6.5.1 (579679a)
C           -5.45720671773227       -0.01527040032528        2.53198258799705
O           -4.17626470938141        0.12051769934814        1.94477998441720
C           -4.14542017657957       -0.01223446953008        0.55969865651747
O           -5.21710595489816       -0.22252815812507       -0.05223198072012
C           -2.88079152615196        0.14057893835755       -0.01323751548804
N           -1.77555916235392        0.28962319407939        0.77857969936560
C           -0.61717801491753        0.55369798128257        0.29089946325116
C            0.55856428442769        0.52953411562854        1.25595805652555
C            0.80322046278058        1.90306268143901        1.89600907690684
C            0.25614693190597       -0.48168152946092        2.37502965883561
N            1.79418142483990        0.11311149438847        0.57915588108720
C            1.89551453291844       -1.04199602919706       -0.10316910175840
O            0.98171525732154       -1.82281409296309       -0.32003537296032
C            3.26946713485951       -1.29070853448136       -0.61901368538125
N            3.66382975764191       -2.27582206676641       -1.36453078072641
N            4.99628593647761       -2.08914939514414       -1.59169123383119
C            5.33159919367982       -1.00263527575267       -0.97053999742292
C            6.66651412583368       -0.36970101334083       -0.90420977336262
O            4.28548858121924       -0.44605284320371       -0.33660411236963
N           -0.45160856087010        0.89156425853060       -1.08186899447684
C            0.70630678878234        1.64566498849346       -1.55371940076865
C           -1.48576115703093        0.77143179052559       -1.96582412528674
O           -1.44025875918904        1.29095167456351       -3.07986251649203
C           -2.66556104838932       -0.09318637342671       -1.49769095972688
C           -2.28315709111354       -1.57233105312661       -1.76871428751189
O           -3.80032948727145        0.24690246488707       -2.26947956469480
H           -6.14983128629578        0.74574159315874        2.15287711554753
H           -5.33325186502986        0.11320958992794        3.60811747447701
H           -5.88353526258827       -1.00552526143164        2.33091237870275
H            1.08476233053753        2.64921773504158        1.15665221442228
H            1.59937521603258        1.83409716148470        2.63555470299630
H           -0.10904746448091        2.23283763699769        2.39164347366361
H            0.06701629395596       -1.46868309559782        1.95505949643229
H           -0.62881988223962       -0.15891180467236        2.92162275662259
H            1.10060442002594       -0.53893028510751        3.05924213126053
H            2.63172971774959        0.63212268611760        0.77371159198391
H            7.39045875336356       -0.98242128389126       -1.43576788958597
H            6.63054922504767        0.62338971632490       -1.35164732801515
H            6.97309616456827       -0.25832578809400        0.13515778233771
H            1.17133519042867        2.18927656065903       -0.73880929464106
H            1.44423795643374        0.97531639669954       -1.99863061980938
H            0.37826635648477        2.36081602351303       -2.31108759863086
H           -3.09702679405278       -2.21971207609154       -1.44614413541860
H           -2.11343919244768       -1.71947701357097       -2.83510401452166
H           -1.37869262525365       -1.82946743752928       -1.21956464983681
H           -4.59041829905957        0.06489889938533       -1.70774524990389

          :  Hamiltonian                  GFN1-xTB          :
         :: total energy             -87.076320230399 Eh    ::
         :: gradient norm              0.000351418145 Eh/a0 ::
         :: HOMO-LUMO gap              0.674605746802 eV    ::
         :: SCC energy               -87.870859164468 Eh    ::
         :: -> Gsolv                  -0.130672438150 Eh    ::
         :: repulsion energy           0.825196453458 Eh    ::

    * Orbital Energies and Occupations

         #    Occupation            Energy/Eh            Energy/eV
      -------------------------------------------------------------
         1        2.0000           -0.8604773             -23.4148
       ...           ...                  ...                  ...
        59        2.0000           -0.4703474             -12.7988
        60        2.0000           -0.4639735             -12.6254
        61        2.0000           -0.4563487             -12.4179
        62        2.0000           -0.4532681             -12.3341
        63        2.0000           -0.4455564             -12.1242
        64        2.0000           -0.4452985             -12.1172
        65        2.0000           -0.4411860             -12.0053
        66        2.0000           -0.4350905             -11.8394
        67        2.0000           -0.4208361             -11.4515
        68        2.0000           -0.4142997             -11.2737
        69        2.0000           -0.4005071             -10.8984
        70        2.0000           -0.3849342             -10.4746
        71        2.0000           -0.3277396              -8.9182 (HOMO)
        72        0.0000           -0.3029483              -8.2436 (LUMO)
        73                         -0.2524208              -6.8687
        74                         -0.2433308              -6.6214
        75                         -0.2010371              -5.4705
        76                         -0.1914141              -5.2086
        77                         -0.1431225              -3.8946
        78                         -0.1399731              -3.8089
        79                         -0.1253162              -3.4100
        80                         -0.1158369              -3.1521
        81                         -0.1128157              -3.0699
        82                         -0.1059300              -2.8825
       ...                                ...                  ...
       144                          0.7340899              19.9756
      -------------------------------------------------------------
                  HL-Gap            0.0247913 Eh            0.6746 eV

Wiberg/Mayer (AO) data.
largest (>0.10) Wiberg bond orders for each atom

     #   Z sym  total        # sym  WBO       # sym  WBO       # sym  WBO
 ---------------------------------------------------------------------------
     1   6 C    3.912 --    28 H    0.987    29 H    0.981    27 H    0.981
                             2 O    0.941
     2   8 O    2.089 --     3 C    0.967     1 C    0.941
     3   6 C    3.869 --     4 O    1.425     5 C    1.337     2 O    0.967
     4   8 O    1.819 --     3 C    1.425     5 C    0.109
     5   6 C    3.863 --     3 C    1.337     6 N    1.192    24 C    0.963
                             4 O    0.109     7 C    0.100
     6   7 N    3.061 --     7 C    1.623     5 C    1.192
     7   6 C    3.909 --     6 N    1.623    20 N    0.990     8 C    0.975
                             5 C    0.100
     8   6 C    3.926 --     9 C    0.989    10 C    0.987     7 C    0.975
                            11 N    0.913
     9   6 C    3.990 --     8 C    0.989    31 H    0.984    32 H    0.984
                            30 H    0.977
    10   6 C    3.991 --    35 H    0.987     8 C    0.987    34 H    0.983
                            33 H    0.982
    11   7 N    3.365 --    12 C    1.273     8 C    0.913    36 H    0.899
                            13 O    0.180
    12   6 C    3.921 --    13 O    1.575    11 N    1.273    14 C    0.987
    13   8 O    1.894 --    12 C    1.575    11 N    0.180
    14   6 C    3.869 --    15 N    1.626    19 O    1.047    12 C    0.987
    15   7 N    2.996 --    14 C    1.626    16 N    1.193
    16   7 N    2.981 --    17 C    1.616    15 N    1.193
    17   6 C    3.870 --    16 N    1.616    19 O    1.071    18 C    1.031
    18   6 C    3.987 --    17 C    1.031    37 H    0.983    39 H    0.965
                            38 H    0.963
    19   8 O    2.314 --    17 C    1.071    14 C    1.047
    20   7 N    3.413 --    22 C    1.212     7 C    0.990    21 C    0.948
                            23 O    0.140
    21   6 C    3.952 --    41 H    0.983    40 H    0.980    42 H    0.977
                            20 N    0.948
    22   6 C    3.887 --    23 O    1.573    20 N    1.212    24 C    0.937
    23   8 O    1.865 --    22 C    1.573    20 N    0.140
    24   6 C    3.921 --    26 O    0.963     5 C    0.963    25 C    0.955
                            22 C    0.937
    25   6 C    3.996 --    44 H    0.987    43 H    0.985    45 H    0.985
                            24 C    0.955
    26   8 O    1.880 --    24 C    0.963    46 H    0.811
    27   1 H    1.018 --     1 C    0.981
    28   1 H    1.019 --     1 C    0.987
    29   1 H    1.018 --     1 C    0.981
    30   1 H    1.007 --     9 C    0.977
    31   1 H    1.000 --     9 C    0.984
    32   1 H    1.006 --     9 C    0.984
    33   1 H    1.016 --    10 C    0.982
    34   1 H    1.021 --    10 C    0.983
    35   1 H    1.004 --    10 C    0.987
    36   1 H    0.942 --    11 N    0.899
    37   1 H    0.999 --    18 C    0.983
    38   1 H    0.997 --    18 C    0.963
    39   1 H    0.997 --    18 C    0.965
    40   1 H    1.012 --    21 C    0.980
    41   1 H    1.011 --    21 C    0.983
    42   1 H    1.015 --    21 C    0.977
    43   1 H    1.011 --    25 C    0.985
    44   1 H    1.009 --    25 C    0.987
    45   1 H    1.019 --    25 C    0.985
    46   1 H    0.898 --    26 O    0.811
 ---------------------------------------------------------------------------

           -------------------------------------------------
          | TOTAL ENERGY              -87.076320230399 Eh   |
          | GRADIENT NORM               0.000351418145 Eh/α |
          | HOMO-LUMO GAP               0.674605746802 eV   |
           -------------------------------------------------

 * finished run on 2023/06/20 at 15:34:46.450
