   * xtb version 6.5.1 (579679a) compiled by 'ehlert@majestix' on 2022-07-11
          program call               : /lustre/hpc/kemi/ree/PhD/git/ReactivityQM/dep/xtb-6.5.1/bin/xtb --gfn 1 /lustre/hpc/kemi/ree/PhD/git/ReactivityQM/calculations/R02oxygendeprot/reac01prodN03/conf09/R02oxygendeprot_reac01prodN03_conf09_gfn1.xyz --opt --vfukui --chrg 0 --uhf 0 --alpb DMSO

   ID    Z sym.   atoms
    1    6 C      1, 3, 5, 6, 8-11, 13, 15, 18, 19, 22, 24
    2    8 O      2, 4, 14, 20, 23, 25
    3    7 N      7, 12, 16, 17, 21
    4    1 H      26-42

      * Solvation model:               ALPB
        Solvent                        DMSO
        Solvent mass                       7.8130E+01 g/mol
          :  Hamiltonian                  GFN1-xTB          :
 * total energy  :   -82.9837274 Eh     change       -0.6821210E-11 Eh
 * total energy  :   -82.9952904 Eh     change       -0.1156300E-01 Eh
 * total energy  :   -83.0002664 Eh     change       -0.4975968E-02 Eh
 * total energy  :   -83.0013342 Eh     change       -0.1067878E-02 Eh
 * total energy  :   -83.0018240 Eh     change       -0.4897550E-03 Eh
 * total energy  :   -83.0020516 Eh     change       -0.2276012E-03 Eh
 * total energy  :   -83.0021741 Eh     change       -0.1224807E-03 Eh
 * total energy  :   -83.0022375 Eh     change       -0.6342159E-04 Eh
 * total energy  :   -83.0022813 Eh     change       -0.4376143E-04 Eh
 * total energy  :   -83.0023238 Eh     change       -0.4254335E-04 Eh
 * total energy  :   -83.0028614 Eh     change       -0.1043962E-04 Eh
 * total energy  :   -83.0028713 Eh     change       -0.9903905E-05 Eh
 * total energy  :   -83.0028869 Eh     change       -0.1563002E-04 Eh
 * total energy  :   -83.0028936 Eh     change       -0.6678732E-05 Eh
 * total energy  :   -83.0029035 Eh     change       -0.9924663E-05 Eh
 * total energy  :   -83.0029106 Eh     change       -0.7106079E-05 Eh
 * total energy  :   -83.0029160 Eh     change       -0.5427666E-05 Eh
 * total energy  :   -83.0029305 Eh     change       -0.1449144E-04 Eh
 * total energy  :   -83.0029351 Eh     change       -0.4549934E-05 Eh
   *** GEOMETRY OPTIMIZATION CONVERGED AFTER 34 ITERATIONS ***

 final structure:
================
42
 xtb: 6.5.1 (579679a)
C           -2.96027368755005        2.26352642294756        2.45549047083350
O           -2.76004113571160        1.25979589539504        1.44481264536939
C           -2.81856734285149        1.65881934105785        0.18961374580973
O           -3.05017999634160        2.77821421661339       -0.17549924309151
C           -2.56073299659733        0.48019580287962       -0.79384044031220
C           -2.54789894207137        1.01745915584415       -2.22554679366072
N           -1.25696876075668       -0.04675750909585       -0.45649372115451
C           -1.12532701145683       -1.04977069403584        0.30758129787324
C            0.25829801157019       -1.54667133077356        0.68040223947743
C            0.45317212444997       -1.45729445611209        2.20067740753377
C            0.44872885741019       -2.98409350264477        0.17573402288947
N            1.20750800448057       -0.66262084482548        0.01346272073477
C            2.54508332007732       -0.79137274702901        0.09621711033079
O            3.13995474024476       -1.64392799698391        0.73302966255838
C            3.22719310044122        0.25804420771378       -0.70548633872149
N            2.64900863314432        1.17012263113182       -1.42762627297148
N            3.64250067387061        1.91456306523410       -1.98941910351024
C            4.76402183988565        1.40850321112361       -1.57359160820057
C            6.13532517570662        1.86205453936423       -1.89441582452779
O            4.56738685972086        0.36012770796572       -0.76068775624312
N           -2.19091253628585       -1.75540048939167        0.84717016305999
C           -3.49606272273155       -1.55757709794065        0.50397810282212
O           -4.40033889571682       -2.19670323969454        0.98957384038740
C           -3.70738962912867       -0.48617672738328       -0.57207451669907
O           -4.74445505919571       -0.40967414395947       -1.17701775173681
H           -2.19985316982814        3.04009507648037        2.35792111936136
H           -2.86744280072177        1.75638933524838        3.41253706846031
H           -3.95307318921849        2.70396728309232        2.34697702895739
H           -1.78554040023847        1.78803930604939       -2.31614078751024
H           -2.32689515237963        0.20783418883229       -2.91747564917245
H           -3.52162970039096        1.44228478452836       -2.46393634012883
H            0.29497452034157       -0.43348647366879        2.53587792801380
H            1.46488424936658       -1.76711356134952        2.45708957540217
H           -0.25083210516268       -2.11246571807113        2.70888164389102
H           -0.29935429737063       -3.63694746827275        0.61988367772478
H            1.43802952624982       -3.34185537341244        0.45544297465218
H            0.35019457276248       -3.01353703389704       -0.90828408490514
H            0.81345778664600        0.08951660561461       -0.54156025154088
H            6.72263470293142        1.02785557445950       -2.27803447598394
H            6.09442132868115        2.65438397204262       -2.63808107813487
H            6.62483941302614        2.23293063091313       -0.99336318800695
H           -2.01784490930996       -2.48127654599380        1.52564678007858

          :  Hamiltonian                  GFN1-xTB          :
         :: total energy             -83.002935067077 Eh    ::
         :: gradient norm              0.000830722067 Eh/a0 ::
         :: HOMO-LUMO gap              2.454285085702 eV    ::
         :: SCC energy               -83.790305837627 Eh    ::
         :: -> Gsolv                  -0.050693205660 Eh    ::
         :: repulsion energy           0.814267546949 Eh    ::

    * Orbital Energies and Occupations

         #    Occupation            Energy/Eh            Energy/eV
      -------------------------------------------------------------
         1        2.0000           -0.8643669             -23.5206
       ...           ...                  ...                  ...
        55        2.0000           -0.5141928             -13.9919
        56        2.0000           -0.5076073             -13.8127
        57        2.0000           -0.5064349             -13.7808
        58        2.0000           -0.5057057             -13.7610
        59        2.0000           -0.4993327             -13.5875
        60        2.0000           -0.4834739             -13.1560
        61        2.0000           -0.4739404             -12.8966
        62        2.0000           -0.4648298             -12.6487
        63        2.0000           -0.4635034             -12.6126
        64        2.0000           -0.4600468             -12.5185
        65        2.0000           -0.4527866             -12.3210
        66        2.0000           -0.4482336             -12.1971
        67        2.0000           -0.4446683             -12.1000 (HOMO)
        68                         -0.3544749              -9.6458 (LUMO)
        69                         -0.3108140              -8.4577
        70                         -0.3017902              -8.2121
        71                         -0.2736154              -7.4455
        72                         -0.2576360              -7.0106
        73                         -0.2293833              -6.2418
        74                         -0.1987620              -5.4086
        75                         -0.1486546              -4.0451
        76                         -0.1440265              -3.9192
        77                         -0.1428856              -3.8881
        78                         -0.1283249              -3.4919
       ...                                ...                  ...
       134                          0.7586708              20.6445
      -------------------------------------------------------------
                  HL-Gap            0.0901933 Eh            2.4543 eV

Wiberg/Mayer (AO) data.
largest (>0.10) Wiberg bond orders for each atom

     #   Z sym  total        # sym  WBO       # sym  WBO       # sym  WBO
 ---------------------------------------------------------------------------
     1   6 C    3.853 --    27 H    0.985    26 H    0.980    28 H    0.980
                             2 O    0.875
     2   8 O    2.213 --     3 C    1.150     1 C    0.875     4 O    0.139
     3   6 C    3.843 --     4 O    1.707     2 O    1.150     5 C    0.864
     4   8 O    1.986 --     3 C    1.707     2 O    0.139
     5   6 C    3.962 --     6 C    0.981     7 N    0.974    24 C    0.956
                             3 C    0.864
     6   6 C    3.984 --    30 H    0.985    29 H    0.984    31 H    0.982
                             5 C    0.981
     7   7 N    3.046 --     8 C    1.748     5 C    0.974
     8   6 C    3.927 --     7 N    1.748    21 N    1.074     9 C    0.980
     9   6 C    3.939 --     8 C    0.980    11 C    0.978    10 C    0.977
                            12 N    0.938
    10   6 C    3.988 --    32 H    0.985    34 H    0.982     9 C    0.977
                            33 H    0.977
    11   6 C    3.987 --    37 H    0.985    35 H    0.984     9 C    0.978
                            36 H    0.977
    12   7 N    3.352 --    13 C    1.260     9 C    0.938    38 H    0.877
                            14 O    0.179
    13   6 C    3.918 --    14 O    1.588    12 N    1.260    15 C    0.988
    14   8 O    1.908 --    13 C    1.588    12 N    0.179
    15   6 C    3.875 --    16 N    1.611    20 O    1.064    13 C    0.988
    16   7 N    3.014 --    15 C    1.611    17 N    1.199
    17   7 N    2.980 --    18 C    1.605    16 N    1.199
    18   6 C    3.871 --    17 N    1.605    20 O    1.083    19 C    1.031
    19   6 C    3.986 --    18 C    1.031    40 H    0.982    39 H    0.966
                            41 H    0.961
    20   8 O    2.330 --    18 C    1.083    15 C    1.064
    21   7 N    3.428 --    22 C    1.180     8 C    1.074    42 H    0.880
                            23 O    0.147
    22   6 C    3.891 --    23 O    1.678    21 N    1.180    24 C    0.907
    23   8 O    1.961 --    22 C    1.678    21 N    0.147
    24   6 C    3.848 --    25 O    1.812     5 C    0.956    22 C    0.907
    25   8 O    2.024 --    24 C    1.812
    26   1 H    1.003 --     1 C    0.980
    27   1 H    1.008 --     1 C    0.985
    28   1 H    1.003 --     1 C    0.980
    29   1 H    1.004 --     6 C    0.984
    30   1 H    1.000 --     6 C    0.985
    31   1 H    1.005 --     6 C    0.982
    32   1 H    1.001 --    10 C    0.985
    33   1 H    1.006 --    10 C    0.977
    34   1 H    0.998 --    10 C    0.982
    35   1 H    0.999 --    11 C    0.984
    36   1 H    1.007 --    11 C    0.977
    37   1 H    1.001 --    11 C    0.985
    38   1 H    0.967 --    12 N    0.877
    39   1 H    0.997 --    19 C    0.966
    40   1 H    0.998 --    19 C    0.982
    41   1 H    0.997 --    19 C    0.961
    42   1 H    0.928 --    21 N    0.880
 ---------------------------------------------------------------------------

           -------------------------------------------------
          | TOTAL ENERGY              -83.002935067077 Eh   |
          | GRADIENT NORM               0.000830722067 Eh/α |
          | HOMO-LUMO GAP               2.454285085702 eV   |
           -------------------------------------------------

 * finished run on 2023/06/21 at 17:19:13.244
