                         Program Version 5.0.1 -  RELEASE  -
|  1> # ORCA input file
|  2> ! SP r2SCAN-3c CPCM
|  3>
|  4> %maxcore 1875.0
|  5> %pal nprocs 4 end
|  6> %cpcm smd true SMDsolvent "DMSO" end
|  7>
|  8> *xyz 1 1
|  9> C      -2.155368   -1.030588    1.109680
| 10> C      -1.223242    0.169106    0.787407
| 11> C       0.180622   -0.223323    0.579557
| 12> C       0.921782    0.205703   -0.488657
| 13> C       2.372561   -0.200040   -0.692326
| 14> N       2.933938   -0.970755    0.393880
| 15> C       0.312738    1.046000   -1.447150
| 16> C      -1.007428    1.474095   -1.335929
| 17> C      -1.750337    1.035979   -0.270121
| 18> F      -2.999570    1.397909   -0.152906
| 19> H      -1.770356   -1.558857    1.978360
| 20> H      -3.157199   -0.661568    1.318701
| 21> H      -2.181925   -1.703638    0.256006
| 22> H      -1.234797    0.776498    1.711681
| 23> H       0.611077   -0.877150    1.328496
| 24> H       2.966420    0.708630   -0.830439
| 25> H       2.438603   -0.784504   -1.615473
| 26> H       2.430983   -1.839614    0.502372
| 27> H       2.869587   -0.451488    1.257464
| 28> H       0.892828    1.368293   -2.305831
| 29> H      -1.450916    2.119310   -2.084771
| 30> **                         ****END OF INPUT****

CARTESIAN COORDINATES (ANGSTROEM)
---------------------------------
  C     -2.155368   -1.030588    1.109680
  C     -1.223242    0.169106    0.787407
  C      0.180622   -0.223323    0.579557
  C      0.921782    0.205703   -0.488657
  C      2.372561   -0.200040   -0.692326
  N      2.933938   -0.970755    0.393880
  C      0.312738    1.046000   -1.447150
  C     -1.007428    1.474095   -1.335929
  C     -1.750337    1.035979   -0.270121
  F     -2.999570    1.397909   -0.152906
  H     -1.770356   -1.558857    1.978360
  H     -3.157199   -0.661568    1.318701
  H     -2.181925   -1.703638    0.256006
  H     -1.234797    0.776498    1.711681
  H      0.611077   -0.877150    1.328496
  H      2.966420    0.708630   -0.830439
  H      2.438603   -0.784504   -1.615473
  H      2.430983   -1.839614    0.502372
  H      2.869587   -0.451488    1.257464
  H      0.892828    1.368293   -2.305831
  H     -1.450916    2.119310   -2.084771

 Total Charge           Charge          ....    1
 Multiplicity           Mult            ....    1
 Number of Electrons    NEL             ....   74
 Basis Dimension        Dim             ....  255

ORBITAL ENERGIES
----------------

  NO   OCC          E(Eh)            E(eV)
   0   2.0000     -24.558156      -668.2614
   1   2.0000     -14.143352      -384.8602
   2   2.0000     -10.189540      -277.2715
   3   2.0000     -10.108465      -275.0653
   4   2.0000     -10.093566      -274.6599
   5   2.0000     -10.091870      -274.6137
   6   2.0000     -10.079330      -274.2725
   7   2.0000     -10.077262      -274.2163
   8   2.0000     -10.068262      -273.9713
   9   2.0000     -10.050219      -273.4804
  10   2.0000      -1.257266       -34.2119
  11   2.0000      -0.882116       -24.0036
  12   2.0000      -0.855546       -23.2806
  13   2.0000      -0.790154       -21.5012
  14   2.0000      -0.763496       -20.7758
  15   2.0000      -0.683021       -18.5860
  16   2.0000      -0.657284       -17.8856
  17   2.0000      -0.621082       -16.9005
  18   2.0000      -0.594502       -16.1772
  19   2.0000      -0.554004       -15.0752
  20   2.0000      -0.510007       -13.8780
  21   2.0000      -0.497521       -13.5382
  22   2.0000      -0.476525       -12.9669
  23   2.0000      -0.474138       -12.9019
  24   2.0000      -0.453921       -12.3518
  25   2.0000      -0.437114       -11.8945
  26   2.0000      -0.419893       -11.4259
  27   2.0000      -0.406591       -11.0639
  28   2.0000      -0.388394       -10.5687
  29   2.0000      -0.384246       -10.4559
  30   2.0000      -0.375963       -10.2305
  31   2.0000      -0.360254        -9.8030
  32   2.0000      -0.347654        -9.4601
  33   2.0000      -0.337080        -9.1724
  34   2.0000      -0.324650        -8.8342
  35   2.0000      -0.266048        -7.2395
  36   2.0000      -0.223788        -6.0896
  37   0.0000      -0.162592        -4.4244
  38   0.0000      -0.059641        -1.6229
  39   0.0000       0.029321         0.7979
  40   0.0000       0.062283         1.6948
  41   0.0000       0.068937         1.8759

MULLIKEN ATOMIC CHARGES
-----------------------
   0 C :   -0.468512
   1 C :    0.020089
   2 C :   -0.186574
   3 C :    0.163357
   4 C :   -0.313832
   5 N :   -0.664967
   6 C :   -0.035417
   7 C :   -0.224519
   8 C :    0.335730
   9 F :   -0.150765
  10 H :    0.194630
  11 H :    0.189954
  12 H :    0.192093
  13 H :    0.272864
  14 H :    0.223605
  15 H :    0.194425
  16 H :    0.196358
  17 H :    0.308776
  18 H :    0.308368
  19 H :    0.222213
  20 H :    0.222122
Sum of atomic charges:    1.0000000

LOEWDIN ATOMIC CHARGES
----------------------
   0 C :   -0.338447
   1 C :   -0.170649
   2 C :   -0.011846
   3 C :   -0.073200
   4 C :   -0.048447
   5 N :   -0.723304
   6 C :    0.037868
   7 C :   -0.124852
   8 C :    0.336450
   9 F :   -0.204587
  10 H :    0.177651
  11 H :    0.176355
  12 H :    0.176241
  13 H :    0.267216
  14 H :    0.206196
  15 H :    0.198790
  16 H :    0.200708
  17 H :    0.248667
  18 H :    0.248993
  19 H :    0.208356
  20 H :    0.211842

  Mayer bond orders larger than 0.100000
B(  0-C ,  1-C ) :   0.8033 B(  0-C , 10-H ) :   0.9559 B(  0-C , 11-H ) :   0.9537
B(  0-C , 12-H ) :   0.9657 B(  1-C ,  2-C ) :   1.0140 B(  1-C ,  8-C ) :   1.0897
B(  1-C , 13-H ) :   0.8311 B(  2-C ,  3-C ) :   1.5134 B(  2-C , 14-H ) :   0.9123
B(  3-C ,  4-C ) :   0.7593 B(  3-C ,  6-C ) :   1.3192 B(  4-C ,  5-N ) :   1.0453
B(  4-C , 15-H ) :   0.9946 B(  4-C , 16-H ) :   0.9870 B(  5-N , 17-H ) :   0.8900
B(  5-N , 18-H ) :   0.8903 B(  6-C ,  7-C ) :   1.3256 B(  6-C , 19-H ) :   0.9127
B(  7-C ,  8-C ) :   1.4376 B(  7-C , 20-H ) :   0.9265 B(  8-C ,  9-F ) :   0.9780

Dispersion correction           -0.006745185
FINAL SINGLE POINT ENERGY      -465.768900603046

DIPOLE MOMENT
-------------
                                X             Y             Z
Electronic contribution:     -8.42521       6.95595      -2.53218
Nuclear contribution   :      7.85407      -6.69250       2.70439
                        -----------------------------------------
Total Dipole Moment    :     -0.57114       0.26345       0.17221
                        -----------------------------------------
Magnitude (a.u.)       :      0.65212
Magnitude (Debye)      :      1.65757

Rotational constants in cm-1:     0.085333     0.028897     0.022458
Rotational constants in MHz :  2558.229979   866.305549   673.273514

                             ****ORCA TERMINATED NORMALLY****
TOTAL RUN TIME: 0 days 0 hours 0 minutes 21 seconds 74 msec
