   * xtb version 6.5.1 (579679a) compiled by 'ehlert@majestix' on 2022-07-11
          program call               : /lustre/hpc/kemi/ree/PhD/git/ReactivityQM/dep/xtb-6.5.1/bin/xtb --gfn 1 /lustre/hpc/kemi/ree/PhD/git/ReactivityQM/calculations/R03/reac01prodN04/conf09/R03_reac01prodN04_conf09_gfn1.xyz --opt --vfukui --chrg 1 --uhf 0 --alpb DMSO

   ID    Z sym.   atoms
    1    6 C      1-5, 7-9
    2    7 N      6
    3    9 F      10
    4    1 H      11-21

      * Solvation model:               ALPB
        Solvent                        DMSO
        Solvent mass                       7.8130E+01 g/mol
          :  Hamiltonian                  GFN1-xTB          :
 * total energy  :   -30.7649281 Eh     change       -0.1214069E-09 Eh
 * total energy  :   -30.7689970 Eh     change       -0.4068873E-02 Eh
 * total energy  :   -30.7702653 Eh     change       -0.1268297E-02 Eh
 * total energy  :   -30.7703793 Eh     change       -0.1140275E-03 Eh
 * total energy  :   -30.7704232 Eh     change       -0.4382974E-04 Eh
 * total energy  :   -30.7704300 Eh     change       -0.6829386E-05 Eh
 * total energy  :   -30.7704324 Eh     change       -0.2365737E-05 Eh
   *** GEOMETRY OPTIMIZATION CONVERGED AFTER 7 ITERATIONS ***

 final structure:
================
21
 xtb: 6.5.1 (579679a)
C           -2.15536797226423       -1.03058807169643        1.10967994206468
C           -1.22324201915154        0.16910620155145        0.78740719983852
C            0.18062174091330       -0.22332273264421        0.57955667700458
C            0.92178215639223        0.20570321986428       -0.48865749377983
C            2.37256053190217       -0.20004028342506       -0.69232568292537
N            2.93393814862411       -0.97075452374103        0.39388023074743
C            0.31273790474277        1.04600023786708       -1.44715005297350
C           -1.00742802920980        1.47409456996961       -1.33592906816378
C           -1.75033683535712        1.03597851005503       -0.27012082139808
F           -2.99956983984215        1.39790889546262       -0.15290617746952
H           -1.77035597863901       -1.55885677442286        1.97835974514235
H           -3.15719893854497       -0.66156807442036        1.31870149448054
H           -2.18192465347646       -1.70363812061630        0.25600614999562
H           -1.23479690477930        0.77649823514536        1.71168112336359
H            0.61107721988469       -0.87714984388214        1.32849644192490
H            2.96641978730039        0.70863028635158       -0.83043897136693
H            2.43860302380771       -0.78450449892680       -1.61547316045870
H            2.43098269844822       -1.83961406487002        0.50237227342543
H            2.86958653274517       -0.45148814990398        1.25746391245322
H            0.89282789629381        1.36829267196988       -2.30583129920280
H           -1.45091646978983        2.11931031031229       -2.08477146270222

          :  Hamiltonian                  GFN1-xTB          :
         :: total energy             -30.770432359280 Eh    ::
         :: gradient norm              0.000411969964 Eh/a0 ::
         :: HOMO-LUMO gap              0.405793229663 eV    ::
         :: SCC energy               -31.162938259065 Eh    ::
         :: -> Gsolv                  -0.086837020475 Eh    ::
         :: repulsion energy           0.402467717361 Eh    ::

    * Orbital Energies and Occupations

         #    Occupation            Energy/Eh            Energy/eV
      -------------------------------------------------------------
         1        2.0000           -0.9462226             -25.7480
       ...           ...                  ...                  ...
        15        2.0000           -0.5997059             -16.3188
        16        2.0000           -0.5953149             -16.1993
        17        2.0000           -0.5933657             -16.1463
        18        2.0000           -0.5798486             -15.7785
        19        2.0000           -0.5604282             -15.2500
        20        2.0000           -0.5579717             -15.1832
        21        2.0000           -0.5477239             -14.9043
        22        2.0000           -0.5389530             -14.6657
        23        2.0000           -0.5353959             -14.5689
        24        2.0000           -0.5247953             -14.2804
        25        2.0000           -0.5233962             -14.2423
        26        2.0000           -0.4952315             -13.4759
        27        1.9992           -0.4317218             -11.7477 (HOMO)
        28        0.0008           -0.4168091             -11.3420 (LUMO)
        29                         -0.3255322              -8.8582
        30                         -0.2467660              -6.7148
        31                         -0.1592771              -4.3342
        32                         -0.1522058              -4.1417
        33                         -0.1487837              -4.0486
        34                         -0.1401405              -3.8134
        35                         -0.1344995              -3.6599
        36                         -0.1112514              -3.0273
        37                         -0.0946672              -2.5760
        38                         -0.0932504              -2.5375
       ...                                ...                  ...
        62                          0.5439010              14.8003
      -------------------------------------------------------------
                  HL-Gap            0.0149126 Eh            0.4058 eV

Wiberg/Mayer (AO) data.
largest (>0.10) Wiberg bond orders for each atom

     #   Z sym  total        # sym  WBO       # sym  WBO       # sym  WBO
 ---------------------------------------------------------------------------
     1   6 C    3.962 --    13 H    0.984    11 H    0.982    12 H    0.981
                             2 C    0.908
     2   6 C    3.989 --     3 C    1.085     9 C    1.073     1 C    0.908
                            14 H    0.836
     3   6 C    3.958 --     4 C    1.553     2 C    1.085    15 H    0.960
     4   6 C    3.974 --     3 C    1.553     7 C    1.307     5 C    0.988
     5   6 C    3.976 --     6 N    1.019     4 C    0.988    16 H    0.962
                            17 H    0.958
     6   7 N    2.967 --     5 C    1.019    18 H    0.940    19 H    0.939
     7   6 C    3.942 --     8 C    1.410     4 C    1.307    20 H    0.964
     8   6 C    3.982 --     9 C    1.462     7 C    1.410    21 H    0.955
     9   6 C    3.840 --     8 C    1.462     2 C    1.073    10 F    1.034
    10   9 F    1.202 --     9 C    1.034
    11   1 H    0.992 --     1 C    0.982
    12   1 H    0.995 --     1 C    0.981
    13   1 H    0.994 --     1 C    0.984
    14   1 H    0.976 --     2 C    0.836
    15   1 H    0.994 --     3 C    0.960
    16   1 H    1.004 --     5 C    0.962
    17   1 H    1.003 --     5 C    0.958
    18   1 H    0.951 --     6 N    0.940
    19   1 H    0.951 --     6 N    0.939
    20   1 H    0.990 --     7 C    0.964
    21   1 H    0.984 --     8 C    0.955
 ---------------------------------------------------------------------------

           -------------------------------------------------
          | TOTAL ENERGY              -30.770432359280 Eh   |
          | GRADIENT NORM               0.000411969964 Eh/α |
          | HOMO-LUMO GAP               0.405793229663 eV   |
           -------------------------------------------------

 * finished run on 2023/06/20 at 15:14:33.553
