   * xtb version 6.5.1 (579679a) compiled by 'ehlert@majestix' on 2022-07-11
          program call               : /lustre/hpc/kemi/ree/PhD/git/ReactivityQM/dep/xtb-6.5.1/bin/xtb --gfn 1 /lustre/hpc/kemi/ree/PhD/git/ReactivityQM/calculations/R02oxygendeprot/reac01prodN13/conf03/R02oxygendeprot_reac01prodN13_conf03_gfn1.xyz --opt --vfukui --chrg 0 --uhf 0 --alpb DMSO

   ID    Z sym.   atoms
    1    6 C      1, 3, 5, 7-10, 12, 14, 17-19, 22, 24
    2    8 O      2, 4, 13, 20, 23, 25
    3    7 N      6, 11, 15, 16, 21
    4    1 H      26-42

      * Solvation model:               ALPB
        Solvent                        DMSO
        Solvent mass                       7.8130E+01 g/mol
          :  Hamiltonian                  GFN1-xTB          :
 * total energy  :   -82.9263882 Eh     change       -0.2341238E-09 Eh
 * total energy  :   -82.9360773 Eh     change       -0.9689150E-02 Eh
 * total energy  :   -82.9397115 Eh     change       -0.3634220E-02 Eh
 * total energy  :   -82.9401700 Eh     change       -0.4584644E-03 Eh
 * total energy  :   -82.9404351 Eh     change       -0.2651107E-03 Eh
 * total energy  :   -82.9405655 Eh     change       -0.1304158E-03 Eh
 * total energy  :   -82.9406850 Eh     change       -0.1194694E-03 Eh
 * total energy  :   -82.9407748 Eh     change       -0.8984630E-04 Eh
 * total energy  :   -82.9408422 Eh     change       -0.6739842E-04 Eh
 * total energy  :   -82.9408852 Eh     change       -0.4296405E-04 Eh
 * total energy  :   -82.9409158 Eh     change       -0.3055800E-04 Eh
 * total energy  :   -82.9409511 Eh     change       -0.3535451E-04 Eh
 * total energy  :   -82.9409703 Eh     change       -0.1921979E-04 Eh
 * total energy  :   -82.9410044 Eh     change       -0.3405597E-04 Eh
 * total energy  :   -82.9410249 Eh     change       -0.2054253E-04 Eh
 * total energy  :   -82.9410350 Eh     change       -0.1008267E-04 Eh
 * total energy  :   -82.9410442 Eh     change       -0.9171219E-05 Eh
 * total energy  :   -82.9410476 Eh     change       -0.3396839E-05 Eh
   *** GEOMETRY OPTIMIZATION CONVERGED AFTER 18 ITERATIONS ***

 final structure:
================
42
 xtb: 6.5.1 (579679a)
C            6.82208104329802        1.66368085030625        0.70785765601353
O            5.53398163226193        1.73440520962726        0.09544761557492
C            4.70201011516384        0.72389707470761        0.35096654849811
O            5.00581014696667       -0.21311704909512        1.06145386932760
C            3.37778120540362        0.84749627628426       -0.31097403874697
N            2.55077560697070       -0.18430269606111       -0.03993209855092
C            1.35021124234017       -0.23472554804462       -0.53807146554193
C            0.49337277968561       -1.44748587203789       -0.26582618600273
C            0.95344828425180       -2.14569515107062        1.01816952901189
C            0.61993538332633       -2.38003900185780       -1.48391656013857
N           -0.89912121030548       -1.00904770383444       -0.11598088125004
C           -1.92167072861301       -1.87637931739083        0.04587110145425
O           -1.84122066686890       -3.09229807992434        0.03136743846988
C           -3.22424059800205       -1.19184133126003        0.24405800573422
N           -4.39295711753565       -1.81926361326917        0.45169982209304
N           -5.31237782757840       -0.93618916264740        0.58481592858455
C           -4.73442504579776        0.37477716617487        0.46097176158268
C           -5.32283905969914        1.10294782246377       -0.74985131380145
C           -4.91390465854373        1.16260045908393        1.76050397885611
O           -3.34351540028619        0.11553935118133        0.23896965347863
N            0.87714320318222        0.72761026860407       -1.37322530596762
C            1.59886457962583        1.85210662884043       -1.74520878027544
O            1.10434764757766        2.67251284067099       -2.49170532882862
C            2.99636476520271        1.94338644375377       -1.16430786954753
O            3.70198091555679        2.90803603227314       -1.44961308126439
H            7.35628819353293        0.77543755833137        0.36102051063402
H            7.35849250518343        2.56438887167051        0.41536710525549
H            6.72078855740682        1.61945205499476        1.79510156382942
H            2.00745834635526       -2.40422781610303        0.92820671739344
H            0.82283396911656       -1.47897551164115        1.86855905146245
H            0.37160845799030       -3.05095723994955        1.17796085965416
H            1.67230373989821       -2.59485438051111       -1.66061287444050
H            0.09311763829566       -3.31375786075335       -1.30208069858083
H            0.20024095422526       -1.89709052020543       -2.36355190975465
H           -1.08411449976280       -0.02907384501878        0.01896370361771
H           -5.16579013991200        0.50210887186397       -1.64299021282145
H           -6.38791725989745        1.25282005620069       -0.59158741701796
H           -4.82824989441157        2.06407625449178       -0.86422623404354
H           -4.46104212195476        0.61176690511295        2.58209956017284
H           -4.43226039564050        2.13210876402824        1.66147801830183
H           -5.97609187642615        1.29634885895143        1.95043456408511
H           -0.04950441158587        0.65181408106267       -1.76037230650996

          :  Hamiltonian                  GFN1-xTB          :
         :: total energy             -82.941047586645 Eh    ::
         :: gradient norm              0.000875803481 Eh/a0 ::
         :: HOMO-LUMO gap              0.044951574101 eV    ::
         :: SCC energy               -83.707820690178 Eh    ::
         :: -> Gsolv                  -0.071117693129 Eh    ::
         :: repulsion energy           0.792199825962 Eh    ::

    * Orbital Energies and Occupations

         #    Occupation            Energy/Eh            Energy/eV
      -------------------------------------------------------------
         1        2.0000           -0.8814721             -23.9861
       ...           ...                  ...                  ...
        55        2.0000           -0.5126475             -13.9498
        56        2.0000           -0.5102776             -13.8854
        57        2.0000           -0.5069856             -13.7958
        58        2.0000           -0.5030576             -13.6889
        59        2.0000           -0.4906474             -13.3512
        60        2.0000           -0.4866969             -13.2437
        61        2.0000           -0.4814262             -13.1003
        62        2.0000           -0.4740260             -12.8989
        63        2.0000           -0.4676739             -12.7261
        64        2.0000           -0.4666973             -12.6995
        65        2.0000           -0.4597992             -12.5118
        66        2.0000           -0.4237703             -11.5314
        67        1.4092           -0.4070387             -11.0761 (HOMO)
        68        0.5908           -0.4053868             -11.0311 (LUMO)
        69                         -0.3216538              -8.7526
        70                         -0.3099629              -8.4345
        71                         -0.2843641              -7.7379
        72                         -0.2350464              -6.3959
        73                         -0.2220332              -6.0418
        74                         -0.1566717              -4.2633
        75                         -0.1427629              -3.8848
        76                         -0.1372676              -3.7352
        77                         -0.1336442              -3.6366
        78                         -0.1333942              -3.6298
       ...                                ...                  ...
       134                          0.7479460              20.3526
      -------------------------------------------------------------
                  HL-Gap            0.0016519 Eh            0.0450 eV

Wiberg/Mayer (AO) data.
largest (>0.10) Wiberg bond orders for each atom

     #   Z sym  total        # sym  WBO       # sym  WBO       # sym  WBO
 ---------------------------------------------------------------------------
     1   6 C    3.875 --    27 H    0.986    28 H    0.979    26 H    0.979
                             2 O    0.902
     2   8 O    2.194 --     3 C    1.109     1 C    0.902     4 O    0.132
     3   6 C    3.842 --     4 O    1.633     2 O    1.109     5 C    1.023
     4   8 O    1.877 --     3 C    1.633     2 O    0.132
     5   6 C    3.712 --     6 N    1.296    24 C    1.163     3 C    1.023
     6   7 N    2.986 --     7 C    1.477     5 C    1.296
     7   6 C    3.791 --     6 N    1.477    21 N    1.188     8 C    0.989
     8   6 C    3.924 --     7 C    0.989     9 C    0.985    10 C    0.965
                            11 N    0.920
     9   6 C    3.982 --    30 H    0.985     8 C    0.985    31 H    0.982
                            29 H    0.981
    10   6 C    3.973 --    34 H    0.985    32 H    0.984    33 H    0.976
                             8 C    0.965
    11   7 N    3.330 --    12 C    1.250     8 C    0.920    35 H    0.890
                            13 O    0.187
    12   6 C    3.909 --    13 O    1.584    11 N    1.250    14 C    0.993
    13   8 O    1.890 --    12 C    1.584    11 N    0.187
    14   6 C    3.625 --    15 N    1.315    20 O    1.175    12 C    0.993
    15   7 N    2.998 --    16 N    1.543    14 C    1.315
    16   7 N    2.688 --    15 N    1.543    17 C    1.025
    17   6 C    3.834 --    16 N    1.025    19 C    0.939    18 C    0.938
                            20 O    0.869
    18   6 C    3.937 --    36 H    0.982    37 H    0.982    38 H    0.980
                            17 C    0.938
    19   6 C    3.938 --    39 H    0.982    41 H    0.982    40 H    0.980
                            17 C    0.939
    20   8 O    2.198 --    14 C    1.175    17 C    0.869
    21   7 N    3.421 --     7 C    1.188    22 C    1.103    42 H    0.882
                            23 O    0.112
    22   6 C    3.838 --    23 O    1.657    21 N    1.103    24 C    0.948
    23   8 O    1.878 --    22 C    1.657    21 N    0.112
    24   6 C    3.865 --    25 O    1.615     5 C    1.163    22 C    0.948
    25   8 O    1.793 --    24 C    1.615
    26   1 H    1.007 --     1 C    0.979
    27   1 H    1.011 --     1 C    0.986
    28   1 H    1.007 --     1 C    0.979
    29   1 H    1.011 --     9 C    0.981
    30   1 H    1.002 --     9 C    0.985
    31   1 H    1.005 --     9 C    0.982
    32   1 H    1.000 --    10 C    0.984
    33   1 H    1.007 --    10 C    0.976
    34   1 H    1.000 --    10 C    0.985
    35   1 H    0.931 --    11 N    0.890
    36   1 H    0.996 --    18 C    0.982
    37   1 H    0.997 --    18 C    0.982
    38   1 H    0.996 --    18 C    0.980
    39   1 H    0.996 --    19 C    0.982
    40   1 H    0.996 --    19 C    0.980
    41   1 H    0.997 --    19 C    0.982
    42   1 H    0.927 --    21 N    0.882
 ---------------------------------------------------------------------------

           -------------------------------------------------
          | TOTAL ENERGY              -82.941047586645 Eh   |
          | GRADIENT NORM               0.000875803481 Eh/α |
          | HOMO-LUMO GAP               0.044951574101 eV   |
           -------------------------------------------------

 * finished run on 2023/06/21 at 17:29:09.449
