   * xtb version 6.5.1 (579679a) compiled by 'ehlert@majestix' on 2022-07-11
          program call               : /lustre/hpc/kemi/ree/PhD/git/ReactivityQM/dep/xtb-6.5.1/bin/xtb --gfn 1 /lustre/hpc/kemi/ree/PhD/git/ReactivityQM/calculations/RaltegravirCLI/reac02prodN04/conf07/RaltegravirCLI_reac02prodN04_conf07_gfn1.xyz --opt --vfukui --chrg 1 --uhf 0 --alpb DMSO

   ID    Z sym.   atoms
    1    6 C      1, 3-6, 9-11, 14-18, 20-22, 24
    2    7 N      2, 7, 8, 13
    3    8 O      12, 23, 25
    4    9 F      19
    5    1 H      26-47

      * Solvation model:               ALPB
        Solvent                        DMSO
        Solvent mass                       7.8130E+01 g/mol
          :  Hamiltonian                  GFN1-xTB          :
 * total energy  :   -79.4953158 Eh     change       -0.2110312E-10 Eh
 * total energy  :   -79.5110845 Eh     change       -0.1576865E-01 Eh
 * total energy  :   -79.5169955 Eh     change       -0.5911014E-02 Eh
 * total energy  :   -79.5188202 Eh     change       -0.1824680E-02 Eh
 * total energy  :   -79.5204084 Eh     change       -0.1588203E-02 Eh
 * total energy  :   -79.5213874 Eh     change       -0.9789869E-03 Eh
 * total energy  :   -79.5221582 Eh     change       -0.7708125E-03 Eh
 * total energy  :   -79.5226534 Eh     change       -0.4951985E-03 Eh
 * total energy  :   -79.5229830 Eh     change       -0.3296417E-03 Eh
 * total energy  :   -79.5231201 Eh     change       -0.1371422E-03 Eh
 * total energy  :   -79.5238227 Eh     change       -0.1841602E-04 Eh
 * total energy  :   -79.5238395 Eh     change       -0.1685679E-04 Eh
 * total energy  :   -79.5238556 Eh     change       -0.1609522E-04 Eh
 * total energy  :   -79.5238698 Eh     change       -0.1422165E-04 Eh
 * total energy  :   -79.5238842 Eh     change       -0.1431618E-04 Eh
 * total energy  :   -79.5238966 Eh     change       -0.1247908E-04 Eh
 * total energy  :   -79.5239041 Eh     change       -0.7504641E-05 Eh
 * total energy  :   -79.5239092 Eh     change       -0.5075642E-05 Eh
 * total energy  :   -79.5239120 Eh     change       -0.2755850E-05 Eh
   *** GEOMETRY OPTIMIZATION CONVERGED AFTER 35 ITERATIONS ***

 final structure:
================
47
 xtb: 6.5.1 (579679a)
C           -3.66107154712256       -2.14892181387183       -1.12094343303753
N           -2.50967830342332       -1.23754105474777       -1.03872667441008
C           -2.34314749238712       -0.29539148487291       -0.08474525660493
C           -3.53759854354743        0.23901669965601        0.72095887836658
C           -3.77776652940800       -0.58987888078818        1.99098957783608
C           -4.82253724530858        0.30982540001998       -0.13253869592382
N           -3.22432178905883        1.60891959193834        1.11166708763365
N           -1.12431662861065        0.23400646676467        0.06320602078922
C           -0.72295882681330        0.91638108413502        1.30848393330082
C           -0.10768809546459        0.06992711764859       -0.87320950977634
C            1.12846955061567        0.94334840292216       -0.77325088783956
O            1.06751636929779        2.09237914540176       -0.36400328815863
N            2.24514130165159        0.35950088454087       -1.21389689900585
C            3.51826641419715        1.07767670015006       -1.24414889586080
C            4.40390452107505        0.65657886644017       -0.09229187506982
C            3.95670864360656        0.80005466827206        1.22008473242126
C            4.76178728506213        0.42364107087173        2.28474750114575
C            6.01600474390764       -0.09193343077108        2.00859855073274
F            6.80094949037883       -0.45772530664998        3.03248048792620
C            6.49081053989044       -0.24735374987742        0.71918116477964
C            5.67005458906490        0.13130266955337       -0.33477411793857
C           -0.33064913590209       -0.75307652463171       -1.93037429271424
O            0.56029257014768       -0.94087619880641       -2.90717311670468
C           -1.55605403175491       -1.52146803958782       -2.02455764246714
O           -1.74915318668855       -2.35367463025316       -2.88752306321697
H           -3.27134713211918       -3.12512569621255       -1.41030714280079
H           -4.14782042764034       -2.23104701757513       -0.15832841796487
H           -4.35269210509543       -1.80348680165789       -1.88701218564754
H           -2.94486229947852       -0.48735986256985        2.68400194319204
H           -3.90452470944448       -1.64401253824344        1.75516747649535
H           -4.68228929763334       -0.22944537513094        2.47805459602851
H           -4.59065502767935        0.55231390269615       -1.16740131238588
H           -5.40417643957709       -0.60661289536730       -0.09149247482711
H           -5.44434378985972        1.10598277874316        0.27490642668941
H           -3.88164974410183        1.90000892346267        1.82180659073892
H           -3.33581464908898        2.22069184838773        0.31336206676656
H           -0.79299516091275        1.99443101596295        1.18382921691652
H            0.30526117063420        0.63122468455337        1.52217441757133
H           -1.35885065404714        0.59165322057834        2.12183030499723
H            2.24305797984070       -0.59834197328448       -1.51807997236206
H            3.29471962016332        2.14765422097658       -1.18260716377263
H            4.00233710533270        0.86745640147785       -2.20094178114433
H            2.96924226427348        1.20324948491709        1.41068704514255
H            4.42493839284167        0.52577456508049        3.30795625250109
H            7.47696594141573       -0.65755338173494        0.54390889473250
H            6.02078696708200        0.01518948632661       -1.35339856247523
H            0.22175233171514       -1.59736264484640       -3.54436950460155

          :  Hamiltonian                  GFN1-xTB          :
         :: total energy             -79.523911973490 Eh    ::
         :: gradient norm              0.000336519036 Eh/a0 ::
         :: HOMO-LUMO gap              2.319250547154 eV    ::
         :: SCC energy               -80.424620079339 Eh    ::
         :: -> Gsolv                  -0.107699562426 Eh    ::
         :: repulsion energy           0.931990411678 Eh    ::

    * Orbital Energies and Occupations

         #    Occupation            Energy/Eh            Energy/eV
      -------------------------------------------------------------
         1        2.0000           -0.8794257             -23.9304
       ...           ...                  ...                  ...
        55        2.0000           -0.5211069             -14.1800
        56        2.0000           -0.5164397             -14.0530
        57        2.0000           -0.5147534             -14.0072
        58        2.0000           -0.5100675             -13.8796
        59        2.0000           -0.5084699             -13.8362
        60        2.0000           -0.5054327             -13.7535
        61        2.0000           -0.4811517             -13.0928
        62        2.0000           -0.4794241             -13.0458
        63        2.0000           -0.4700178             -12.7898
        64        2.0000           -0.4616273             -12.5615
        65        2.0000           -0.4588649             -12.4864
        66        2.0000           -0.4443984             -12.0927
        67        2.0000           -0.4374518             -11.9037 (HOMO)
        68                         -0.3522209              -9.5844 (LUMO)
        69                         -0.3497107              -9.5161
        70                         -0.2809685              -7.6455
        71                         -0.2755935              -7.4993
        72                         -0.2670145              -7.2658
        73                         -0.2088822              -5.6840
        74                         -0.1620909              -4.4107
        75                         -0.1542527              -4.1974
        76                         -0.1526044              -4.1526
        77                         -0.1469034              -3.9974
        78                         -0.1368201              -3.7231
       ...                                ...                  ...
       144                          0.6959424              18.9376
      -------------------------------------------------------------
                  HL-Gap            0.0852309 Eh            2.3193 eV

Wiberg/Mayer (AO) data.
largest (>0.10) Wiberg bond orders for each atom

     #   Z sym  total        # sym  WBO       # sym  WBO       # sym  WBO
 ---------------------------------------------------------------------------
     1   6 C    3.896 --    27 H    0.978    28 H    0.972    26 H    0.967
                             2 N    0.910
     2   7 N    3.528 --     3 C    1.279    24 C    1.072     1 C    0.910
                            25 O    0.119
     3   6 C    3.886 --     8 N    1.369     2 N    1.279     4 C    0.968
     4   6 C    3.954 --     7 N    0.993     5 C    0.978     6 C    0.977
                             3 C    0.968
     5   6 C    3.987 --    31 H    0.979    30 H    0.978     4 C    0.978
                            29 H    0.976
     6   6 C    3.987 --    32 H    0.984    33 H    0.979    34 H    0.978
                             4 C    0.977
     7   7 N    2.976 --     4 C    0.993    36 H    0.935    35 H    0.929
     8   7 N    3.576 --     3 C    1.369    10 C    1.100     9 C    0.901
     9   6 C    3.891 --    39 H    0.976    38 H    0.975    37 H    0.966
                             8 N    0.901
    10   6 C    3.922 --    22 C    1.536     8 N    1.100    11 C    0.958
    11   6 C    3.920 --    12 O    1.571    13 N    1.312    10 C    0.958
    12   8 O    1.911 --    11 C    1.571    13 N    0.186
    13   7 N    3.386 --    11 C    1.312    14 C    0.930    40 H    0.891
                            12 O    0.186
    14   6 C    3.933 --    15 C    0.995    42 H    0.974    41 H    0.964
                            13 N    0.930
    15   6 C    3.988 --    21 C    1.422    16 C    1.414    14 C    0.995
    16   6 C    3.994 --    17 C    1.449    15 C    1.414    43 H    0.970
                            20 C    0.111
    17   6 C    3.992 --    16 C    1.449    18 C    1.396    44 H    0.969
                            21 C    0.109
    18   6 C    3.862 --    20 C    1.403    17 C    1.396    19 F    0.929
    19   9 F    1.059 --    18 C    0.929
    20   6 C    3.991 --    21 C    1.440    18 C    1.403    45 H    0.969
                            16 C    0.111
    21   6 C    3.993 --    20 C    1.440    15 C    1.422    46 H    0.970
                            17 C    0.109
    22   6 C    3.927 --    10 C    1.536    23 O    1.108    24 C    1.066
    23   8 O    2.087 --    22 C    1.108    47 H    0.790
    24   6 C    3.908 --    25 O    1.622     2 N    1.072    22 C    1.066
    25   8 O    1.954 --    24 C    1.622     2 N    0.119
    26   1 H    0.999 --     1 C    0.967
    27   1 H    1.004 --     1 C    0.978
    28   1 H    0.997 --     1 C    0.972
    29   1 H    1.001 --     5 C    0.976
    30   1 H    1.000 --     5 C    0.978
    31   1 H    0.995 --     5 C    0.979
    32   1 H    0.997 --     6 C    0.984
    33   1 H    1.000 --     6 C    0.979
    34   1 H    0.998 --     6 C    0.978
    35   1 H    0.944 --     7 N    0.929
    36   1 H    0.948 --     7 N    0.935
    37   1 H    1.022 --     9 C    0.966
    38   1 H    1.003 --     9 C    0.975
    39   1 H    1.018 --     9 C    0.976
    40   1 H    0.937 --    13 N    0.891
    41   1 H    1.007 --    14 C    0.964
    42   1 H    1.001 --    14 C    0.974
    43   1 H    1.003 --    16 C    0.970
    44   1 H    0.997 --    17 C    0.969
    45   1 H    0.997 --    20 C    0.969
    46   1 H    0.998 --    21 C    0.970
    47   1 H    0.824 --    23 O    0.790
 ---------------------------------------------------------------------------

           -------------------------------------------------
          | TOTAL ENERGY              -79.523911973490 Eh   |
          | GRADIENT NORM               0.000336519036 Eh/α |
          | HOMO-LUMO GAP               2.319250547154 eV   |
           -------------------------------------------------

 * finished run on 2023/06/20 at 15:20:14.053
