   * xtb version 6.5.1 (579679a) compiled by 'ehlert@majestix' on 2022-07-11
          program call               : /lustre/hpc/kemi/ree/PhD/git/ReactivityQM/dep/xtb-6.5.1/bin/xtb --gfn 1 /lustre/hpc/kemi/ree/PhD/git/ReactivityQM/calculations/R02methylcation/reac01prodN19/conf14/R02methylcation_reac01prodN19_conf14_gfn1.xyz --opt --vfukui --chrg 0 --uhf 0 --alpb DMSO

   ID    Z sym.   atoms
    1    6 C      1, 3, 5, 7-10, 12, 14, 17, 18, 21, 23, 24
    2    8 O      2, 4, 13, 19, 22, 25
    3    7 N      6, 11, 15, 16, 20
    4    1 H      26-42

      * Solvation model:               ALPB
        Solvent                        DMSO
        Solvent mass                       7.8130E+01 g/mol
          :  Hamiltonian                  GFN1-xTB          :
 * total energy  :   -82.9726120 Eh     change       -0.4445155E-10 Eh
 * total energy  :   -82.9881335 Eh     change       -0.1552152E-01 Eh
 * total energy  :   -82.9944382 Eh     change       -0.6304672E-02 Eh
 * total energy  :   -82.9960049 Eh     change       -0.1566692E-02 Eh
 * total energy  :   -82.9966914 Eh     change       -0.6864913E-03 Eh
 * total energy  :   -82.9969177 Eh     change       -0.2263281E-03 Eh
 * total energy  :   -82.9970496 Eh     change       -0.1318474E-03 Eh
 * total energy  :   -82.9971495 Eh     change       -0.9992224E-04 Eh
 * total energy  :   -82.9972228 Eh     change       -0.7329631E-04 Eh
 * total energy  :   -82.9972744 Eh     change       -0.5162372E-04 Eh
 * total energy  :   -82.9979449 Eh     change       -0.8214668E-05 Eh
 * total energy  :   -82.9979517 Eh     change       -0.6805958E-05 Eh
 * total energy  :   -82.9979567 Eh     change       -0.5059816E-05 Eh
 * total energy  :   -82.9979625 Eh     change       -0.5755570E-05 Eh
 * total energy  :   -82.9979719 Eh     change       -0.9350968E-05 Eh
 * total energy  :   -82.9979794 Eh     change       -0.7526356E-05 Eh
 * total energy  :   -82.9979851 Eh     change       -0.5682132E-05 Eh
 * total energy  :   -82.9979933 Eh     change       -0.8246867E-05 Eh
 * total energy  :   -82.9979962 Eh     change       -0.2902356E-05 Eh
   *** GEOMETRY OPTIMIZATION CONVERGED AFTER 50 ITERATIONS ***

 final structure:
================
42
 xtb: 6.5.1 (579679a)
C           -6.25958216296934        1.44458980077557       -1.16351904485315
O           -5.13221621912754        0.59492953488400       -0.94897973623421
C           -4.06186820326320        1.16012551772184       -0.38577788251315
O           -4.03280244152066        2.33265249187219       -0.06806231111365
C           -2.92136455193859        0.23250064902259       -0.18374744719084
N           -1.85013588042445        0.83193087325287        0.38390940602415
C           -0.76574736429728        0.17729585249917        0.63822781442706
C            0.41793060480530        0.83137784673218        1.31180982946211
C            0.23949982990603        2.35259761847679        1.31373788170237
C            0.54058249172090        0.28508213209561        2.74242140852609
N            1.61180198101154        0.46685353271630        0.53715141145166
C            2.86334687473481        0.85346808129070        0.87356934523783
O            3.17074660848339        1.47374885371975        1.87406544628221
C            3.83987916995518        0.41080508872339       -0.15473260297644
N            3.55410057352043       -0.18265394296216       -1.27477123027462
N            4.73632795396159       -0.39946420830171       -1.91665844165263
C            5.66779065044177        0.07744577192568       -1.14679615623798
C            7.12635394987951        0.08851161788462       -1.39432292827669
O            5.16396499521728        0.60433683862499       -0.02125907818670
N           -0.68595115667679       -1.16372515611013        0.34356549409486
C           -1.68609973892166       -1.83546305662708       -0.22043748683764
O           -1.40952441027202       -3.11156109540284       -0.42614094856663
C           -2.35172225540367       -4.02031588976415       -1.01278032673573
C           -2.94337161558677       -1.15140380420824       -0.54785624792812
O           -3.88397105976171       -1.76115470048670       -1.07761665419551
H           -5.99173350577530        2.26656487294846       -1.83250109505866
H           -7.03437995502233        0.82841002399392       -1.61582254330052
H           -6.61002835475500        1.85515327691525       -0.21308421850743
H           -0.68545639332739        2.60559812148552        1.82995389455460
H            1.07632772177081        2.82492068081282        1.82420029602680
H            0.18552464200359        2.72216313841217        0.29085544557306
H            1.36272379763882        0.77272412167096        3.26240673733521
H            0.72297228443251       -0.78731183172541        2.71702741276610
H           -0.38539286075449        0.47577902893944        3.28270290798148
H            1.48851403285918        0.01162947947246       -0.35383001626610
H            7.47194818098395        1.11325274102355       -1.53695629513722
H            7.35102161713012       -0.49479379762754       -2.28427311035355
H            7.65287123716985       -0.32866774359236       -0.53640909184024
H            0.15499757045308       -1.68173058933995        0.55575824705301
H           -1.84164146260641       -4.98287289355054       -1.04346489174171
H           -2.61523059751624       -3.70224609109977       -2.02278875290966
H           -3.25100757815778       -4.09108678709617       -0.39877643961215

          :  Hamiltonian                  GFN1-xTB          :
         :: total energy             -82.997996212966 Eh    ::
         :: gradient norm              0.000934747711 Eh/a0 ::
         :: HOMO-LUMO gap              2.213931764168 eV    ::
         :: SCC energy               -83.776492014714 Eh    ::
         :: -> Gsolv                  -0.059234255261 Eh    ::
         :: repulsion energy           0.803196305420 Eh    ::

    * Orbital Energies and Occupations

         #    Occupation            Energy/Eh            Energy/eV
      -------------------------------------------------------------
         1        2.0000           -0.8658188             -23.5601
       ...           ...                  ...                  ...
        55        2.0000           -0.5073244             -13.8050
        56        2.0000           -0.5034360             -13.6992
        57        2.0000           -0.4946007             -13.4588
        58        2.0000           -0.4886991             -13.2982
        59        2.0000           -0.4850070             -13.1977
        60        2.0000           -0.4718514             -12.8397
        61        2.0000           -0.4704727             -12.8022
        62        2.0000           -0.4657333             -12.6732
        63        2.0000           -0.4637146             -12.6183
        64        2.0000           -0.4546481             -12.3716
        65        2.0000           -0.4510010             -12.2724
        66        2.0000           -0.4253593             -11.5746
        67        2.0000           -0.4152496             -11.2995 (HOMO)
        68                         -0.3338891              -9.0856 (LUMO)
        69                         -0.3136442              -8.5347
        70                         -0.2846971              -7.7470
        71                         -0.2589000              -7.0450
        72                         -0.2428530              -6.6084
        73                         -0.2019332              -5.4949
        74                         -0.1556656              -4.2359
        75                         -0.1448502              -3.9416
        76                         -0.1430542              -3.8927
        77                         -0.1353746              -3.6837
        78                         -0.1333978              -3.6299
       ...                                ...                  ...
       134                          0.7253627              19.7381
      -------------------------------------------------------------
                  HL-Gap            0.0813605 Eh            2.2139 eV

Wiberg/Mayer (AO) data.
largest (>0.10) Wiberg bond orders for each atom

     #   Z sym  total        # sym  WBO       # sym  WBO       # sym  WBO
 ---------------------------------------------------------------------------
     1   6 C    3.879 --    27 H    0.986    26 H    0.980    28 H    0.980
                             2 O    0.904
     2   8 O    2.201 --     3 C    1.105     1 C    0.904     4 O    0.129
     3   6 C    3.854 --     4 O    1.630     2 O    1.105     5 C    1.029
     4   8 O    1.898 --     3 C    1.630     2 O    0.129
     5   6 C    3.948 --     6 N    1.280    24 C    1.218     3 C    1.029
                            25 O    0.130
     6   7 N    3.046 --     7 C    1.547     5 C    1.280
     7   6 C    3.914 --     6 N    1.547    20 N    1.117     8 C    0.983
     8   6 C    3.932 --     9 C    0.992     7 C    0.983    10 C    0.978
                            11 N    0.919
     9   6 C    3.989 --     8 C    0.992    31 H    0.985    29 H    0.983
                            30 H    0.982
    10   6 C    3.986 --    34 H    0.985    33 H    0.984     8 C    0.978
                            32 H    0.977
    11   7 N    3.331 --    12 C    1.241     8 C    0.919    35 H    0.895
                            13 O    0.175
    12   6 C    3.915 --    13 O    1.602    11 N    1.241    14 C    0.989
    13   8 O    1.918 --    12 C    1.602    11 N    0.175
    14   6 C    3.876 --    15 N    1.609    19 O    1.065    12 C    0.989
    15   7 N    3.018 --    14 C    1.609    16 N    1.200
    16   7 N    2.981 --    17 C    1.604    15 N    1.200
    17   6 C    3.870 --    16 N    1.604    19 O    1.083    18 C    1.032
    18   6 C    3.986 --    17 C    1.032    37 H    0.982    38 H    0.966
                            36 H    0.960
    19   8 O    2.332 --    17 C    1.083    14 C    1.065
    20   7 N    3.528 --    21 C    1.321     7 C    1.117    39 H    0.877
    21   6 C    3.857 --    20 N    1.321    22 O    1.143    24 C    1.069
    22   8 O    2.228 --    21 C    1.143    23 C    0.876
    23   6 C    3.846 --    40 H    0.984    42 H    0.977    41 H    0.977
                            22 O    0.876
    24   6 C    3.951 --    25 O    1.508     5 C    1.218    21 C    1.069
    25   8 O    1.858 --    24 C    1.508     5 C    0.130
    26   1 H    1.009 --     1 C    0.980
    27   1 H    1.012 --     1 C    0.986
    28   1 H    1.009 --     1 C    0.980
    29   1 H    1.009 --     9 C    0.983
    30   1 H    1.007 --     9 C    0.982
    31   1 H    1.005 --     9 C    0.985
    32   1 H    1.008 --    10 C    0.977
    33   1 H    1.001 --    10 C    0.984
    34   1 H    1.001 --    10 C    0.985
    35   1 H    0.952 --    11 N    0.895
    36   1 H    0.996 --    18 C    0.960
    37   1 H    0.998 --    18 C    0.982
    38   1 H    0.996 --    18 C    0.966
    39   1 H    0.924 --    20 N    0.877
    40   1 H    1.009 --    23 C    0.984
    41   1 H    1.015 --    23 C    0.977
    42   1 H    1.015 --    23 C    0.977
 ---------------------------------------------------------------------------

           -------------------------------------------------
          | TOTAL ENERGY              -82.997996212966 Eh   |
          | GRADIENT NORM               0.000934747711 Eh/α |
          | HOMO-LUMO GAP               2.213931764168 eV   |
           -------------------------------------------------

 * finished run on 2023/06/21 at 18:03:03.024
