   * xtb version 6.5.1 (579679a) compiled by 'ehlert@majestix' on 2022-07-11
          program call               : /lustre/hpc/kemi/ree/PhD/git/ReactivityQM/dep/xtb-6.5.1/bin/xtb --gfn 1 /lustre/hpc/kemi/ree/PhD/git/ReactivityQM/calculations/R02methylcation/reac01prodN10/conf13/R02methylcation_reac01prodN10_conf13_gfn1.xyz --opt --vfukui --chrg 0 --uhf 0 --alpb DMSO

   ID    Z sym.   atoms
    1    6 C      1, 3, 5, 6, 8, 11-15, 17, 19, 22, 23
    2    8 O      2, 4, 7, 9, 18, 24
    3    7 N      10, 16, 20, 21, 25
    4    1 H      26-42

      * Solvation model:               ALPB
        Solvent                        DMSO
        Solvent mass                       7.8130E+01 g/mol
          :  Hamiltonian                  GFN1-xTB          :
 * total energy  :   -82.9626960 Eh     change       -0.7048584E-11 Eh
 * total energy  :   -82.9752391 Eh     change       -0.1254310E-01 Eh
 * total energy  :   -82.9805286 Eh     change       -0.5289493E-02 Eh
 * total energy  :   -82.9814509 Eh     change       -0.9222549E-03 Eh
 * total energy  :   -82.9818624 Eh     change       -0.4115031E-03 Eh
 * total energy  :   -82.9820372 Eh     change       -0.1747562E-03 Eh
 * total energy  :   -82.9821328 Eh     change       -0.9567968E-04 Eh
 * total energy  :   -82.9821994 Eh     change       -0.6655477E-04 Eh
 * total energy  :   -82.9822664 Eh     change       -0.6696885E-04 Eh
 * total energy  :   -82.9823372 Eh     change       -0.7080381E-04 Eh
 * total energy  :   -82.9827242 Eh     change       -0.8813374E-05 Eh
 * total energy  :   -82.9827308 Eh     change       -0.6653918E-05 Eh
 * total energy  :   -82.9827414 Eh     change       -0.1056053E-04 Eh
 * total energy  :   -82.9826871 Eh     change        0.5431342E-04 Eh
 * total energy  :   -82.9827574 Eh     change       -0.7033093E-04 Eh
 * total energy  :   -82.9827634 Eh     change       -0.5993539E-05 Eh
 * total energy  :   -82.9827762 Eh     change       -0.1284588E-04 Eh
 * total energy  :   -82.9827864 Eh     change       -0.1020530E-04 Eh
 * total energy  :   -82.9827909 Eh     change       -0.4436538E-05 Eh
   *** GEOMETRY OPTIMIZATION CONVERGED AFTER 34 ITERATIONS ***

 final structure:
================
42
 xtb: 6.5.1 (579679a)
C           -6.70270027285091        0.26570750542926        0.34548146491227
O           -5.37921562833624        0.46393928847748       -0.16897397162212
C           -4.40142678130868       -0.19217918513287        0.42696773807447
O           -4.54187637060596       -0.94286027275454        1.35847293967737
C           -3.05272694824524        0.08756183946591       -0.20858580580051
C           -2.79402824470968        1.35673698103968       -0.94903300187487
O           -3.41252185866639        2.37552925836369       -0.77841464115418
C           -1.63303602355636        1.25118384781357       -1.93983208499113
O           -1.53569299297457        1.95568028400805       -2.92378542012678
N           -0.73473013043414        0.29448680209323       -1.62573884794148
C           -0.83316904712623       -0.67324947135423       -0.54653556414377
C           -0.43944377118578       -2.04350613328887       -1.11213714572083
C            0.07554136364968       -0.23639231064838        0.65993155196051
C           -0.00875290521238       -1.27378389141328        1.78298635128912
C           -0.33727321875909        1.14727697064914        1.16926114616553
N            1.44326393101225       -0.16159633938508        0.14261366326840
C            2.51324113874483        0.12585193279716        0.92084212680707
O            2.49568994371312        0.26657002919761        2.12919640027281
C            3.74377551065017        0.23648608390261        0.09853897552842
N            3.81518302871249        0.13342229847558       -1.19495406118818
N            5.12408699808169        0.30138216338248       -1.53020179672112
C            5.76869198495248        0.49796355800492       -0.41917589686564
C            7.21883319849355        0.73323699061605       -0.24498201031850
O            4.95114874759621        0.46986485838851        0.64326965360204
N           -2.15551525175594       -0.80046236793597       -0.03038625891859
H           -6.76052011784327        0.63707920901241        1.37052906505989
H           -7.37283661859026        0.82621391202839       -0.30235390377882
H           -6.95231029830286       -0.79701821728503        0.32851517710768
H            0.01645313977778        0.16470311018753       -2.28428395729414
H           -1.01593961818560       -2.23265020703021       -2.01550864540965
H            0.62026777779248       -2.06879563151667       -1.35263269509823
H           -0.66477442543591       -2.81983755084402       -0.38491216721773
H            0.49078511518570       -0.89665637521183        2.67371692491377
H           -1.05347628008739       -1.46917591400105        2.01962456071229
H            0.47182779324566       -2.20311929760842        1.48471288717283
H            0.32628013678262        1.44109696437936        1.98085109889302
H           -1.35757458917910        1.12297305109237        1.54775302016069
H           -0.26350140678823        1.88482354686372        0.37179758469510
H            1.58611514401553       -0.14283256295125       -0.85474048339135
H            7.39242915708209        1.75587949899102        0.09295514120457
H            7.61740419601379        0.05569712458290        0.50994888062809
H            7.73202549464246        0.57415461911737       -1.19079899252730

          :  Hamiltonian                  GFN1-xTB          :
         :: total energy             -82.982790875221 Eh    ::
         :: gradient norm              0.000986739841 Eh/a0 ::
         :: HOMO-LUMO gap              1.773336492864 eV    ::
         :: SCC energy               -83.763928585818 Eh    ::
         :: -> Gsolv                  -0.054490535212 Eh    ::
         :: repulsion energy           0.808731010553 Eh    ::

    * Orbital Energies and Occupations

         #    Occupation            Energy/Eh            Energy/eV
      -------------------------------------------------------------
         1        2.0000           -0.8654447             -23.5499
       ...           ...                  ...                  ...
        55        2.0000           -0.5078188             -13.8185
        56        2.0000           -0.5076109             -13.8128
        57        2.0000           -0.5056357             -13.7590
        58        2.0000           -0.5035904             -13.7034
        59        2.0000           -0.4983362             -13.5604
        60        2.0000           -0.4848318             -13.1929
        61        2.0000           -0.4820838             -13.1182
        62        2.0000           -0.4726514             -12.8615
        63        2.0000           -0.4651313             -12.6569
        64        2.0000           -0.4620382             -12.5727
        65        2.0000           -0.4542479             -12.3607
        66        2.0000           -0.4504488             -12.2573
        67        2.0000           -0.4388578             -11.9419 (HOMO)
        68                         -0.3736889             -10.1686 (LUMO)
        69                         -0.3193336              -8.6895
        70                         -0.3139942              -8.5442
        71                         -0.2583408              -7.0298
        72                         -0.2530674              -6.8863
        73                         -0.2081365              -5.6637
        74                         -0.2018760              -5.4933
        75                         -0.1451207              -3.9489
        76                         -0.1431911              -3.8964
        77                         -0.1425423              -3.8788
        78                         -0.1337350              -3.6391
       ...                                ...                  ...
       134                          0.7639729              20.7888
      -------------------------------------------------------------
                  HL-Gap            0.0651689 Eh            1.7733 eV

Wiberg/Mayer (AO) data.
largest (>0.10) Wiberg bond orders for each atom

     #   Z sym  total        # sym  WBO       # sym  WBO       # sym  WBO
 ---------------------------------------------------------------------------
     1   6 C    3.859 --    27 H    0.985    28 H    0.979    26 H    0.978
                             2 O    0.884
     2   8 O    2.225 --     3 C    1.148     1 C    0.884     4 O    0.147
     3   6 C    3.854 --     4 O    1.685     2 O    1.148     5 C    0.944
     4   8 O    1.949 --     3 C    1.685     2 O    0.147
     5   6 C    3.952 --    25 N    1.787     6 C    0.991     3 C    0.944
     6   6 C    3.856 --     7 O    1.804     5 C    0.991     8 C    0.906
     7   8 O    2.009 --     6 C    1.804
     8   6 C    3.904 --     9 O    1.633    10 N    1.247     6 C    0.906
     9   8 O    1.926 --     8 C    1.633    10 N    0.184
    10   7 N    3.358 --     8 C    1.247    11 C    0.937    29 H    0.884
                             9 O    0.184
    11   6 C    3.914 --    25 N    1.009    12 C    0.970    10 N    0.937
                            13 C    0.900
    12   6 C    3.980 --    30 H    0.982    31 H    0.981    32 H    0.980
                            11 C    0.970
    13   6 C    3.928 --    14 C    0.996    15 C    0.995    16 N    0.929
                            11 C    0.900
    14   6 C    3.988 --    13 C    0.996    35 H    0.983    34 H    0.983
                            33 H    0.976
    15   6 C    3.990 --    13 C    0.995    37 H    0.983    38 H    0.982
                            36 H    0.975
    16   7 N    3.332 --    17 C    1.236    13 C    0.929    39 H    0.894
                            18 O    0.174
    17   6 C    3.914 --    18 O    1.602    16 N    1.236    19 C    0.991
    18   8 O    1.919 --    17 C    1.602    16 N    0.174
    19   6 C    3.876 --    20 N    1.608    24 O    1.065    17 C    0.991
    20   7 N    3.019 --    19 C    1.608    21 N    1.202
    21   7 N    2.981 --    22 C    1.602    20 N    1.202
    22   6 C    3.870 --    21 N    1.602    24 O    1.084    23 C    1.032
    23   6 C    3.986 --    22 C    1.032    42 H    0.982    41 H    0.967
                            40 H    0.960
    24   8 O    2.332 --    22 C    1.084    19 C    1.065
    25   7 N    3.054 --     5 C    1.787    11 C    1.009
    26   1 H    1.004 --     1 C    0.978
    27   1 H    1.009 --     1 C    0.985
    28   1 H    1.005 --     1 C    0.979
    29   1 H    0.924 --    10 N    0.884
    30   1 H    0.998 --    12 C    0.982
    31   1 H    0.997 --    12 C    0.981
    32   1 H    1.003 --    12 C    0.980
    33   1 H    1.010 --    14 C    0.976
    34   1 H    1.008 --    14 C    0.983
    35   1 H    1.002 --    14 C    0.983
    36   1 H    1.005 --    15 C    0.975
    37   1 H    1.001 --    15 C    0.983
    38   1 H    1.003 --    15 C    0.982
    39   1 H    0.954 --    16 N    0.894
    40   1 H    0.996 --    23 C    0.960
    41   1 H    0.996 --    23 C    0.967
    42   1 H    0.998 --    23 C    0.982
 ---------------------------------------------------------------------------

           -------------------------------------------------
          | TOTAL ENERGY              -82.982790875221 Eh   |
          | GRADIENT NORM               0.000986739841 Eh/α |
          | HOMO-LUMO GAP               1.773336492864 eV   |
           -------------------------------------------------

 * finished run on 2023/06/21 at 17:41:54.684
