   * xtb version 6.5.1 (579679a) compiled by 'ehlert@majestix' on 2022-07-11
          program call               : /lustre/hpc/kemi/ree/PhD/git/ReactivityQM/dep/xtb-6.5.1/bin/xtb --gfn 1 /lustre/hpc/kemi/ree/PhD/git/ReactivityQM/calculations/R01/reac01prodE06/conf13/R01_reac01prodE06_conf13_gfn1.xyz --opt --vfukui --chrg -1 --uhf 0 --alpb DMSO

   ID    Z sym.   atoms
    1    6 C      1, 3, 5, 8-10
    2    8 O      2, 4, 11
    3    7 N      6, 7
    4    1 H      12-20

      * Solvation model:               ALPB
        Solvent                        DMSO
        Solvent mass                       7.8130E+01 g/mol
          :  Hamiltonian                  GFN1-xTB          :
 * total energy  :   -38.3476220 Eh     change       -0.3069545E-11 Eh
 * total energy  :   -38.3539045 Eh     change       -0.6282491E-02 Eh
 * total energy  :   -38.3553862 Eh     change       -0.1481739E-02 Eh
 * total energy  :   -38.3556051 Eh     change       -0.2188527E-03 Eh
 * total energy  :   -38.3558393 Eh     change       -0.2342385E-03 Eh
 * total energy  :   -38.3558822 Eh     change       -0.4285502E-04 Eh
 * total energy  :   -38.3559073 Eh     change       -0.2510011E-04 Eh
 * total energy  :   -38.3559192 Eh     change       -0.1192457E-04 Eh
 * total energy  :   -38.3559244 Eh     change       -0.5207217E-05 Eh
 * total energy  :   -38.3559256 Eh     change       -0.1193614E-05 Eh
   *** GEOMETRY OPTIMIZATION CONVERGED AFTER 10 ITERATIONS ***

 final structure:
================
20
 xtb: 6.5.1 (579679a)
C            3.74584664944162        0.68462401484598        0.62167853330655
O            2.34807409297720        0.56256293931262        0.43029148968896
C            1.94921233828597       -0.54337860948738       -0.30718505315552
O            2.79225725349717       -1.34060575175984       -0.74946832110271
C            0.55811927444372       -0.63507039280077       -0.47685665685249
N           -0.08180355268401       -1.59403618959125       -1.14358837975802
N           -1.35967800223342       -1.40258764730972       -1.12599661615973
C           -1.62036460233993       -0.17121592578184       -0.36098816593521
C           -2.49181638451836       -0.49725697264958        0.86251450947364
C           -2.30955115756464        0.86311925794656       -1.26566585284822
O           -0.34808406833818        0.30434707154521        0.05145947873155
H            3.91062091548887        1.57535161209804        1.22844750016593
H            4.26757663035361        0.79423493314548       -0.33624152153146
H            4.15090786443948       -0.19122188707440        1.14203681595580
H           -2.67398332525159        0.40348323143671        1.44574895484650
H           -1.97903602456161       -1.22725382130728        1.48690867625834
H           -3.44249188414810       -0.91350501514295        0.53575905082236
H           -2.49690215315069        1.78160308522675       -0.71244015674797
H           -1.66567248131963        1.08499304644972       -2.11538102081738
H           -3.25322838281716        0.46181402089853       -1.62915726434049

          :  Hamiltonian                  GFN1-xTB          :
         :: total energy             -38.355925617326 Eh    ::
         :: gradient norm              0.000263416109 Eh/a0 ::
         :: HOMO-LUMO gap              2.130491612264 eV    ::
         :: SCC energy               -38.663727651096 Eh    ::
         :: -> Gsolv                  -0.097398011501 Eh    ::
         :: repulsion energy           0.316263531386 Eh    ::

    * Orbital Energies and Occupations

         #    Occupation            Energy/Eh            Energy/eV
      -------------------------------------------------------------
         1        2.0000           -0.7790123             -21.1980
       ...           ...                  ...                  ...
        19        2.0000           -0.5077819             -13.8174
        20        2.0000           -0.4953667             -13.4796
        21        2.0000           -0.4864833             -13.2379
        22        2.0000           -0.4842055             -13.1759
        23        2.0000           -0.4746255             -12.9152
        24        2.0000           -0.4715462             -12.8314
        25        2.0000           -0.4500157             -12.2456
        26        2.0000           -0.4491558             -12.2222
        27        2.0000           -0.4389671             -11.9449
        28        2.0000           -0.4219684             -11.4823
        29        2.0000           -0.4141145             -11.2686
        30        2.0000           -0.3745362             -10.1916
        31        2.0000           -0.3214448              -8.7470 (HOMO)
        32                         -0.2431507              -6.6165 (LUMO)
        33                         -0.1279626              -3.4820
        34                         -0.1147286              -3.1219
        35                         -0.1057424              -2.8774
        36                         -0.0998241              -2.7164
        37                         -0.0589968              -1.6054
        38                         -0.0527783              -1.4362
        39                         -0.0514964              -1.4013
        40                         -0.0474864              -1.2922
        41                         -0.0294210              -0.8006
        42                         -0.0273584              -0.7445
       ...                                ...                  ...
        62                          0.7099814              19.3196
      -------------------------------------------------------------
                  HL-Gap            0.0782941 Eh            2.1305 eV

Wiberg/Mayer (AO) data.
largest (>0.10) Wiberg bond orders for each atom

     #   Z sym  total        # sym  WBO       # sym  WBO       # sym  WBO
 ---------------------------------------------------------------------------
     1   6 C    3.909 --    12 H    0.987    13 H    0.981    14 H    0.981
                             2 O    0.939
     2   8 O    2.103 --     3 C    0.975     1 C    0.939
     3   6 C    3.883 --     4 O    1.474     5 C    1.251     2 O    0.975
                             7 N    0.105
     4   8 O    1.789 --     3 C    1.474
     5   6 C    3.847 --     6 N    1.367     3 C    1.251    11 O    0.931
                             7 N    0.150
     6   7 N    3.024 --     7 N    1.503     5 C    1.367
     7   7 N    2.899 --     6 N    1.503     8 C    0.978     5 C    0.150
                             3 C    0.105
     8   6 C    3.901 --     9 C    0.978     7 N    0.978    10 C    0.978
                            11 O    0.928
     9   6 C    3.993 --    17 H    0.988    15 H    0.986    16 H    0.985
                             8 C    0.978
    10   6 C    3.993 --    20 H    0.988    18 H    0.987    19 H    0.985
                             8 C    0.978
    11   8 O    2.049 --     5 C    0.931     8 C    0.928
    12   1 H    1.018 --     1 C    0.987
    13   1 H    1.016 --     1 C    0.981
    14   1 H    1.016 --     1 C    0.981
    15   1 H    1.008 --     9 C    0.986
    16   1 H    1.014 --     9 C    0.985
    17   1 H    1.010 --     9 C    0.988
    18   1 H    1.008 --    10 C    0.987
    19   1 H    1.014 --    10 C    0.985
    20   1 H    1.010 --    10 C    0.988
 ---------------------------------------------------------------------------

           -------------------------------------------------
          | TOTAL ENERGY              -38.355925617326 Eh   |
          | GRADIENT NORM               0.000263416109 Eh/α |
          | HOMO-LUMO GAP               2.130491612264 eV   |
           -------------------------------------------------

 * finished run on 2023/06/20 at 14:54:20.227
