   * xtb version 6.5.1 (579679a) compiled by 'ehlert@majestix' on 2022-07-11
          program call               : /lustre/hpc/kemi/ree/PhD/git/ReactivityQM/dep/xtb-6.5.1/bin/xtb --gfn 1 /lustre/hpc/kemi/ree/PhD/git/ReactivityQM/calculations/R02/reac01prodE02/conf15/R02_reac01prodE02_conf15_gfn1.xyz --opt --vfukui --chrg -1 --uhf 0 --alpb DMSO

   ID    Z sym.   atoms
    1    6 C      1, 3, 4, 6, 8-11, 13, 15, 18, 19, 22, 24
    2    8 O      2, 5, 14, 20, 23, 25
    3    7 N      7, 12, 16, 17, 21
    4    1 H      26-43

      * Solvation model:               ALPB
        Solvent                        DMSO
        Solvent mass                       7.8130E+01 g/mol
          :  Hamiltonian                  GFN1-xTB          :
 * total energy  :   -83.8465769 Eh     change       -0.1318909E-09 Eh
 * total energy  :   -83.8578868 Eh     change       -0.1130983E-01 Eh
 * total energy  :   -83.8622521 Eh     change       -0.4365351E-02 Eh
 * total energy  :   -83.8634579 Eh     change       -0.1205736E-02 Eh
 * total energy  :   -83.8643022 Eh     change       -0.8443632E-03 Eh
 * total energy  :   -83.8649357 Eh     change       -0.6334697E-03 Eh
 * total energy  :   -83.8654749 Eh     change       -0.5392440E-03 Eh
 * total energy  :   -83.8658482 Eh     change       -0.3732230E-03 Eh
 * total energy  :   -83.8660653 Eh     change       -0.2171649E-03 Eh
 * total energy  :   -83.8661974 Eh     change       -0.1321102E-03 Eh
 * total energy  :   -83.8683937 Eh     change       -0.2251245E-04 Eh
 * total energy  :   -83.8684156 Eh     change       -0.2188633E-04 Eh
 * total energy  :   -83.8684311 Eh     change       -0.1544331E-04 Eh
 * total energy  :   -83.8684445 Eh     change       -0.1344097E-04 Eh
 * total energy  :   -83.8684528 Eh     change       -0.8286593E-05 Eh
 * total energy  :   -83.8684597 Eh     change       -0.6883884E-05 Eh
 * total energy  :   -83.8684653 Eh     change       -0.5639963E-05 Eh
 * total energy  :   -83.8684697 Eh     change       -0.4417364E-05 Eh
 * total energy  :   -83.8684740 Eh     change       -0.4298717E-05 Eh
   *** GEOMETRY OPTIMIZATION CONVERGED AFTER 90 ITERATIONS ***

 final structure:
================
43
 xtb: 6.5.1 (579679a)
C           -3.69755536176110       -2.04791307408585        1.08947792969573
O           -4.08831975475558       -0.72037304638562        0.84838959410536
C           -3.99009666135356       -0.29800328442411       -0.60115388339678
C           -5.03811047299712        0.86857789488779       -0.64974725086172
O           -4.16921504560086       -1.25234527330193       -1.44744459444170
C           -2.54645921220952        0.37009094483828       -0.72691495736228
N           -1.64499130785782        0.12926616934193        0.28139152555246
C           -0.44148823219719        0.58055009110745        0.21080664193252
C            0.52499348416331        0.37133739140487        1.36087737443970
C            0.66970839145037        1.70366807105301        2.11293768245378
C            0.01372871889817       -0.73183635858872        2.29110001369796
N            1.82318162572410       -0.01802920589472        0.78941387204698
C            2.93137211090924       -0.20585903896263        1.53106238384816
O            3.00604434709976       -0.08839338290497        2.74402653483319
C            4.11451131873084       -0.57739804577171        0.71089911820228
N            5.31016664974124       -0.85698455407358        1.12890869146828
N            6.06197308864729       -1.12325673647579        0.02315278136296
C            5.27921841279712       -0.98871571955259       -1.00179499830445
C            5.61588885829380       -1.16901726374796       -2.43052975584574
O            4.03306022203309       -0.64542609601004       -0.63600835217343
N            0.00270825983515        1.31970876071224       -0.84985049081556
C           -0.80578159871963        1.61906165078485       -1.92809913333918
O           -0.39301286415333        2.29025722038322       -2.87580657556380
C           -2.14417690560188        1.08844481577419       -1.81917964912485
O           -2.96479970870062        1.38156426957951       -2.86848302771851
H           -4.16882577286468       -2.75195879593047        0.38397368221270
H           -2.60440726000586       -2.17487160544276        1.02037115052291
H           -4.01102411397954       -2.31295637635368        2.10502298330782
H           -4.78800014350330        1.64674808019941        0.06962388831029
H           -6.01656908437729        0.45427291533634       -0.40999605073495
H           -5.06703057165758        1.28833934586061       -1.65222441388447
H            1.31949299094241        1.58456593026924        2.97743923217419
H           -0.31099574967755        2.03549049978038        2.45112439026602
H            1.09196528392741        2.45952772124871        1.45364174284148
H           -0.05543660473627       -1.67435470580546        1.74958825237018
H            0.68756636377078       -0.85307374030944        3.13667907642018
H           -0.97584156097205       -0.46201406761237        2.65787112305864
H            1.87603710184627       -0.20155196090663       -0.19926585090449
H            6.65491788366603       -1.47387220179548       -2.52568897886228
H            4.96922915252262       -1.92675876377991       -2.87236508904833
H            5.45854260807788       -0.23550846539246       -2.97066464001788
H            0.94129953007071        1.68029691416754       -0.87218815932686
H           -2.46346741542963        1.91870207676972       -3.50211581342043

          :  Hamiltonian                  GFN1-xTB          :
         :: total energy             -83.868474029547 Eh    ::
         :: gradient norm              0.000890009286 Eh/a0 ::
         :: HOMO-LUMO gap              0.920533516459 eV    ::
         :: SCC energy               -84.631674106664 Eh    ::
         :: -> Gsolv                  -0.134491452076 Eh    ::
         :: repulsion energy           0.789866707122 Eh    ::

    * Orbital Energies and Occupations

         #    Occupation            Energy/Eh            Energy/eV
      -------------------------------------------------------------
         1        2.0000           -0.8622236             -23.4623
       ...           ...                  ...                  ...
        56        2.0000           -0.4605979             -12.5335
        57        2.0000           -0.4588475             -12.4859
        58        2.0000           -0.4560934             -12.4109
        59        2.0000           -0.4522163             -12.3054
        60        2.0000           -0.4482586             -12.1977
        61        2.0000           -0.4431019             -12.0574
        62        2.0000           -0.4365189             -11.8783
        63        2.0000           -0.4327336             -11.7753
        64        2.0000           -0.4199573             -11.4276
        65        2.0000           -0.4017467             -10.9321
        66        2.0000           -0.3926936             -10.6857
        67        2.0000           -0.3599103              -9.7937
        68        2.0000           -0.3400954              -9.2545 (HOMO)
        69                         -0.3062664              -8.3339 (LUMO)
        70                         -0.2726330              -7.4187
        71                         -0.2538163              -6.9067
        72                         -0.2476750              -6.7396
        73                         -0.1944424              -5.2910
        74                         -0.1400728              -3.8116
        75                         -0.1391421              -3.7862
        76                         -0.1215542              -3.3077
        77                         -0.1174947              -3.1972
        78                         -0.1102340              -2.9996
        79                         -0.0926415              -2.5209
       ...                                ...                  ...
       136                          0.7308627              19.8878
      -------------------------------------------------------------
                  HL-Gap            0.0338290 Eh            0.9205 eV

Wiberg/Mayer (AO) data.
largest (>0.10) Wiberg bond orders for each atom

     #   Z sym  total        # sym  WBO       # sym  WBO       # sym  WBO
 ---------------------------------------------------------------------------
     1   6 C    3.936 --    28 H    0.985    27 H    0.977     2 O    0.976
                            26 H    0.975
     2   8 O    1.943 --     1 C    0.976     3 C    0.790
     3   6 C    3.896 --     5 O    1.252     4 C    0.930     6 C    0.872
                             2 O    0.790
     4   6 C    3.991 --    29 H    0.991    30 H    0.987    31 H    0.986
                             3 C    0.930
     5   8 O    1.542 --     3 C    1.252
     6   6 C    3.912 --    24 C    1.526     7 N    1.189     3 C    0.872
     7   7 N    3.040 --     8 C    1.594     6 C    1.189
     8   6 C    3.938 --     7 N    1.594    21 N    1.161     9 C    0.978
     9   6 C    3.931 --    11 C    0.993    10 C    0.979     8 C    0.978
                            12 N    0.916
    10   6 C    3.989 --    33 H    0.985    34 H    0.985    32 H    0.979
                             9 C    0.979
    11   6 C    3.990 --     9 C    0.993    35 H    0.985    37 H    0.983
                            36 H    0.983
    12   7 N    3.353 --    13 C    1.266     9 C    0.916    38 H    0.894
                            14 O    0.178
    13   6 C    3.918 --    14 O    1.580    12 N    1.266    15 C    0.989
    14   8 O    1.898 --    13 C    1.580    12 N    0.178
    15   6 C    3.871 --    16 N    1.624    20 O    1.047    13 C    0.989
    16   7 N    2.998 --    15 C    1.624    17 N    1.196
    17   7 N    2.981 --    18 C    1.612    16 N    1.196
    18   6 C    3.869 --    17 N    1.612    20 O    1.072    19 C    1.031
    19   6 C    3.987 --    18 C    1.031    39 H    0.983    40 H    0.964
                            41 H    0.962
    20   8 O    2.316 --    18 C    1.072    15 C    1.047
    21   7 N    3.448 --     8 C    1.161    22 C    1.112    42 H    0.892
                            23 O    0.121
    22   6 C    3.906 --    23 O    1.524    24 C    1.122    21 N    1.112
    23   8 O    1.850 --    22 C    1.524    21 N    0.121
    24   6 C    3.911 --     6 C    1.526    22 C    1.122    25 O    1.040
    25   8 O    2.030 --    24 C    1.040    43 H    0.830
    26   1 H    1.035 --     1 C    0.975
    27   1 H    1.031 --     1 C    0.977
    28   1 H    1.023 --     1 C    0.985
    29   1 H    1.013 --     4 C    0.991
    30   1 H    1.019 --     4 C    0.987
    31   1 H    1.023 --     4 C    0.986
    32   1 H    1.010 --    10 C    0.979
    33   1 H    1.003 --    10 C    0.985
    34   1 H    1.003 --    10 C    0.985
    35   1 H    1.008 --    11 C    0.985
    36   1 H    1.010 --    11 C    0.983
    37   1 H    1.013 --    11 C    0.983
    38   1 H    0.940 --    12 N    0.894
    39   1 H    0.999 --    19 C    0.983
    40   1 H    0.997 --    19 C    0.964
    41   1 H    0.997 --    19 C    0.962
    42   1 H    0.936 --    21 N    0.892
    43   1 H    0.869 --    25 O    0.830
 ---------------------------------------------------------------------------

           -------------------------------------------------
          | TOTAL ENERGY              -83.868474029547 Eh   |
          | GRADIENT NORM               0.000890009286 Eh/α |
          | HOMO-LUMO GAP               0.920533516459 eV   |
           -------------------------------------------------

 * finished run on 2023/06/20 at 14:54:39.361
