   * xtb version 6.5.1 (579679a) compiled by 'ehlert@majestix' on 2022-07-11
          program call               : /lustre/hpc/kemi/ree/PhD/git/ReactivityQM/dep/xtb-6.5.1/bin/xtb --gfn 1 /lustre/hpc/kemi/ree/PhD/git/ReactivityQM/calculations/R02deprot/reac01prodN02/conf11/R02deprot_reac01prodN02_conf11_gfn1.xyz --opt --vfukui --chrg 0 --uhf 0 --alpb DMSO

   ID    Z sym.   atoms
    1    6 C      1, 3, 5, 7-10, 12, 14, 15, 18, 19, 22, 24
    2    8 O      2, 4, 13, 20, 23, 25
    3    7 N      6, 11, 16, 17, 21
    4    1 H      26-42

      * Solvation model:               ALPB
        Solvent                        DMSO
        Solvent mass                       7.8130E+01 g/mol
          :  Hamiltonian                  GFN1-xTB          :
 * total energy  :   -82.9384078 Eh     change       -0.4028777E-10 Eh
 * total energy  :   -82.9585718 Eh     change       -0.2016409E-01 Eh
 * total energy  :   -82.9670969 Eh     change       -0.8525037E-02 Eh
 * total energy  :   -82.9688724 Eh     change       -0.1775497E-02 Eh
 * total energy  :   -82.9698415 Eh     change       -0.9691190E-03 Eh
 * total energy  :   -82.9701099 Eh     change       -0.2683607E-03 Eh
 * total energy  :   -82.9702964 Eh     change       -0.1865323E-03 Eh
 * total energy  :   -82.9704127 Eh     change       -0.1163548E-03 Eh
 * total energy  :   -82.9705109 Eh     change       -0.9814716E-04 Eh
 * total energy  :   -82.9706036 Eh     change       -0.9270501E-04 Eh
 * total energy  :   -82.9709010 Eh     change       -0.3295602E-04 Eh
 * total energy  :   -82.9709413 Eh     change       -0.4027155E-04 Eh
 * total energy  :   -82.9709954 Eh     change       -0.5414342E-04 Eh
 * total energy  :   -82.9710534 Eh     change       -0.5796094E-04 Eh
 * total energy  :   -82.9710938 Eh     change       -0.4046043E-04 Eh
 * total energy  :   -82.9711174 Eh     change       -0.2354598E-04 Eh
 * total energy  :   -82.9711228 Eh     change       -0.5404502E-05 Eh
 * total energy  :   -82.9711300 Eh     change       -0.7231917E-05 Eh
 * total energy  :   -82.9711341 Eh     change       -0.4132364E-05 Eh
   *** GEOMETRY OPTIMIZATION CONVERGED AFTER 24 ITERATIONS ***

 final structure:
================
42
 xtb: 6.5.1 (579679a)
C           -4.65992111034545        3.43428510192293        0.39787607991977
O           -4.45762614877785        2.01993075552122        0.48131856119819
C           -3.18517519032538        1.59959399791666        0.33178955673601
O           -2.27209766701233        2.37803652404816        0.14818766189547
C           -3.02347504335003        0.13319316684449        0.40585763335421
N           -1.72060639381861       -0.26681213513339        0.23470457498533
C           -1.47927805444727       -1.55730646646070        0.26790892711892
C           -0.02744993219054       -1.97339511249315        0.04944459534855
C            0.09635166290475       -2.72677215097821       -1.27882319207360
C            0.46229609358291       -2.82460414540179        1.22303699101952
N            0.71931876823271       -0.71218285554804       -0.02178723154051
C            1.99405995675857       -0.52909729108327       -0.16911010983930
O            2.77752509531931       -1.56806525043089       -0.27240336309280
C            4.19996270270107       -1.47198784227269       -0.42644108832781
C            2.43880139748189        0.84964423106880       -0.20537305989879
N            1.64686548033794        1.87952583212409       -0.10247585082832
N            2.42179616651591        2.97960383100170       -0.18480758725822
C            3.64919804989592        2.57023538244962       -0.33437449296474
C            4.86833901711395        3.38957595809780       -0.47210236877478
O            3.72219680465683        1.23100986380283       -0.35491229808991
N           -2.33847221820803       -2.54186904027469        0.45462707217625
C           -3.65909459973315       -2.24271720273887        0.64849801928511
O           -4.51095451844562       -3.11789636415017        0.83826857564806
C           -4.00573781769480       -0.80494826752425        0.61185626483887
O           -5.31621071069005       -0.52970755087466        0.78858144234031
H           -5.72377884605527        3.61067306230163        0.53944890156966
H           -4.08530206798978        3.94239434471586        1.17613534635538
H           -4.34307938512510        3.79996082905440       -0.58198250840252
H            1.11336082379746       -3.08017808056353       -1.43127823196551
H           -0.58136052378670       -3.57975162511938       -1.25269219685892
H           -0.18240571870850       -2.07474509867195       -2.10520704315430
H           -0.23593354834147       -3.65148050941958        1.35509799258597
H            0.48614711841885       -2.23009398229148        2.13470261420801
H            1.45584582423160       -3.22207701857212        1.03107623184849
H            0.08152597931702        0.10519408890720        0.04837149529127
H            4.55671417143886       -2.49941316975490       -0.46946979297929
H            4.44393298893521       -0.94629264821358       -1.34995304092247
H            4.63777061226608       -0.95403678214385        0.42716223425133
H            5.57632558722132        3.13337471051337        0.31576413861850
H            5.34605549054987        3.18295119937703       -1.42982202980020
H            4.61284036100806        4.44462026851992       -0.40931896936286
H           -5.49927065764133        0.42162744192612        0.74786454553929

          :  Hamiltonian                  GFN1-xTB          :
         :: total energy             -82.971134143509 Eh    ::
         :: gradient norm              0.000881784793 Eh/a0 ::
         :: HOMO-LUMO gap              0.657829845167 eV    ::
         :: SCC energy               -83.741438914447 Eh    ::
         :: -> Gsolv                  -0.083131767156 Eh    ::
         :: repulsion energy           0.795914662768 Eh    ::

    * Orbital Energies and Occupations

         #    Occupation            Energy/Eh            Energy/eV
      -------------------------------------------------------------
         1        2.0000           -0.8929419             -24.2982
       ...           ...                  ...                  ...
        55        2.0000           -0.5021298             -13.6636
        56        2.0000           -0.5004796             -13.6187
        57        2.0000           -0.4892123             -13.3121
        58        2.0000           -0.4881090             -13.2821
        59        2.0000           -0.4877465             -13.2723
        60        2.0000           -0.4789670             -13.0334
        61        2.0000           -0.4732052             -12.8766
        62        2.0000           -0.4635549             -12.6140
        63        2.0000           -0.4498270             -12.2404
        64        2.0000           -0.4339009             -11.8070
        65        2.0000           -0.4187254             -11.3941
        66        2.0000           -0.3873897             -10.5414
        67        2.0000           -0.3838308             -10.4446 (HOMO)
        68        0.0000           -0.3596560              -9.7867 (LUMO)
        69                         -0.2898601              -7.8875
        70                         -0.2798691              -7.6156
        71                         -0.2436254              -6.6294
        72                         -0.2415395              -6.5726
        73                         -0.2024117              -5.5079
        74                         -0.1532349              -4.1697
        75                         -0.1513928              -4.1196
        76                         -0.1322183              -3.5978
        77                         -0.1271480              -3.4599
        78                         -0.1255727              -3.4170
       ...                                ...                  ...
       134                          0.7333767              19.9562
      -------------------------------------------------------------
                  HL-Gap            0.0241748 Eh            0.6578 eV

Wiberg/Mayer (AO) data.
largest (>0.10) Wiberg bond orders for each atom

     #   Z sym  total        # sym  WBO       # sym  WBO       # sym  WBO
 ---------------------------------------------------------------------------
     1   6 C    3.874 --    26 H    0.986    28 H    0.980    27 H    0.980
                             2 O    0.896
     2   8 O    2.190 --     3 C    1.068     1 C    0.896     4 O    0.121
     3   6 C    3.837 --     4 O    1.643     2 O    1.068     5 C    1.033
     4   8 O    1.907 --     3 C    1.643     2 O    0.121
     5   6 C    3.957 --    24 C    1.484     6 N    1.179     3 C    1.033
     6   7 N    3.055 --     7 C    1.450     5 C    1.179
     7   6 C    3.961 --     6 N    1.450    21 N    1.397     8 C    0.963
     8   6 C    3.893 --    10 C    0.983     9 C    0.978     7 C    0.963
                            11 N    0.892
     9   6 C    3.988 --    31 H    0.985    29 H    0.984    30 H    0.981
                             8 C    0.978
    10   6 C    3.988 --    33 H    0.985    34 H    0.984     8 C    0.983
                            32 H    0.980
    11   7 N    3.509 --    12 C    1.505     8 C    0.892    35 H    0.819
                            13 O    0.114
    12   6 C    3.901 --    11 N    1.505    13 O    1.178    15 C    1.072
    13   8 O    2.265 --    12 C    1.178    14 C    0.866    11 N    0.114
    14   6 C    3.835 --    36 H    0.981    38 H    0.976    37 H    0.976
                            13 O    0.866
    15   6 C    3.889 --    16 N    1.563    12 C    1.072    20 O    1.053
    16   7 N    3.027 --    15 C    1.563    17 N    1.241
    17   7 N    2.989 --    18 C    1.567    16 N    1.241
    18   6 C    3.855 --    17 N    1.567    20 O    1.080    19 C    1.038
    19   6 C    3.980 --    18 C    1.038    41 H    0.980    39 H    0.958
                            40 H    0.956
    20   8 O    2.334 --    18 C    1.080    15 C    1.053
    21   7 N    2.983 --     7 C    1.397    22 C    1.209    23 O    0.121
    22   6 C    3.926 --    23 O    1.528    21 N    1.209    24 C    1.056
    23   8 O    1.814 --    22 C    1.528    21 N    0.121
    24   6 C    3.903 --     5 C    1.484    25 O    1.075    22 C    1.056
    25   8 O    2.060 --    24 C    1.075    42 H    0.820
    26   1 H    1.011 --     1 C    0.986
    27   1 H    1.009 --     1 C    0.980
    28   1 H    1.009 --     1 C    0.980
    29   1 H    1.005 --     9 C    0.984
    30   1 H    1.008 --     9 C    0.981
    31   1 H    1.002 --     9 C    0.985
    32   1 H    1.013 --    10 C    0.980
    33   1 H    1.001 --    10 C    0.985
    34   1 H    1.006 --    10 C    0.984
    35   1 H    0.965 --    11 N    0.819
    36   1 H    1.004 --    14 C    0.981
    37   1 H    1.004 --    14 C    0.976
    38   1 H    1.004 --    14 C    0.976
    39   1 H    0.993 --    19 C    0.958
    40   1 H    0.993 --    19 C    0.956
    41   1 H    0.995 --    19 C    0.980
    42   1 H    0.870 --    25 O    0.820
 ---------------------------------------------------------------------------

           -------------------------------------------------
          | TOTAL ENERGY              -82.971134143509 Eh   |
          | GRADIENT NORM               0.000881784793 Eh/α |
          | HOMO-LUMO GAP               0.657829845167 eV   |
           -------------------------------------------------

 * finished run on 2023/06/20 at 18:07:07.576
