                         Program Version 5.0.1 -  RELEASE  -
|  1> # ORCA input file
|  2> ! SP r2SCAN-3c CPCM
|  3>
|  4> %maxcore 1875.0
|  5> %pal nprocs 4 end
|  6> %cpcm smd true SMDsolvent "DMSO" end
|  7>
|  8> *xyz 1 1
|  9> C      -3.378820    1.840365   -3.038062
| 10> O      -2.654380    1.511080   -1.842724
| 11> C      -2.887002    0.331497   -1.308620
| 12> O      -3.665791   -0.481427   -1.734607
| 13> C      -2.070110    0.076923   -0.059823
| 14> C      -1.073852    1.017808    0.565768
| 15> O      -0.808461    2.205246   -0.023158
| 16> C      -1.440362    1.177941    2.056970
| 17> O      -1.515665    2.269072    2.568797
| 18> N      -1.632680   -0.024493    2.598490
| 19> C      -1.428476   -1.187294    1.749449
| 20> C      -1.855910   -2.444770    2.487344
| 21> C       0.060961   -1.168770    1.288518
| 22> C       0.354010   -2.315576    0.327551
| 23> C       1.033602   -1.177140    2.462830
| 24> N       0.239768    0.181794    0.604689
| 25> C       0.755012    0.112311   -0.823415
| 26> O       0.042973   -0.264763   -1.695142
| 27> C       2.117878    0.564868   -0.851972
| 28> N       2.804502    0.981619    0.186619
| 29> N       4.022009    1.305069   -0.254217
| 30> C       4.035303    1.071841   -1.549004
| 31> C       5.158002    1.259560   -2.484533
| 32> O       2.862551    0.606406   -1.970620
| 33> N      -2.229191   -1.028562    0.547586
| 34> H      -4.452836    1.760710   -2.855077
| 35> H      -3.091779    1.158121   -3.841602
| 36> H      -3.105479    2.863148   -3.288987
| 37> H      -0.793779    2.912528    0.649629
| 38> H      -1.839655   -0.133722    3.576616
| 39> H      -1.247078   -2.595700    3.375146
| 40> H      -1.763857   -3.308706    1.832659
| 41> H      -2.898662   -2.340650    2.783306
| 42> H      -0.378575   -2.353421   -0.477045
| 43> H       1.352275   -2.209234   -0.092870
| 44> H       0.318085   -3.250782    0.883465
| 45> H       2.047592   -1.021122    2.096226
| 46> H       0.786009   -0.390991    3.173476
| 47> H       0.992555   -2.138745    2.970783
| 48> H       0.923978    0.737705    1.128198
| 49> H       5.512994    0.285982   -2.826801
| 50> H       5.969322    1.787116   -1.989062
| 51> H       4.823019    1.817157   -3.358888
| 52> **                         ****END OF INPUT****

CARTESIAN COORDINATES (ANGSTROEM)
---------------------------------
  C     -3.378820    1.840365   -3.038062
  O     -2.654380    1.511080   -1.842724
  C     -2.887002    0.331497   -1.308620
  O     -3.665791   -0.481427   -1.734607
  C     -2.070110    0.076923   -0.059823
  C     -1.073852    1.017808    0.565768
  O     -0.808461    2.205246   -0.023158
  C     -1.440362    1.177941    2.056970
  O     -1.515665    2.269072    2.568797
  N     -1.632680   -0.024493    2.598490
  C     -1.428476   -1.187294    1.749449
  C     -1.855910   -2.444770    2.487344
  C      0.060961   -1.168770    1.288518
  C      0.354010   -2.315576    0.327551
  C      1.033602   -1.177140    2.462830
  N      0.239768    0.181794    0.604689
  C      0.755012    0.112311   -0.823415
  O      0.042973   -0.264763   -1.695142
  C      2.117878    0.564868   -0.851972
  N      2.804502    0.981619    0.186619
  N      4.022009    1.305069   -0.254217
  C      4.035303    1.071841   -1.549004
  C      5.158002    1.259560   -2.484533
  O      2.862551    0.606406   -1.970620
  N     -2.229191   -1.028562    0.547586
  H     -4.452836    1.760710   -2.855077
  H     -3.091779    1.158121   -3.841602
  H     -3.105479    2.863148   -3.288987
  H     -0.793779    2.912528    0.649629
  H     -1.839655   -0.133722    3.576616
  H     -1.247078   -2.595700    3.375146
  H     -1.763857   -3.308706    1.832659
  H     -2.898662   -2.340650    2.783306
  H     -0.378575   -2.353421   -0.477045
  H      1.352275   -2.209234   -0.092870
  H      0.318085   -3.250782    0.883465
  H      2.047592   -1.021122    2.096226
  H      0.786009   -0.390991    3.173476
  H      0.992555   -2.138745    2.970783
  H      0.923978    0.737705    1.128198
  H      5.512994    0.285982   -2.826801
  H      5.969322    1.787116   -1.989062
  H      4.823019    1.817157   -3.358888

 Total Charge           Charge          ....    1
 Multiplicity           Mult            ....    1
 Number of Electrons    NEL             ....  184
 Basis Dimension        Dim             ....  620

ORBITAL ENERGIES
----------------

  NO   OCC          E(Eh)            E(eV)
   0   2.0000     -19.097474      -519.6687
   1   2.0000     -19.023470      -517.6549
   2   2.0000     -19.020446      -517.5727
   3   2.0000     -19.012946      -517.3686
   4   2.0000     -18.966029      -516.0919
   5   2.0000     -18.956171      -515.8236
   6   2.0000     -14.311024      -389.4228
   7   2.0000     -14.250193      -387.7675
   8   2.0000     -14.228119      -387.1668
   9   2.0000     -14.221930      -386.9984
  10   2.0000     -14.201325      -386.4377
  11   2.0000     -10.227404      -278.3018
  12   2.0000     -10.199047      -277.5302
  13   2.0000     -10.183593      -277.1096
  14   2.0000     -10.181572      -277.0547
  15   2.0000     -10.181191      -277.0443
  16   2.0000     -10.172774      -276.8153
  17   2.0000     -10.149987      -276.1952
  18   2.0000     -10.137688      -275.8605
  19   2.0000     -10.134329      -275.7691
  20   2.0000     -10.085690      -274.4456
  21   2.0000     -10.057290      -273.6728
  22   2.0000     -10.042150      -273.2608
  23   2.0000     -10.040324      -273.2111
  24   2.0000     -10.037609      -273.1372
  25   2.0000      -1.191333       -32.4178
  26   2.0000      -1.115134       -30.3443
  27   2.0000      -1.098486       -29.8913
  28   2.0000      -1.086154       -29.5557
  29   2.0000      -1.044509       -28.4225
  30   2.0000      -1.019155       -27.7326
  31   2.0000      -1.012678       -27.5564
  32   2.0000      -1.004605       -27.3367
  33   2.0000      -0.965380       -26.2693
  34   2.0000      -0.910188       -24.7675
  35   2.0000      -0.865038       -23.5389
  36   2.0000      -0.821640       -22.3580
  37   2.0000      -0.766726       -20.8637
  38   2.0000      -0.742462       -20.2034
  39   2.0000      -0.724531       -19.7155
  40   2.0000      -0.719947       -19.5908
  41   2.0000      -0.704330       -19.1658
  42   2.0000      -0.689170       -18.7533
  43   2.0000      -0.669648       -18.2221
  44   2.0000      -0.642190       -17.4749
  45   2.0000      -0.632981       -17.2243
  46   2.0000      -0.619159       -16.8482
  47   2.0000      -0.607785       -16.5387
  48   2.0000      -0.588855       -16.0235
  49   2.0000      -0.562001       -15.2928
  50   2.0000      -0.559299       -15.2193
  51   2.0000      -0.552455       -15.0331
  52   2.0000      -0.529941       -14.4204
  53   2.0000      -0.525357       -14.2957
  54   2.0000      -0.520865       -14.1735
  55   2.0000      -0.503191       -13.6925
  56   2.0000      -0.495268       -13.4769
  57   2.0000      -0.491344       -13.3701
  58   2.0000      -0.476849       -12.9757
  59   2.0000      -0.464788       -12.6475
  60   2.0000      -0.461930       -12.5698
  61   2.0000      -0.453859       -12.3501
  62   2.0000      -0.441444       -12.0123
  63   2.0000      -0.431988       -11.7550
  64   2.0000      -0.426386       -11.6025
  65   2.0000      -0.416294       -11.3279
  66   2.0000      -0.408472       -11.1151
  67   2.0000      -0.403182       -10.9711
  68   2.0000      -0.401179       -10.9166
  69   2.0000      -0.394111       -10.7243
  70   2.0000      -0.389740       -10.6054
  71   2.0000      -0.387362       -10.5406
  72   2.0000      -0.385407       -10.4875
  73   2.0000      -0.381211       -10.3733
  74   2.0000      -0.378745       -10.3062
  75   2.0000      -0.376611       -10.2481
  76   2.0000      -0.370367       -10.0782
  77   2.0000      -0.359132        -9.7725
  78   2.0000      -0.354677        -9.6512
  79   2.0000      -0.350422        -9.5355
  80   2.0000      -0.348685        -9.4882
  81   2.0000      -0.338879        -9.2214
  82   2.0000      -0.328979        -8.9520
  83   2.0000      -0.324338        -8.8257
  84   2.0000      -0.316303        -8.6070
  85   2.0000      -0.295585        -8.0433
  86   2.0000      -0.291957        -7.9445
  87   2.0000      -0.291093        -7.9210
  88   2.0000      -0.289193        -7.8693
  89   2.0000      -0.277649        -7.5552
  90   2.0000      -0.263462        -7.1692
  91   2.0000      -0.256817        -6.9883
  92   0.0000      -0.158935        -4.3248
  93   0.0000      -0.121885        -3.3167
  94   0.0000      -0.052236        -1.4214
  95   0.0000      -0.048140        -1.3100
  96   0.0000      -0.010980        -0.2988

MULLIKEN ATOMIC CHARGES
-----------------------
   0 C :   -0.304934
   1 O :   -0.148068
   2 C :    0.011610
   3 O :   -0.368115
   4 C :    0.184403
   5 C :    0.641492
   6 O :   -0.360574
   7 C :    0.067553
   8 O :   -0.399766
   9 N :   -0.098951
  10 C :    0.067755
  11 C :   -0.448520
  12 C :    0.147841
  13 C :   -0.542380
  14 C :   -0.547283
  15 N :   -0.358104
  16 C :   -0.132617
  17 O :   -0.300969
  18 C :    0.427404
  19 N :   -0.029884
  20 N :   -0.322745
  21 C :    0.455089
  22 C :   -0.621740
  23 O :   -0.000743
  24 N :   -0.233419
  25 H :    0.183251
  26 H :    0.184392
  27 H :    0.183996
  28 H :    0.365257
  29 H :    0.333115
  30 H :    0.198947
  31 H :    0.202101
  32 H :    0.197819
  33 H :    0.219753
  34 H :    0.215590
  35 H :    0.211554
  36 H :    0.208242
  37 H :    0.203468
  38 H :    0.209416
  39 H :    0.453742
  40 H :    0.219051
  41 H :    0.214353
  42 H :    0.211616
Sum of atomic charges:    1.0000000

LOEWDIN ATOMIC CHARGES
----------------------
   0 C :   -0.026710
   1 O :   -0.553766
   2 C :    0.392396
   3 O :   -0.376706
   4 C :    0.288127
   5 C :    0.373377
   6 O :   -0.414444
   7 C :    0.378803
   8 O :   -0.412581
   9 N :   -0.489315
  10 C :    0.238446
  11 C :   -0.309213
  12 C :    0.132257
  13 C :   -0.326130
  14 C :   -0.334042
  15 N :   -0.595006
  16 C :    0.442134
  17 O :   -0.293805
  18 C :    0.400810
  19 N :   -0.320367
  20 N :   -0.302812
  21 C :    0.421313
  22 C :   -0.305019
  23 O :   -0.330248
  24 N :   -0.495114
  25 H :    0.188157
  26 H :    0.187428
  27 H :    0.190420
  28 H :    0.314331
  29 H :    0.307167
  30 H :    0.181930
  31 H :    0.186395
  32 H :    0.186721
  33 H :    0.193937
  34 H :    0.187639
  35 H :    0.190419
  36 H :    0.185429
  37 H :    0.186616
  38 H :    0.188255
  39 H :    0.339886
  40 H :    0.204642
  41 H :    0.197893
  42 H :    0.200348

  Mayer bond orders larger than 0.100000
B(  0-C ,  1-O ) :   0.8218 B(  0-C , 25-H ) :   0.9517 B(  0-C , 26-H ) :   0.9497
B(  0-C , 27-H ) :   0.9610 B(  1-O ,  2-C ) :   1.1770 B(  2-C ,  3-O ) :   1.9342
B(  2-C ,  4-C ) :   0.9381 B(  2-C , 24-N ) :   0.1658 B(  4-C ,  5-C ) :   0.7903
B(  4-C ,  7-C ) :   0.1795 B(  4-C , 24-N ) :   1.7956 B(  5-C ,  6-O ) :   1.0642
B(  5-C ,  7-C ) :   0.5936 B(  5-C , 15-N ) :   0.8203 B(  6-O , 28-H ) :   0.8163
B(  7-C ,  8-O ) :   2.0317 B(  7-C ,  9-N ) :   1.2660 B(  9-N , 10-C ) :   1.0441
B(  9-N , 12-C ) :  -0.1152 B(  9-N , 29-H ) :   0.8792 B( 10-C , 11-C ) :   0.9707
B( 10-C , 12-C ) :   0.6271 B( 10-C , 15-N ) :  -0.1034 B( 10-C , 24-N ) :   0.7416
B( 11-C , 30-H ) :   0.9526 B( 11-C , 31-H ) :   0.9509 B( 11-C , 32-H ) :   0.9575
B( 12-C , 13-C ) :   0.9258 B( 12-C , 14-C ) :   0.9935 B( 12-C , 15-N ) :   1.0103
B( 13-C , 16-C ) :   0.1341 B( 13-C , 33-H ) :   0.9335 B( 13-C , 34-H ) :   0.9498
B( 13-C , 35-H ) :   0.9235 B( 14-C , 36-H ) :   0.9572 B( 14-C , 37-H ) :   0.9437
B( 14-C , 38-H ) :   0.9354 B( 15-N , 16-C ) :   0.5703 B( 15-N , 18-C ) :   0.1326
B( 15-N , 39-H ) :   0.7634 B( 16-C , 17-O ) :   1.9587 B( 16-C , 18-C ) :   0.8403
B( 17-O , 18-C ) :  -0.1094 B( 18-C , 19-N ) :   1.5174 B( 18-C , 20-N ) :   0.1063
B( 18-C , 21-C ) :   0.1361 B( 18-C , 23-O ) :   1.1423 B( 19-N , 20-N ) :   1.2007
B( 20-N , 21-C ) :   1.4273 B( 21-C , 22-C ) :   0.8482 B( 21-C , 23-O ) :   1.0830
B( 22-C , 40-H ) :   0.9213 B( 22-C , 41-H ) :   0.9780 B( 22-C , 42-H ) :   0.9430

Dispersion correction           -0.022077357
FINAL SINGLE POINT ENERGY     -1269.043792256316

DIPOLE MOMENT
-------------
                                X             Y             Z
Electronic contribution:     -2.16374       9.78376      -3.13719
Nuclear contribution   :      5.36260     -10.60022       3.93709
                        -----------------------------------------
Total Dipole Moment    :      3.19886      -0.81646       0.79989
                        -----------------------------------------
Magnitude (a.u.)       :      3.39693
Magnitude (Debye)      :      8.63432

Rotational constants in cm-1:     0.010756     0.006373     0.005159
Rotational constants in MHz :   322.467453   191.059715   154.660563

                             ****ORCA TERMINATED NORMALLY****
TOTAL RUN TIME: 0 days 0 hours 2 minutes 46 seconds 839 msec
