   * xtb version 6.5.1 (579679a) compiled by 'ehlert@majestix' on 2022-07-11
          program call               : /lustre/hpc/kemi/ree/PhD/git/ReactivityQM/dep/xtb-6.5.1/bin/xtb --gfn 1 /lustre/hpc/kemi/ree/PhD/git/ReactivityQM/calculations/R02/reac01prodN10/conf19/R02_reac01prodN10_conf19_gfn1.xyz --opt --vfukui --chrg 1 --uhf 0 --alpb DMSO

   ID    Z sym.   atoms
    1    6 C      1, 3, 5, 6, 8, 11-15, 17, 19, 22, 23
    2    8 O      2, 4, 7, 9, 18, 24
    3    7 N      10, 16, 20, 21, 25
    4    1 H      26-43

      * Solvation model:               ALPB
        Solvent                        DMSO
        Solvent mass                       7.8130E+01 g/mol
          :  Hamiltonian                  GFN1-xTB          :
 * total energy  :   -83.0833362 Eh     change       -0.8768097E-10 Eh
 * total energy  :   -83.1019545 Eh     change       -0.1861826E-01 Eh
 * total energy  :   -83.1096297 Eh     change       -0.7675268E-02 Eh
 * total energy  :   -83.1109586 Eh     change       -0.1328837E-02 Eh
 * total energy  :   -83.1115978 Eh     change       -0.6392647E-03 Eh
 * total energy  :   -83.1118362 Eh     change       -0.2383348E-03 Eh
 * total energy  :   -83.1120519 Eh     change       -0.2157134E-03 Eh
 * total energy  :   -83.1122113 Eh     change       -0.1594145E-03 Eh
 * total energy  :   -83.1123565 Eh     change       -0.1452407E-03 Eh
 * total energy  :   -83.1124962 Eh     change       -0.1397019E-03 Eh
 * total energy  :   -83.1496377 Eh     change       -0.1981233E-04 Eh
 * total energy  :   -83.1496514 Eh     change       -0.1372962E-04 Eh
 * total energy  :   -83.1496657 Eh     change       -0.1429663E-04 Eh
 * total energy  :   -83.1496764 Eh     change       -0.1074892E-04 Eh
 * total energy  :   -83.1496804 Eh     change       -0.3993485E-05 Eh
 * total energy  :   -83.1496838 Eh     change       -0.3376315E-05 Eh
 * total energy  :   -83.1496911 Eh     change       -0.7332746E-05 Eh
 * total energy  :   -83.1496949 Eh     change       -0.3806886E-05 Eh
 * total energy  :   -83.1496990 Eh     change       -0.4061859E-05 Eh
   *** GEOMETRY OPTIMIZATION CONVERGED AFTER 124 ITERATIONS ***

 final structure:
================
43
 xtb: 6.5.1 (579679a)
C           -3.37882036012763        1.84036509691242       -3.03806184834463
O           -2.65438036395922        1.51107977371424       -1.84272442674382
C           -2.88700176126954        0.33149658084543       -1.30862048293758
O           -3.66579055092520       -0.48142693992727       -1.73460659594197
C           -2.07010980781989        0.07692284908496       -0.05982330294731
C           -1.07385200708208        1.01780777695622        0.56576808265848
O           -0.80846144654702        2.20524590899657       -0.02315794565287
C           -1.44036226439618        1.17794114150376        2.05697013633340
O           -1.51566511698101        2.26907154035968        2.56879739481818
N           -1.63267986078248       -0.02449266618544        2.59848964755476
C           -1.42847606988338       -1.18729403122721        1.74944863343039
C           -1.85591006751098       -2.44476956617925        2.48734392433409
C            0.06096096665020       -1.16876964910898        1.28851803796588
C            0.35401035698003       -2.31557628662282        0.32755140215676
C            1.03360157665784       -1.17713958287169        2.46283017488334
N            0.23976758637961        0.18179405597165        0.60468864448354
C            0.75501181999516        0.11231149251951       -0.82341489011569
O            0.04297281030378       -0.26476299259638       -1.69514245237501
C            2.11787849023223        0.56486829433702       -0.85197174602318
N            2.80450180974597        0.98161937355671        0.18661914372106
N            4.02200921442199        1.30506866246818       -0.25421664329006
C            4.03530262557845        1.07184110026712       -1.54900412273351
C            5.15800197629199        1.25955986154013       -2.48453291739350
O            2.86255077841878        0.60640642769149       -1.97061958835004
N           -2.22919100162614       -1.02856237390553        0.54758634335465
H           -4.45283574341639        1.76070981922929       -2.85507739001566
H           -3.09177881821533        1.15812111373832       -3.84160198775837
H           -3.10547864354023        2.86314765585774       -3.28898729557300
H           -0.79377861015057        2.91252761871192        0.64962913994560
H           -1.83965518244412       -0.13372197019146        3.57661573989465
H           -1.24707828897557       -2.59569985953054        3.37514616575914
H           -1.76385662874153       -3.30870553253820        1.83265937532901
H           -2.89866216045890       -2.34064993333646        2.78330620968368
H           -0.37857485074109       -2.35342062256988       -0.47704501517290
H            1.35227497710357       -2.20923412913676       -0.09287041099335
H            0.31808484006584       -3.25078193942650        0.88346468005922
H            2.04759212681581       -1.02112191488003        2.09622591630350
H            0.78600895509188       -0.39099077940597        3.17347623123291
H            0.99255469080403       -2.13874537896361        2.97078302492131
H            0.92397806891193        0.73770465916163        1.12819780963815
H            5.51299358857649        0.28598177118086       -2.82680103092389
H            5.96932210250067        1.78711572189085       -1.98906193321179
H            4.82301924405149        1.81715685207980       -3.35888783196458

          :  Hamiltonian                  GFN1-xTB          :
         :: total energy             -83.149699006130 Eh    ::
         :: gradient norm              0.000942890434 Eh/a0 ::
         :: HOMO-LUMO gap              2.260675354124 eV    ::
         :: SCC energy               -83.916632931010 Eh    ::
         :: -> Gsolv                  -0.113139275804 Eh    ::
         :: repulsion energy           0.798103314920 Eh    ::

    * Orbital Energies and Occupations

         #    Occupation            Energy/Eh            Energy/eV
      -------------------------------------------------------------
         1        2.0000           -0.9077316             -24.7006
       ...           ...                  ...                  ...
        55        2.0000           -0.5395350             -14.6815
        56        2.0000           -0.5343250             -14.5397
        57        2.0000           -0.5318679             -14.4729
        58        2.0000           -0.5287900             -14.3891
        59        2.0000           -0.5246219             -14.2757
        60        2.0000           -0.5235094             -14.2454
        61        2.0000           -0.5139313             -13.9848
        62        2.0000           -0.5097149             -13.8700
        63        2.0000           -0.5046190             -13.7314
        64        2.0000           -0.4962083             -13.5025
        65        2.0000           -0.4942002             -13.4479
        66        2.0000           -0.4886209             -13.2961
        67        2.0000           -0.4728350             -12.8665 (HOMO)
        68                         -0.3897567             -10.6058 (LUMO)
        69                         -0.3607471              -9.8164
        70                         -0.2962967              -8.0626
        71                         -0.2948546              -8.0234
        72                         -0.2620907              -7.1319
        73                         -0.2459160              -6.6917
        74                         -0.1599069              -4.3513
        75                         -0.1589437              -4.3251
        76                         -0.1569998              -4.2722
        77                         -0.1482988              -4.0354
        78                         -0.1462397              -3.9794
       ...                                ...                  ...
       136                          0.7314382              19.9034
      -------------------------------------------------------------
                  HL-Gap            0.0830783 Eh            2.2607 eV

Wiberg/Mayer (AO) data.
largest (>0.10) Wiberg bond orders for each atom

     #   Z sym  total        # sym  WBO       # sym  WBO       # sym  WBO
 ---------------------------------------------------------------------------
     1   6 C    3.853 --    28 H    0.985    26 H    0.978    27 H    0.978
                             2 O    0.880
     2   8 O    2.235 --     3 C    1.157     1 C    0.880     4 O    0.150
     3   6 C    3.861 --     4 O    1.684     2 O    1.157     5 C    0.948
     4   8 O    1.954 --     3 C    1.684     2 O    0.150
     5   6 C    3.954 --    25 N    1.840     6 C    0.967     3 C    0.948
     6   6 C    3.863 --     7 O    1.060     5 C    0.967     8 C    0.886
                            16 N    0.794
     7   8 O    1.962 --     6 C    1.060    29 H    0.796
     8   6 C    3.917 --     9 O    1.641    10 N    1.288     6 C    0.886
     9   8 O    1.966 --     8 C    1.641    10 N    0.180
    10   7 N    3.350 --     8 C    1.288    11 C    0.936    30 H    0.866
                             9 O    0.180
    11   6 C    3.921 --    12 C    0.998    25 N    0.975    10 N    0.936
                            13 C    0.925
    12   6 C    3.982 --    11 C    0.998    31 H    0.982    32 H    0.979
                            33 H    0.979
    13   6 C    3.874 --    14 C    1.003    15 C    1.002    11 C    0.925
                            16 N    0.848
    14   6 C    3.980 --    13 C    1.003    35 H    0.978    34 H    0.977
                            36 H    0.975
    15   6 C    3.981 --    13 C    1.002    38 H    0.979    37 H    0.977
                            39 H    0.973
    16   7 N    3.568 --    40 H    0.868    13 C    0.848    17 C    0.838
                             6 C    0.794
    17   6 C    3.875 --    18 O    1.795    19 C    1.092    16 N    0.838
    18   8 O    2.077 --    17 C    1.795
    19   6 C    3.889 --    20 N    1.504    17 C    1.092    24 O    1.058
    20   7 N    3.056 --    19 C    1.504    21 N    1.297
    21   7 N    2.992 --    22 C    1.500    20 N    1.297
    22   6 C    3.848 --    21 N    1.500    24 O    1.118    23 C    1.043
    23   6 C    3.976 --    22 C    1.043    42 H    0.978    43 H    0.957
                            41 H    0.946
    24   8 O    2.361 --    22 C    1.118    19 C    1.058
    25   7 N    3.041 --     5 C    1.840    11 C    0.975
    26   1 H    1.004 --     1 C    0.978
    27   1 H    1.003 --     1 C    0.978
    28   1 H    1.008 --     1 C    0.985
    29   1 H    0.835 --     7 O    0.796
    30   1 H    0.903 --    10 N    0.866
    31   1 H    0.995 --    12 C    0.982
    32   1 H    0.999 --    12 C    0.979
    33   1 H    0.996 --    12 C    0.979
    34   1 H    1.001 --    14 C    0.977
    35   1 H    0.995 --    14 C    0.978
    36   1 H    0.996 --    14 C    0.975
    37   1 H    0.998 --    15 C    0.977
    38   1 H    0.995 --    15 C    0.979
    39   1 H    0.994 --    15 C    0.973
    40   1 H    0.945 --    16 N    0.868
    41   1 H    0.989 --    23 C    0.946
    42   1 H    0.993 --    23 C    0.978
    43   1 H    0.990 --    23 C    0.957
 ---------------------------------------------------------------------------

           -------------------------------------------------
          | TOTAL ENERGY              -83.149699006130 Eh   |
          | GRADIENT NORM               0.000942890434 Eh/α |
          | HOMO-LUMO GAP               2.260675354124 eV   |
           -------------------------------------------------

 * finished run on 2023/06/20 at 15:31:07.760
