   * xtb version 6.5.1 (579679a) compiled by 'ehlert@majestix' on 2022-07-11
          program call               : /lustre/hpc/kemi/ree/PhD/git/ReactivityQM/dep/xtb-6.5.1/bin/xtb --gfn 1 /lustre/hpc/kemi/ree/PhD/git/ReactivityQM/calculations/R02oxygendeprot/reac01prodE03/conf10/R02oxygendeprot_reac01prodE03_conf10_gfn1.xyz --opt --vfukui --chrg -2 --uhf 0 --alpb DMSO

   ID    Z sym.   atoms
    1    6 C      1, 3, 5, 6, 8-11, 13, 15, 18, 19, 22, 24
    2    8 O      2, 4, 14, 20, 23, 25
    3    7 N      7, 12, 16, 17, 21
    4    1 H      26-42

      * Solvation model:               ALPB
        Solvent                        DMSO
        Solvent mass                       7.8130E+01 g/mol
          :  Hamiltonian                  GFN1-xTB          :
 * total energy  :   -83.5560797 Eh     change       -0.1264766E-11 Eh
 * total energy  :   -83.5701265 Eh     change       -0.1404679E-01 Eh
 * total energy  :   -83.5758702 Eh     change       -0.5743653E-02 Eh
 * total energy  :   -83.5772462 Eh     change       -0.1376079E-02 Eh
 * total energy  :   -83.5782077 Eh     change       -0.9614795E-03 Eh
 * total energy  :   -83.5786900 Eh     change       -0.4822576E-03 Eh
 * total energy  :   -83.5790581 Eh     change       -0.3681038E-03 Eh
 * total energy  :   -83.5793259 Eh     change       -0.2678655E-03 Eh
 * total energy  :   -83.5794953 Eh     change       -0.1693425E-03 Eh
 * total energy  :   -83.5796146 Eh     change       -0.1193390E-03 Eh
 * total energy  :   -83.5830119 Eh     change       -0.5900449E-04 Eh
 * total energy  :   -83.5830365 Eh     change       -0.2456809E-04 Eh
 * total energy  :   -83.5830697 Eh     change       -0.3323236E-04 Eh
 * total energy  :   -83.5830839 Eh     change       -0.1416680E-04 Eh
 * total energy  :   -83.5831106 Eh     change       -0.2670470E-04 Eh
 * total energy  :   -83.5831176 Eh     change       -0.6990671E-05 Eh
 * total energy  :   -83.5831319 Eh     change       -0.1429751E-04 Eh
 * total energy  :   -83.5831350 Eh     change       -0.3110236E-05 Eh
 * total energy  :   -83.5831384 Eh     change       -0.3363398E-05 Eh
   *** GEOMETRY OPTIMIZATION CONVERGED AFTER 79 ITERATIONS ***

 final structure:
================
42
 xtb: 6.5.1 (579679a)
C           -6.10353591083843        0.69807451623942        0.70051823017316
O           -5.11512335398654       -0.32469323865742        0.76796640840970
C           -3.96270047326786       -0.11164760461178        0.02986193883091
O           -4.03336479881344       -0.61188796692370       -1.27558842567902
C           -3.50395637574598       -1.91685465184548       -1.46984868863447
C           -2.80926310038324        0.48069866133343        0.51265593032486
N           -1.71207272540302        0.42086384668296       -0.35078022848259
C           -0.57704582827535        0.90525951358074        0.02790556898606
C            0.62251936665848        0.88366565211443       -0.90540269759246
C            0.37402466146660       -0.10518376455396       -2.05242965449438
C            0.83320851331444        2.30442110909618       -1.45384665798576
N            1.78094112673026        0.47903489002992       -0.10049317988644
C            3.02295591519317        0.23870784505867       -0.70444506735549
O            3.37094425104002        0.75265199155811       -1.78769207791421
C            3.83675316914288       -0.61300455984289        0.10626451458306
N            3.47101726770813       -1.19659093770748        1.25182848044157
N            4.54132467101054       -1.94119483092264        1.66643746644071
C            5.47955348446620       -1.78838053117727        0.79057159914638
C            6.83080586000380       -2.40249245959108        0.80945553586456
O            5.12743800008920       -0.96911341668365       -0.22883406793963
N           -0.39695968215090        1.48447407162475        1.24572387240570
C           -1.42350393502215        1.66167426402971        2.18760636943190
O           -1.12434803465587        2.24730642760793        3.26103494115420
C           -2.72064684989050        1.14711655801328        1.80741557290976
O           -3.73711632429767        1.29657975034286        2.56913796373042
H           -5.74093793088248        1.62430551410602        1.16376146347494
H           -6.39379848819887        0.90268782153940       -0.33723250492724
H           -6.97669411375853        0.33943877100372        1.24936153533026
H           -3.99306410534377       -2.65144597072928       -0.81664348852730
H           -3.68786292248565       -2.18903567968247       -2.51112174421662
H           -2.42184603576197       -1.93256946268172       -1.28005079434295
H            0.26590199685268       -1.11567381393956       -1.65847598845564
H            1.20105032957246       -0.08486273964344       -2.76003683704292
H           -0.54547651765487        0.16524690237706       -2.57103764543732
H            1.65644323779491        2.32665668165869       -2.16531274291359
H           -0.07455238639027        2.63803107561149       -1.95604874393921
H            1.05595987605387        2.98939439915345       -0.63639383299815
H            1.55655034480318       -0.21587105810651        0.60585980446825
H            6.93685465039290       -3.02101099560402        1.69738933079960
H            6.98109632364483       -3.01860307601497       -0.07769148168404
H            7.60004620442848       -1.62954726648966        0.81580781760802
H            0.50848164283841        1.85337476264532        1.49054020593171

          :  Hamiltonian                  GFN1-xTB          :
         :: total energy             -83.583138382719 Eh    ::
         :: gradient norm              0.000910098428 Eh/a0 ::
         :: HOMO-LUMO gap              0.042750931481 eV    ::
         :: SCC energy               -84.304980382429 Eh    ::
         :: -> Gsolv                  -0.267198850699 Eh    ::
         :: repulsion energy           0.747464050100 Eh    ::

    * Orbital Energies and Occupations

         #    Occupation            Energy/Eh            Energy/eV
      -------------------------------------------------------------
         1        2.0000           -0.8031414             -21.8546
       ...           ...                  ...                  ...
        56        2.0000           -0.4312833             -11.7358
        57        2.0000           -0.4266403             -11.6095
        58        2.0000           -0.4212364             -11.4624
        59        2.0000           -0.4100531             -11.1581
        60        2.0000           -0.4065642             -11.0632
        61        2.0000           -0.4063086             -11.0562
        62        2.0000           -0.4034965             -10.9797
        63        2.0000           -0.3992082             -10.8630
        64        2.0000           -0.3902534             -10.6193
        65        2.0000           -0.3785705             -10.3014
        66        2.0000           -0.3475878              -9.4583
        67        2.0000           -0.3422631              -9.3135
        68        1.3914           -0.2700197              -7.3476 (HOMO)
        69        0.6086           -0.2684487              -7.3049 (LUMO)
        70                         -0.2115536              -5.7567
        71                         -0.2075299              -5.6472
        72                         -0.1819379              -4.9508
        73                         -0.1423507              -3.8736
        74                         -0.1246852              -3.3929
        75                         -0.1128284              -3.0702
        76                         -0.1025914              -2.7917
        77                         -0.0976924              -2.6583
        78                         -0.0923782              -2.5137
        79                         -0.0763614              -2.0779
       ...                                ...                  ...
       134                          0.7278714              19.8064
      -------------------------------------------------------------
                  HL-Gap            0.0015711 Eh            0.0428 eV

Wiberg/Mayer (AO) data.
largest (>0.10) Wiberg bond orders for each atom

     #   Z sym  total        # sym  WBO       # sym  WBO       # sym  WBO
 ---------------------------------------------------------------------------
     1   6 C    3.906 --    28 H    0.987    27 H    0.984    26 H    0.978
                             2 O    0.928
     2   8 O    2.011 --     3 C    0.960     1 C    0.928
     3   6 C    3.538 --     6 C    1.459     2 O    0.960     4 O    0.935
     4   8 O    1.995 --     5 C    0.935     3 C    0.935
     5   6 C    3.911 --    30 H    0.986    29 H    0.983    31 H    0.980
                             4 O    0.935
     6   6 C    3.942 --     3 C    1.459    24 C    1.125     7 N    1.110
     7   7 N    2.975 --     8 C    1.574     6 C    1.110    21 N    0.110
     8   6 C    3.912 --     7 N    1.574    21 N    1.162     9 C    0.975
     9   6 C    3.949 --    10 C    0.991    11 C    0.985     8 C    0.975
                            12 N    0.938
    10   6 C    3.993 --     9 C    0.991    32 H    0.986    34 H    0.985
                            33 H    0.984
    11   6 C    3.991 --    36 H    0.988    37 H    0.986     9 C    0.985
                            35 H    0.980
    12   7 N    3.146 --    13 C    1.082     9 C    0.938    38 H    0.918
                            14 O    0.109
    13   6 C    3.751 --    14 O    1.454    15 C    1.148    12 N    1.082
    14   8 O    1.697 --    13 C    1.454    12 N    0.109
    15   6 C    3.697 --    16 N    1.398    13 C    1.148    20 O    0.980
    16   7 N    2.749 --    15 C    1.398    17 N    1.185
    17   7 N    2.980 --    18 C    1.628    16 N    1.185
    18   6 C    3.821 --    17 N    1.628    20 O    1.051    19 C    1.024
    19   6 C    3.994 --    18 C    1.024    39 H    0.986    41 H    0.971
                            40 H    0.971
    20   8 O    2.188 --    18 C    1.051    15 C    0.980
    21   7 N    3.388 --     8 C    1.162    22 C    1.041    42 H    0.907
                             7 N    0.110
    22   6 C    3.782 --    23 O    1.425    24 C    1.144    21 N    1.041
    23   8 O    1.653 --    22 C    1.425
    24   6 C    3.814 --    25 O    1.375    22 C    1.144     6 C    1.125
    25   8 O    1.602 --    24 C    1.375
    26   1 H    1.042 --     1 C    0.978
    27   1 H    1.017 --     1 C    0.984
    28   1 H    1.021 --     1 C    0.987
    29   1 H    1.016 --     5 C    0.983
    30   1 H    1.020 --     5 C    0.986
    31   1 H    1.032 --     5 C    0.980
    32   1 H    1.012 --    10 C    0.986
    33   1 H    1.014 --    10 C    0.984
    34   1 H    1.020 --    10 C    0.985
    35   1 H    1.022 --    11 C    0.980
    36   1 H    1.008 --    11 C    0.988
    37   1 H    1.009 --    11 C    0.986
    38   1 H    0.980 --    12 N    0.918
    39   1 H    1.004 --    19 C    0.986
    40   1 H    1.001 --    19 C    0.971
    41   1 H    1.001 --    19 C    0.971
    42   1 H    0.966 --    21 N    0.907
 ---------------------------------------------------------------------------

           -------------------------------------------------
          | TOTAL ENERGY              -83.583138382719 Eh   |
          | GRADIENT NORM               0.000910098428 Eh/α |
          | HOMO-LUMO GAP               0.042750931481 eV   |
           -------------------------------------------------

 * finished run on 2023/06/21 at 17:03:08.146
