   * xtb version 6.5.1 (579679a) compiled by 'ehlert@majestix' on 2022-07-11
          program call               : /lustre/hpc/kemi/ree/PhD/git/ReactivityQM/dep/xtb-6.5.1/bin/xtb --gfn 1 /lustre/hpc/kemi/ree/PhD/git/ReactivityQM/calculations/R01/reac01prodE03/conf06/R01_reac01prodE03_conf06_gfn1.xyz --opt --vfukui --chrg -1 --uhf 0 --alpb DMSO

   ID    Z sym.   atoms
    1    6 C      1, 3, 5, 6, 9, 10
    2    8 O      2, 4, 11
    3    7 N      7, 8
    4    1 H      12-20

      * Solvation model:               ALPB
        Solvent                        DMSO
        Solvent mass                       7.8130E+01 g/mol
          :  Hamiltonian                  GFN1-xTB          :
 * total energy  :   -38.3110053 Eh     change       -0.2596323E-10 Eh
 * total energy  :   -38.3220473 Eh     change       -0.1104202E-01 Eh
 * total energy  :   -38.3256889 Eh     change       -0.3641583E-02 Eh
 * total energy  :   -38.3262560 Eh     change       -0.5670794E-03 Eh
 * total energy  :   -38.3267825 Eh     change       -0.5265122E-03 Eh
 * total energy  :   -38.3270940 Eh     change       -0.3115101E-03 Eh
 * total energy  :   -38.3275057 Eh     change       -0.4116276E-03 Eh
 * total energy  :   -38.3278648 Eh     change       -0.3591247E-03 Eh
 * total energy  :   -38.3281147 Eh     change       -0.2499467E-03 Eh
 * total energy  :   -38.3282083 Eh     change       -0.9353467E-04 Eh
 * total energy  :   -38.3290590 Eh     change       -0.3828052E-04 Eh
 * total energy  :   -38.3290690 Eh     change       -0.1000403E-04 Eh
 * total energy  :   -38.3290867 Eh     change       -0.1766928E-04 Eh
 * total energy  :   -38.3291032 Eh     change       -0.1657493E-04 Eh
 * total energy  :   -38.3291167 Eh     change       -0.1349414E-04 Eh
 * total energy  :   -38.3291296 Eh     change       -0.1284584E-04 Eh
 * total energy  :   -38.3291378 Eh     change       -0.8246860E-05 Eh
 * total energy  :   -38.3291465 Eh     change       -0.8630959E-05 Eh
 * total energy  :   -38.3291501 Eh     change       -0.3614090E-05 Eh
   *** GEOMETRY OPTIMIZATION CONVERGED AFTER 33 ITERATIONS ***

 final structure:
================
20
 xtb: 6.5.1 (579679a)
C           -2.79178661795548       -1.10554920649651       -0.39689340948829
O           -1.46213060515681       -0.61025913607022       -0.47494767593128
C           -1.26283315375829        0.63830837354333        0.02422707773278
O           -2.19266362411396        1.30599925965494        0.47126869037849
C            0.21003951886315        0.99036623153848        0.21292464112669
C            0.47238122197656        2.49544995251073        0.12759420563602
N            0.32508593628340        0.44017183387672        1.56342008158040
N            1.14437966714481       -0.65239580717820        1.43318907083342
C            1.56160856830966       -0.75272769632463        0.22892968438871
C            2.49697403192615       -1.76577088062984       -0.33134588725894
O            1.07753782949945        0.24895773364751       -0.62516576903272
H           -3.47942738975489       -0.45294725426507       -0.94459575088503
H           -2.79202695400204       -2.09726580601582       -0.84761803279805
H           -3.12401740936746       -1.17192897173333        0.64452993124248
H           -0.26629142537077        3.02255609406637        0.72886131981516
H            1.46831242126682        2.70970554851105        0.50971313893415
H            0.40534467642583        2.83110875211446       -0.90588692075783
H            2.04044462394266       -2.30053321424553       -1.16698064811276
H            3.41070285124005       -1.29203060107937       -0.69794512536700
H            2.75836483260107       -2.48121520542534        0.44672037796418

          :  Hamiltonian                  GFN1-xTB          :
         :: total energy             -38.329150080163 Eh    ::
         :: gradient norm              0.000813441637 Eh/a0 ::
         :: HOMO-LUMO gap              2.055249008759 eV    ::
         :: SCC energy               -38.635682074522 Eh    ::
         :: -> Gsolv                  -0.104181484468 Eh    ::
         :: repulsion energy           0.315410764377 Eh    ::

    * Orbital Energies and Occupations

         #    Occupation            Energy/Eh            Energy/eV
      -------------------------------------------------------------
         1        2.0000           -0.7923064             -21.5598
       ...           ...                  ...                  ...
        19        2.0000           -0.5035265             -13.7017
        20        2.0000           -0.4984135             -13.5625
        21        2.0000           -0.4935510             -13.4302
        22        2.0000           -0.4884817             -13.2923
        23        2.0000           -0.4756442             -12.9429
        24        2.0000           -0.4681971             -12.7403
        25        2.0000           -0.4609595             -12.5433
        26        2.0000           -0.4578080             -12.4576
        27        2.0000           -0.4195906             -11.4176
        28        2.0000           -0.4134290             -11.2500
        29        2.0000           -0.3890490             -10.5866
        30        2.0000           -0.3625605              -9.8658
        31        2.0000           -0.2893787              -7.8744 (HOMO)
        32                         -0.2138497              -5.8191 (LUMO)
        33                         -0.1707834              -4.6473
        34                         -0.1207301              -3.2852
        35                         -0.1131611              -3.0793
        36                         -0.0980217              -2.6673
        37                         -0.0584519              -1.5906
        38                         -0.0573049              -1.5593
        39                         -0.0469562              -1.2777
        40                         -0.0454723              -1.2374
        41                         -0.0393167              -1.0699
        42                         -0.0343007              -0.9334
       ...                                ...                  ...
        62                          0.6695767              18.2201
      -------------------------------------------------------------
                  HL-Gap            0.0755290 Eh            2.0552 eV

Wiberg/Mayer (AO) data.
largest (>0.10) Wiberg bond orders for each atom

     #   Z sym  total        # sym  WBO       # sym  WBO       # sym  WBO
 ---------------------------------------------------------------------------
     1   6 C    3.903 --    13 H    0.987    12 H    0.981    14 H    0.981
                             2 O    0.926
     2   8 O    2.152 --     3 C    1.044     1 C    0.926     4 O    0.104
     3   6 C    3.815 --     4 O    1.571     2 O    1.044     5 C    0.921
                             7 N    0.177
     4   8 O    1.855 --     3 C    1.571     2 O    0.104
     5   6 C    3.901 --     6 C    0.980     7 N    0.967    11 O    0.929
                             3 C    0.921
     6   6 C    3.996 --    17 H    0.987    16 H    0.986    15 H    0.986
                             5 C    0.980
     7   7 N    2.659 --     8 N    1.162     5 C    0.967     3 C    0.177
                             9 C    0.163
     8   7 N    3.014 --     9 C    1.687     7 N    1.162
     9   6 C    3.879 --     8 N    1.687    10 C    1.018    11 O    0.938
                             7 N    0.163
    10   6 C    3.996 --     9 C    1.018    20 H    0.987    18 H    0.977
                            19 H    0.975
    11   8 O    2.066 --     9 C    0.938     5 C    0.929
    12   1 H    1.015 --     1 C    0.981
    13   1 H    1.016 --     1 C    0.987
    14   1 H    1.013 --     1 C    0.981
    15   1 H    1.017 --     6 C    0.986
    16   1 H    1.018 --     6 C    0.986
    17   1 H    1.009 --     6 C    0.987
    18   1 H    1.008 --    10 C    0.977
    19   1 H    1.008 --    10 C    0.975
    20   1 H    1.009 --    10 C    0.987
 ---------------------------------------------------------------------------

           -------------------------------------------------
          | TOTAL ENERGY              -38.329150080163 Eh   |
          | GRADIENT NORM               0.000813441637 Eh/α |
          | HOMO-LUMO GAP               2.055249008759 eV   |
           -------------------------------------------------

 * finished run on 2023/06/20 at 14:53:18.560
