   * xtb version 6.5.1 (579679a) compiled by 'ehlert@majestix' on 2022-07-11
          program call               : /lustre/hpc/kemi/ree/PhD/git/ReactivityQM/dep/xtb-6.5.1/bin/xtb --gfn 1 /lustre/hpc/kemi/ree/PhD/git/ReactivityQM/calculations/R02methylcation/reac01prodE04/conf20/R02methylcation_reac01prodE04_conf20_gfn1.xyz --opt --vfukui --chrg -2 --uhf 0 --alpb DMSO

   ID    Z sym.   atoms
    1    6 C      1, 3, 5, 6, 8-11, 13, 15, 18, 19, 22, 24
    2    8 O      2, 4, 14, 20, 23, 25
    3    7 N      7, 12, 16, 17, 21
    4    1 H      26-42

      * Solvation model:               ALPB
        Solvent                        DMSO
        Solvent mass                       7.8130E+01 g/mol
          :  Hamiltonian                  GFN1-xTB          :
 * total energy  :   -83.5757498 Eh     change       -0.5344702E-09 Eh
 * total energy  :   -83.5959218 Eh     change       -0.2017203E-01 Eh
 * total energy  :   -83.6022876 Eh     change       -0.6365805E-02 Eh
 * total energy  :   -83.6036798 Eh     change       -0.1392211E-02 Eh
 * total energy  :   -83.6048346 Eh     change       -0.1154759E-02 Eh
 * total energy  :   -83.6054462 Eh     change       -0.6116008E-03 Eh
 * total energy  :   -83.6058728 Eh     change       -0.4266170E-03 Eh
 * total energy  :   -83.6062853 Eh     change       -0.4125234E-03 Eh
 * total energy  :   -83.6067056 Eh     change       -0.4202489E-03 Eh
 * total energy  :   -83.6070497 Eh     change       -0.3441796E-03 Eh
 * total energy  :   -83.6137360 Eh     change       -0.3834744E-04 Eh
 * total energy  :   -83.6137616 Eh     change       -0.2562938E-04 Eh
 * total energy  :   -83.6137886 Eh     change       -0.2700995E-04 Eh
 * total energy  :   -83.6138031 Eh     change       -0.1446190E-04 Eh
 * total energy  :   -83.6138082 Eh     change       -0.5144879E-05 Eh
 * total energy  :   -83.6138163 Eh     change       -0.8098009E-05 Eh
 * total energy  :   -83.6138226 Eh     change       -0.6320316E-05 Eh
 * total energy  :   -83.6138283 Eh     change       -0.5651020E-05 Eh
 * total energy  :   -83.6138325 Eh     change       -0.4211092E-05 Eh
   *** GEOMETRY OPTIMIZATION CONVERGED AFTER 63 ITERATIONS ***

 final structure:
================
42
 xtb: 6.5.1 (579679a)
C           -5.77648881622811        1.17287691149377        0.76546529080549
O           -4.63953686046052        1.36123209496703       -0.06430662932120
C           -3.48217522219626        0.79084353075884        0.37093598711481
O           -3.43647855071400        0.17372067430339        1.42775948148041
C           -2.35915663437625        0.89242380053856       -0.64769184146766
C           -2.39350653104937        2.21330222237977       -1.42007345055472
N           -1.08103977293523        0.75134151007402        0.02574573202089
C           -0.70851007699940       -0.43567606196105        0.35196178345827
C            0.52323984384136       -0.54975875950630        1.25498266745584
C            0.39159120931532        0.52662241974378        2.34034623381614
C            0.65998017801795       -1.92721109529055        1.91659398838022
N            1.72699843727362       -0.22937396040312        0.48164320814530
C            2.12803509989227       -1.07358843554845       -0.55852354283649
O            1.35480113316114       -1.89479102515924       -1.09272328739778
C            3.47560345989147       -0.85981259794666       -0.98835268351307
N            4.12325592341643       -1.46754333454921       -1.98632018700471
N            5.38992728205946       -0.95296010580098       -1.99641110353728
C            5.46677212479231       -0.08525314368688       -1.04219557934007
C            6.64798776851811        0.72693102316494       -0.65959751482483
O            4.30664023999406        0.04731577345113       -0.35113784513359
N           -1.37388009546493       -1.55803775564169       -0.01775220576950
C           -2.28267474185174       -1.57564636314158       -1.12715298258222
O           -2.52392798595945       -2.70623813491266       -1.64125777160179
C           -2.75457866771586       -0.31103705830978       -1.54832951225128
O           -3.50734892895570       -0.09389832936181       -2.55955342861302
H           -5.60221608096596        1.59630691566064        1.75935304015536
H           -6.60977957902106        1.68871993199852        0.29055322871533
H           -6.01256996649001        0.10929996525493        0.87398852837752
H           -2.33659971917976        3.05697774180896       -0.73296450521499
H           -3.31327331751907        2.28724917305922       -1.99967542373078
H           -1.54293208315273        2.26034055837804       -2.10084889197636
H            0.34431128275949        1.51194230454269        1.87622271392794
H           -0.52260648838564        0.36574424541511        2.91133664856022
H            1.24240256103293        0.49241485783697        3.01838857563471
H            0.83517484602365       -2.70589199077805        1.17557976624007
H           -0.24176413535465       -2.16396284070178        2.47993403953358
H            1.50478598874832       -1.91434963105413        2.60360197826765
H            2.48391758128807        0.13047430162636        1.04174303176657
H            7.48466813633601        0.47978678571089       -1.30857116170021
H            6.92482462789263        0.52750284145511        0.37562017410553
H            6.42558822220138        1.79072054901953       -0.74834304187244
H           -0.93946369148756       -2.44905950889244        0.16654549227291

          :  Hamiltonian                  GFN1-xTB          :
         :: total energy             -83.613832483901 Eh    ::
         :: gradient norm              0.000589443060 Eh/a0 ::
         :: HOMO-LUMO gap              0.037226328285 eV    ::
         :: SCC energy               -84.340188838040 Eh    ::
         :: -> Gsolv                  -0.298588483125 Eh    ::
         :: repulsion energy           0.753345216976 Eh    ::

    * Orbital Energies and Occupations

         #    Occupation            Energy/Eh            Energy/eV
      -------------------------------------------------------------
         1        2.0000           -0.8032402             -21.8573
       ...           ...                  ...                  ...
        56        2.0000           -0.4452802             -12.1167
        57        2.0000           -0.4401261             -11.9764
        58        2.0000           -0.4285769             -11.6622
        59        2.0000           -0.4227833             -11.5045
        60        2.0000           -0.4090278             -11.1302
        61        2.0000           -0.4040170             -10.9939
        62        2.0000           -0.4027299             -10.9588
        63        2.0000           -0.3982571             -10.8371
        64        2.0000           -0.3890181             -10.5857
        65        2.0000           -0.3766656             -10.2496
        66        2.0000           -0.3711121             -10.0985
        67        2.0000           -0.3424551              -9.3187
        68        1.3452           -0.2678140              -7.2876 (HOMO)
        69        0.6548           -0.2664459              -7.2504 (LUMO)
        70                         -0.2192903              -5.9672
        71                         -0.2105769              -5.7301
        72                         -0.1987488              -5.4082
        73                         -0.1403132              -3.8181
        74                         -0.1242806              -3.3818
        75                         -0.1218183              -3.3148
        76                         -0.1118914              -3.0447
        77                         -0.1019611              -2.7745
        78                         -0.0987369              -2.6868
        79                         -0.0893554              -2.4315
       ...                                ...                  ...
       134                          0.7138724              19.4255
      -------------------------------------------------------------
                  HL-Gap            0.0013680 Eh            0.0372 eV

Wiberg/Mayer (AO) data.
largest (>0.10) Wiberg bond orders for each atom

     #   Z sym  total        # sym  WBO       # sym  WBO       # sym  WBO
 ---------------------------------------------------------------------------
     1   6 C    3.899 --    27 H    0.987    26 H    0.981    28 H    0.981
                             2 O    0.923
     2   8 O    2.147 --     3 C    1.038     1 C    0.923     4 O    0.106
     3   6 C    3.772 --     4 O    1.588     2 O    1.038     5 C    0.944
     4   8 O    1.845 --     3 C    1.588     2 O    0.106
     5   6 C    3.960 --     6 C    0.992     7 N    0.984     3 C    0.944
                            24 C    0.876
     6   6 C    3.990 --     5 C    0.992    29 H    0.989    31 H    0.987
                            30 H    0.984
     7   7 N    2.936 --     8 C    1.648     5 C    0.984    21 N    0.147
     8   6 C    3.930 --     7 N    1.648    21 N    1.188     9 C    0.963
     9   6 C    3.951 --    10 C    0.994    11 C    0.993     8 C    0.963
                            12 N    0.940
    10   6 C    3.995 --     9 C    0.994    34 H    0.986    33 H    0.986
                            32 H    0.983
    11   6 C    3.992 --     9 C    0.993    36 H    0.987    37 H    0.985
                            35 H    0.978
    12   7 N    3.146 --    13 C    1.090     9 C    0.940    38 H    0.918
                            14 O    0.112
    13   6 C    3.759 --    14 O    1.453    15 C    1.147    12 N    1.090
    14   8 O    1.689 --    13 C    1.453    12 N    0.112
    15   6 C    3.690 --    16 N    1.405    13 C    1.147    20 O    0.968
    16   7 N    2.730 --    15 C    1.405    17 N    1.189
    17   7 N    2.982 --    18 C    1.628    16 N    1.189
    18   6 C    3.812 --    17 N    1.628    20 O    1.041    19 C    1.024
    19   6 C    3.994 --    18 C    1.024    39 H    0.986    40 H    0.971
                            41 H    0.971
    20   8 O    2.177 --    18 C    1.041    15 C    0.968
    21   7 N    3.336 --     8 C    1.188    22 C    0.965    42 H    0.909
                             7 N    0.147
    22   6 C    3.753 --    23 O    1.392    24 C    1.240    21 N    0.965
    23   8 O    1.606 --    22 C    1.392
    24   6 C    3.730 --    25 O    1.368    22 C    1.240     5 C    0.876
    25   8 O    1.572 --    24 C    1.368
    26   1 H    1.014 --     1 C    0.981
    27   1 H    1.016 --     1 C    0.987
    28   1 H    1.013 --     1 C    0.981
    29   1 H    1.011 --     6 C    0.989
    30   1 H    1.028 --     6 C    0.984
    31   1 H    1.013 --     6 C    0.987
    32   1 H    1.025 --    10 C    0.983
    33   1 H    1.010 --    10 C    0.986
    34   1 H    1.003 --    10 C    0.986
    35   1 H    1.014 --    11 C    0.978
    36   1 H    1.004 --    11 C    0.987
    37   1 H    1.005 --    11 C    0.985
    38   1 H    0.961 --    12 N    0.918
    39   1 H    1.004 --    19 C    0.986
    40   1 H    1.000 --    19 C    0.971
    41   1 H    1.000 --    19 C    0.971
    42   1 H    0.978 --    21 N    0.909
 ---------------------------------------------------------------------------

           -------------------------------------------------
          | TOTAL ENERGY              -83.613832483901 Eh   |
          | GRADIENT NORM               0.000589443060 Eh/α |
          | HOMO-LUMO GAP               0.037226328285 eV   |
           -------------------------------------------------

 * finished run on 2023/06/21 at 17:10:38.537
